    -----------------------------------------------------------------------
          PSI4: An Open-Source Ab Initio Electronic Structure Package
                              PSI 4.0.0-beta5 Driver

    J. M. Turney, A. C. Simmonett, R. M. Parrish, E. G. Hohenstein,
    F. A. Evangelista, J. T. Fermann, B. J. Mintz, L. A. Burns, J. J. Wilke,
    M. L. Abrams, N. J. Russ, M. L. Leininger, C. L. Janssen, E. T. Seidl,
    W. D. Allen, H. F. Schaefer, R. A. King, E. F. Valeev, C. D. Sherrill,
    and T. D. Crawford, WIREs Comput. Mol. Sci., (2011) (doi: 10.1002/wcms.93)

                         Additional Contributions by
    A. E. DePrince, M. Saitow, U. Bozkaya, A. Yu. Sokolov
    -----------------------------------------------------------------------

    Process ID:   1471
    PSI4DATADIR: /usr/local/share/psi

    Using LocalCommunicator (Number of processes = 1)

    Memory level set to 256.000 MB

  ==> Input File <==

--------------------------------------------------------------------------
molecule water {
0 1
O
H 1 0.99
H 1 0.99 2 106.0
}

set {
    basis sto-3g
}

energy('cisd')
--------------------------------------------------------------------------

*** tstart() called on helena
*** at Fri Apr 25 11:50:29 2014


         ---------------------------------------------------------
                                   SCF
            by Justin Turney, Rob Parrish, and Andy Simmonett
                              RHF Reference
                        1 Threads,    256 MiB Core
         ---------------------------------------------------------

  ==> Geometry <==

    Molecular point group: c2v
    Full point group: C2v

    Geometry (in Angstrom), charge = 0, multiplicity = 1:

       Center              X                  Y                   Z       
    ------------   -----------------  -----------------  -----------------
           O          0.000000000000     0.000000000000    -0.066678531529
           H          0.000000000000    -0.790649154947     0.529118341392
           H          0.000000000000     0.790649154947     0.529118341392

  Running in c2v symmetry.

  Nuclear repulsion =    8.887006225878341

  Charge       = 0
  Multiplicity = 1
  Electrons    = 10
  Nalpha       = 5
  Nbeta        = 5

  ==> Algorithm <==

  SCF Algorithm Type is PK.
  DIIS enabled.
  MOM disabled.
  Fractional occupation disabled.
  Guess Type is CORE.
  Energy threshold   = 1.00e-08
  Density threshold  = 1.00e-08
  Integral threshold = 0.00e+00

  ==> Primary Basis <==

  Basis Set: STO-3G
    Number of shells: 5
    Number of basis function: 7
    Number of Cartesian functions: 7
    Spherical Harmonics?: true
    Max angular momentum: 1

  ==> Pre-Iterations <==

   -------------------------------------------------------
    Irrep   Nso     Nmo     Nalpha   Nbeta   Ndocc  Nsocc
   -------------------------------------------------------
     A1         4       4       0       0       0       0
     A2         0       0       0       0       0       0
     B1         1       1       0       0       0       0
     B2         2       2       0       0       0       0
   -------------------------------------------------------
    Total       7       7       5       5       5       0
   -------------------------------------------------------

  Starting with a DF guess...

 OEINTS: Wrapper to libmints.
   by Justin Turney

   Calculation information:
      Number of atoms:                   3
      Number of AO shells:               5
      Number of SO shells:               4
      Number of primitives:             15
      Number of atomic orbitals:         7
      Number of basis functions:         7

      Number of irreps:                  4
      Number of functions per irrep: [   4    0    1    2 ]

      Overlap, kinetic, potential, dipole, and quadrupole integrals
        stored in file 35.

  ==> Integral Setup <==

  ==> DFJK: Density-Fitted J/K Matrices <==

    J tasked:                  Yes
    K tasked:                  Yes
    wK tasked:                  No
    OpenMP threads:              1
    Integrals threads:           1
    Memory (MB):               183
    Algorithm:                Core
    Integral Cache:           NONE
    Schwarz Cutoff:          1E-12
    Fitting Condition:       1E-12

   => Auxiliary Basis Set <=

  Basis Set: CC-PVDZ-JKFIT
    Number of shells: 42
    Number of basis function: 116
    Number of Cartesian functions: 131
    Spherical Harmonics?: true
    Max angular momentum: 3

  Minimum eigenvalue in the overlap matrix is 3.6393052139E-01.
  Using Symmetric Orthogonalization.
  SCF Guess: Core (One-Electron) Hamiltonian.

  ==> Iterations <==

                           Total Energy        Delta E     RMS |[F,P]|

   @DF-RHF iter   1:   -73.25096728517144   -7.32510e+01   2.17211e-01 
   @DF-RHF iter   2:   -74.93768469164625   -1.68672e+00   3.84449e-02 DIIS
   @DF-RHF iter   3:   -74.96310513030008   -2.54204e-02   7.19062e-03 DIIS
   @DF-RHF iter   4:   -74.96429706845539   -1.19194e-03   1.33957e-03 DIIS
   @DF-RHF iter   5:   -74.96435114434637   -5.40759e-05   3.44107e-04 DIIS
   @DF-RHF iter   6:   -74.96435493216052   -3.78781e-06   3.18024e-05 DIIS
   @DF-RHF iter   7:   -74.96435496124398   -2.90835e-08   5.41729e-08 DIIS
   @DF-RHF iter   8:   -74.96435496124398    0.00000e+00   1.02476e-09 DIIS

  DF guess converged.

  ==> Integral Setup <==

 MINTS: Wrapper to libmints.
   by Justin Turney

   Calculation information:
      Number of atoms:                   3
      Number of AO shells:               5
      Number of SO shells:               4
      Number of primitives:             15
      Number of atomic orbitals:         7
      Number of basis functions:         7

      Number of irreps:                  4
      Integral cutoff                 0.00e+00
      Number of functions per irrep: [   4    0    1    2 ]

      Overlap, kinetic, potential, dipole, and quadrupole integrals
        stored in file 35.

      Computing two-electron integrals...done
      Computed 138 non-zero two-electron integrals.
        Stored in file 33.

	Batch   1 pq = [       0,      14] index = [             0,105]
  ==> DiskJK: Disk-Based J/K Matrices <==

    J tasked:                  Yes
    K tasked:                  Yes
    wK tasked:                  No
    Memory (MB):               183
    Schwarz Cutoff:          1E-12

   @RHF iter   9:   -74.96432876643352    2.61948e-05   3.56502e-06 DIIS
   @RHF iter  10:   -74.96432876666806   -2.34536e-10   8.29543e-07 DIIS
   @RHF iter  11:   -74.96432876667900   -1.09424e-11   2.20894e-07 DIIS
   @RHF iter  12:   -74.96432876668037   -1.36424e-12   4.50452e-08 DIIS
   @RHF iter  13:   -74.96432876668037    0.00000e+00   1.89116e-09 DIIS

  ==> Post-Iterations <==

	Orbital Energies (a.u.)
	-----------------------

	Doubly Occupied:                                                      

	   1A1   -20.243755     2A1    -1.250645     1B2    -0.603166  
	   3A1    -0.445470     1B1    -0.388215  

	Virtual:                                                              

	   4A1     0.570748     2B2     0.708592  

	Final Occupation by Irrep:
	         A1    A2    B1    B2 
	DOCC [     3,    0,    1,    1 ]

  Energy converged.

  @RHF Final Energy:   -74.96432876668037

   => Energetics <=

    Nuclear Repulsion Energy =              8.8870062258783413
    One-Electron Energy =                -121.8401691803099425
    Two-Electron Energy =                  37.9888341877512232
    DFT Exchange-Correlation Energy =       0.0000000000000000
    Empirical Dispersion Energy =           0.0000000000000000
    Total Energy =                        -74.9643287666803815



Properties will be evaluated at   0.000000,   0.000000,   0.000000 Bohr
  ==> Properties <==


Properties computed using the SCF density density matrix
  Nuclear Dipole Moment: (a.u.)
     X:     0.0000      Y:     0.0000      Z:     0.9917

  Electronic Dipole Moment: (a.u.)
     X:     0.0000      Y:     0.0000      Z:    -0.3333

  Dipole Moment: (a.u.)
     X:     0.0000      Y:     0.0000      Z:     0.6584     Total:     0.6584

  Dipole Moment: (Debye)
     X:     0.0000      Y:     0.0000      Z:     1.6735     Total:     1.6735


  Saving occupied orbitals to File 180.

*** tstop() called on helena at Fri Apr 25 11:50:29 2014
Module time:
	user time   =       0.10 seconds =       0.00 minutes
	system time =       0.00 seconds =       0.00 minutes
	total time  =          0 seconds =       0.00 minutes
Total time:
	user time   =       0.10 seconds =       0.00 minutes
	system time =       0.00 seconds =       0.00 minutes
	total time  =          0 seconds =       0.00 minutes

*** tstart() called on helena
*** at Fri Apr 25 11:50:29 2014


	**************************************************
	* TRANSQT2: Program to transform integrals from  *
	*           the SO basis to the MO basis.        *
	*                                                *
	*            Daniel, David, & Justin             *
	**************************************************


	Input parameters:
	-----------------
	Wave function   =	DETCI
	Backtransform   =	No
	Print Level     =	1
	Print TEIs      =	No
	Reference wfn   =	RHF
	Derivative      =	None
	Delete TEI File =	Yes
	Memory (Mbytes) =	256.0
	Cache Level     =	2
	Cache Type      =	LRU
	Chkpt Parameters:
	--------------------
	Number of irreps     = 4
	Number of SOs        = 7
	Number of MOs        = 7
	Number of active MOs = 7

	Label	# SOs	# FZDC	# DOCC	# SOCC	# VIRT	# FZVR
	-----	-----	------	------	------	------	------
	 A1	   4	    0	    3	    0	    1	    0
	 A2	   0	    0	    0	    0	    0	    0
	 B1	   1	    0	    1	    0	    0	    0
	 B2	   2	    0	    1	    0	    1	    0

	Nuclear Rep. energy (chkpt) =      8.88700622587834
	SCF energy          (chkpt) =    -74.96432876668037

	Presorting SO-basis two-electron integrals.
	Sorting File: SO Ints (pq,rs) nbuckets = 1
	Frozen-core energy =    0.000000000000000
	Starting first half-transformation.
	Sorting half-transformed integrals.
	Starting second half-transformation.
	Two-electron integral transformation complete.

*** tstop() called on helena at Fri Apr 25 11:50:30 2014
Module time:
	user time   =       0.00 seconds =       0.00 minutes
	system time =       0.00 seconds =       0.00 minutes
	total time  =          1 seconds =       0.02 minutes
Total time:
	user time   =       0.10 seconds =       0.00 minutes
	system time =       0.01 seconds =       0.00 minutes
	total time  =          1 seconds =       0.02 minutes

*** tstart() called on helena
*** at Fri Apr 25 11:50:30 2014


*******************************************************
                       D E T C I  

                   C. David Sherrill
                   Matt L. Leininger
                     18 June 1999
*******************************************************




PARAMETERS: 
   EX LEVEL      =        2      H0 BLOCKSIZE =      400
   VAL EX LEVEL  =        0      H0 GUESS SIZE=      400
   H0COUPLINGSIZE=        0      H0 COUPLING  =       no
   NUM PRINT     =       20
   MAXITER       =       12      FREEZE CORE  =      yes
   NUM ROOTS     =        1      ICORE        =        1
   PRINT         =        1      FCI          =       no
   R CONV        =   1.00e-04      MIXED        =      yes
   E CONV        =   1.00e-06      MIXED4       =      yes
   OEI FILE      =       35      R4S          =       no
   REPL OTF      =       no
   TEI FILE      =       72      DIAG METHOD  =      SEM
   PRECONDITIONER= DAVIDSON      UPDATE       =   DAVIDSON
   S             =   0.0000      Ms0          =      yes
   MAX NUM VECS  =       13
   RESTART       =       no
   GUESS VECTOR  =  H0BLOCK      OPENTYPE     =     NONE
   REF SYM       =     auto
   COLLAPSE SIZE =        1      HD AVG       = EVANGELISTI
   LSE           =       no      LSE ITER     =        0
   HD OTF        =      yes      NO DFILE     =       no
   MPN           =       no      MPN SCHMIDT  =       no
   ZAPTN         =       no      MPN WIGNER   =       no
   PERT Z        =   1.0000    FOLLOW ROOT  =        0
   NUM THREADS   =        1
   VECS WRITE    =       no      NUM VECS WRITE =        0
   FILTER GUESS  =       no      SF RESTRICT  =       no
   OPDM          =       no      TRANS DENSITY=       no

   FILES         =  50 51 52 53

   EX ALLOW      =  1  1 
   STATE AVERAGE =  1(1.00) 
   STATE AVERAGE =  1(1.00) 

ORBITALS:
   NMO          =        7      NUM ALP      =        5
   ORBS IN CI   =        7      NUM ALP EXPL =        5
   FROZEN CORE  =        0      NUM BET      =        5
   RESTR CORE   =        0      NUM BET EXPL =        5
   IOPEN        =       no
   RAS1 LVL     =        4      A RAS3 MAX   =        2
   RAS1 MIN     =        8      B RAS3 MAX   =        2
   A RAS1 LVL   =        4      RAS4 LVL     =        7
   A RAS1 MIN   =        3      A RAS4 MAX   =        0
   A RAS1 MAX   =        5      B RAS4 MAX   =        0
   B RAS1 LVL   =        4      RAS4 MAX     =        0
   B RAS1 MIN   =        3      A RAS34 MAX  =        2
   B RAS1 MAX   =        5      B RAS34 MAX  =        2
   RAS3 LVL     =        5      RAS34 MAX    =        2
   RAS3 MAX     =        2

   DOCC         =  3  0  1  1 
   SOCC         =  0  0  0  0 
   FROZEN DOCC  =  0  0  0  0 
   FROZEN UOCC  =  0  0  0  0 
   RAS 1        =  3  0  1  1 
   RAS 2        =  0  0  0  0 
   RAS 3        =  1  0  0  1 
   RAS 4        =  0  0  0  0 
*******************************************************


There are 21 alpha strings
There are 21 beta strings
CI space contains    9 blocks

CI space requires 49 determinants

Check SCF Energy from 1- and 2-electron integrals

SCF Energy (ref):            -74.9643287667
Nuclear repulsion energy:      8.8870062259
One-electron energy:        -121.8401691770
Two-electron energy:          37.9888341845
Frozen core energy:            0.0000000000
Total electronic energy:     -83.8513349926
Total SCF energy:            -74.9643287667

 CI vector/subblock length = 49

*** H0 Block Eigenvalue = -75.01703036

Find the roots by the Simultaneous Expansion Method (Block Davidson Method)
Energy convergence = 1e-06
RMS CI vector convergence = 0.0001

Using 1 initial trial vectors
Iter  0  Root  1 = -75.017030356   Delta_E -8.390E+01   Delta_C  4.398E-14  
Warning: Norm of correction (root 0) is < 1.0E-13
Iter  1  Root  1 = -75.017030356   Delta_E  0.000E+00   Delta_C  4.286E-13 c

* ROOT 1 CI total energy = -75.0170303557921


The 20 most important determinants

    1   -0.985398  (    4,    4)  1A1X  2A1X  3A1X  1B1X  1B2X  
    2    0.079514  (    8,    8)  1A1X  2A1X  3A1X  1B1X  2B2X  
    3    0.050801  (    5,    5)  1A1X  2A1X  1B1X  1B2X  4A1X  
    4   -0.050524  (    5,    8)  1A1X  2A1X  3A1B  1B1X  1B2A  4A1A  2B2B  
    5   -0.050524  (    8,    5)  1A1X  2A1X  3A1A  1B1X  1B2B  4A1B  2B2A  
    6    0.046102  (   12,   12)  1A1X  2A1X  3A1X  1B1X  4A1X  
    7    0.042849  (   13,   13)  1A1X  2A1X  1B1X  1B2X  2B2X  
    8   -0.037711  (   12,   13)  1A1X  2A1X  3A1A  1B1X  1B2B  4A1A  2B2B  
    9   -0.037711  (   13,   12)  1A1X  2A1X  3A1B  1B1X  1B2A  4A1B  2B2A  
   10    0.034167  (    5,    6)  1A1X  2A1A  3A1B  1B1X  1B2X  4A1X  
   11    0.034167  (    6,    5)  1A1X  2A1B  3A1A  1B1X  1B2X  4A1X  
   12    0.031620  (    6,    6)  1A1X  3A1X  1B1X  1B2X  4A1X  
   13   -0.031050  (    6,    8)  1A1X  2A1B  3A1X  1B1X  1B2A  4A1A  2B2B  
   14   -0.031050  (    8,    6)  1A1X  2A1A  3A1X  1B1X  1B2B  4A1B  2B2A  
   15    0.025690  (   19,   19)  1A1X  2A1X  3A1X  1B2X  4A1X  
   16   -0.020519  (   12,   14)  1A1X  2A1A  3A1X  1B1X  1B2B  4A1A  2B2B  
   17   -0.020519  (   14,   12)  1A1X  2A1B  3A1X  1B1X  1B2A  4A1B  2B2A  
   18    0.016986  (   14,   14)  1A1X  3A1X  1B1X  1B2X  2B2X  
   19   -0.014288  (    4,    5)  1A1X  2A1X  3A1A  1B1X  1B2X  4A1B  
   20   -0.014288  (    5,    4)  1A1X  2A1X  3A1B  1B1X  1B2X  4A1A  




        Total Time (s)     %Time 		%Relative
 -----------------------------------------------------
 Read      0.000045
 Write     0.000060
 Sigma1    0.000008
 Sigma2    0.000062
 Sigma3    0.000113
 S1 Thread 0.000000
 S2 Thread 0.000000
 S3 Thread 0.000000

		 "A good bug is a dead bug" 

			 - Starship Troopers

		 "I didn't write FORTRAN.  That's the problem."

			 - Edward Valeev


*** tstop() called on helena at Fri Apr 25 11:50:30 2014
Module time:
	user time   =       0.01 seconds =       0.00 minutes
	system time =       0.00 seconds =       0.00 minutes
	total time  =          0 seconds =       0.00 minutes
Total time:
	user time   =       0.11 seconds =       0.00 minutes
	system time =       0.01 seconds =       0.00 minutes
	total time  =          1 seconds =       0.02 minutes

*** PSI4 exiting successfully. Buy a developer a beer!
