
 Primary working directories    : /lustre/scratch/tmp/pbs.6489173.nova
 Secondary working directories  : /lustre/scratch/tmp/pbs.6489173.nova
 Wavefunction directory         : /home/langner/wfu/
 Main file repository           : /lustre/scratch/tmp/pbs.6489173.nova/

 SHA1      : c18f7d37f9f045f75d4f3096db241dde02ddca0a
 ARCHNAME  : Linux/x86_64
 FC        : /usr/local/intel/13.1-5/composer_xe_2013.5.192/bin/intel64/ifort
 FCVERSION : 13.1.3
 BLASLIB   : -L/usr/local/intel/13.1-5/composer_xe_2013.5.192/mkl/lib/intel64 -lmkl_intel_ilp64 -lmkl_sequential -lmkl_core
 id        : dmwwroc

 Nodes     nprocs
 wn719        1

 Using customized tuning parameters: mindgm=20; mindgv=20; mindgc=6; mindgr=1; noblas=0; minvec=7
 default implementation of scratch files=df  

 ***,divinylbenzene sp dft
 gprint,basis,orbital
 basis=sto-3g
 symmetry,nosym
 geometry={angstrom;
  q1
  c   1 cxx2
  c   1 cxx3       2   60.000
  c   1 cxx4       3   60.000     2 180.000
  c   1 cxx2       4   60.000     3 180.000
  c   1 cxx3       5   60.000     4 180.000
  c   1 cxx4       6   60.000     5 180.000
  c   2 cc8        3 ccc8         4 180.000
  c   5 cc8        6 ccc8         7 180.000
  h   7 hc10       2 hcc10        1 180.000
  h   4 hc10       5 hcc10        1 180.000
  h   3 hc12       2 hcc12        1 180.000
  h   6 hc12       5 hcc12        1 180.000
  c   8 cc14       2 ccc14        3 180.000
  c   9 cc14       5 ccc14        6 180.000
  h   8 hc16       2 hcc16        3   0.000
  h   9 hc16       5 hcc16        6   0.000
  h  15 hc18       9 hcc18        5 180.000
  h  14 hc18       8 hcc18        2 180.000
  h  15 hc20       9 hcc20        5   0.000
  h  14 hc20       8 hcc20        2   0.000
 }
 cxx2=       1.430000
 cxx3=       1.403000
 cxx4=       1.409000
 cc8=        1.450000
 ccc8=       120.000
 hc10=       1.097000
 hcc10=      120.000
 hc12=       1.098720
 hcc12=      120.000
 cc14=       1.342300
 ccc14=      120.000
 hc16=       1.100000
 hcc16=      120.000
 hc18=       1.096600
 hcc18=      109.471
 hc20=       1.095900
 hcc20=      126.000
 
 ks,b3lyp;
 orbprint,10
 pop
 {matrop
 load,s
 print,s}

 Variables initialized (774), CPU time= 0.01 sec
 Commands  initialized (547), CPU time= 0.01 sec, 516 directives.
 Default parameters read. Elapsed time= 0.21 sec

 Checking input...
 Passed
1


                                         ***  PROGRAM SYSTEM MOLPRO  ***
                         Copyright, University College Cardiff Consultants Limited, 2008

                                    Version 2012.1 linked 19 Sep 2013 14:11:18


 **********************************************************************************************************************************
 LABEL *   divinylbenzene sp dft                                                         
 Linux-2.6.18-348.3.1.el5/wn719(x86_64) 64 bit serial version                            DATE: 21-Mar-14          TIME: 05:55:10  
 **********************************************************************************************************************************

 SHA1:             c18f7d37f9f045f75d4f3096db241dde02ddca0a
 **********************************************************************************************************************************


 Variable memory set to    8000000 words,  buffer space   230000 words

 SETTING BASIS          =    STO-3G
 ZSYMEL=NOSYM
 
 SETTING CXX2           =         1.43000000                                  
 SETTING CXX3           =         1.40300000                                  
 SETTING CXX4           =         1.40900000                                  
 SETTING CC8            =         1.45000000                                  
 SETTING CCC8           =       120.00000000                                  
 SETTING HC10           =         1.09700000                                  
 SETTING HCC10          =       120.00000000                                  
 SETTING HC12           =         1.09872000                                  
 SETTING HCC12          =       120.00000000                                  
 SETTING CC14           =         1.34230000                                  
 SETTING CCC14          =       120.00000000                                  
 SETTING HC16           =         1.10000000                                  
 SETTING HCC16          =       120.00000000                                  
 SETTING HC18           =         1.09660000                                  
 SETTING HCC18          =       109.47100000                                  
 SETTING HC20           =         1.09590000                                  
 SETTING HCC20          =       126.00000000                                  


 Recomputing integrals since basis changed


 Using spherical harmonics

 Library entry C      S STO-3G               selected for orbital group  1
 Library entry C      P STO-3G               selected for orbital group  1
 Library entry H      S STO-3G               selected for orbital group  2

1PROGRAM * SEWARD (Integral evaluation for generally contracted gaussian basis sets)     Author: Roland Lindh, 1990

 Geometry written to block  1 of record 700

 Orientation using atomic masses  
 Molecule type: Asymmetric top
 Rotational constants:       4.5175466      0.7291342      0.6278060 GHz  (calculated with average atomic masses)

 Point group  C1  



 ATOMIC COORDINATES

 NR  ATOM    CHARGE       X              Y              Z

   1  C       6.00   -2.651107280    0.523546276    0.000000000
   2  C       6.00   -0.855682112    2.509407165    0.000000000
   3  C       6.00    1.752833457    2.004280937    0.000000000
   4  C       6.00    2.651107280   -0.523546276    0.000000000
   5  C       6.00    0.855682112   -2.509407165    0.000000000
   6  C       6.00   -1.752833457   -2.004280937    0.000000000
   7  C       6.00   -5.330164754    1.098711387    0.000000000
   8  C       6.00    5.330164754   -1.098711387    0.000000000
   9  H       1.00   -3.097427693   -3.582101561    0.000000000
  10  H       1.00    3.097427693    3.582101561    0.000000000
  11  H       1.00   -1.493258825    4.485371268    0.000000000
  12  H       1.00    1.493258825   -4.485371268    0.000000000
  13  C       6.00   -7.031309065   -0.782868538    0.000000000
  14  C       6.00    7.031309065    0.782868538    0.000000000
  15  H       1.00   -5.968484239    3.076977473    0.000000000
  16  H       1.00    5.968484239   -3.076977473    0.000000000
  17  H       1.00    8.943815173   -0.015027805    0.000000000
  18  H       1.00   -8.943815173    0.015027805    0.000000000
  19  H       1.00    6.604866888    2.809438193    0.000000000
  20  H       1.00   -6.604866888   -2.809438193    0.000000000

 Bond lengths in Bohr (Angstrom)

  1- 2  2.677161745   1- 6  2.682686392   1- 7  2.740102891   2- 3  2.656973085   2-11  2.076279895
       ( 1.416692980)       ( 1.419616498)       ( 1.450000000)       ( 1.406009602)       ( 1.098720000)

  3- 4  2.682686392   3-10  2.073029566   4- 5  2.677161745   4- 8  2.740102891   5- 6  2.656973085
       ( 1.419616498)       ( 1.097000000)       ( 1.416692980)       ( 1.450000000)       ( 1.406009602)

  5-12  2.076279895   6- 9  2.073029566   7-13  2.536579386   7-15  2.078698745   8-14  2.536579386
       ( 1.098720000)       ( 1.097000000)       ( 1.342300000)       ( 1.100000000)       ( 1.342300000)

  8-16  2.078698745  13-18  2.072273676  13-20  2.070950867  14-17  2.072273676  14-19  2.070950867
       ( 1.100000000)       ( 1.096600000)       ( 1.095900000)       ( 1.096600000)       ( 1.095900000)

 Bond angles

  1- 2- 3  121.15746356   1- 2-11  120.00000000   1- 6- 5  120.52228233   1- 6- 9  120.00000000

  1- 7-13  120.00000000   1- 7-15  120.00000000   2- 1- 6  118.32025410   2- 1- 7  120.00000000

  2- 3- 4  120.52228233   2- 3-10  119.47771767   3- 2-11  118.84253644   3- 4- 5  118.32025410

  3- 4- 8  121.67974590   4- 3-10  120.00000000   4- 5- 6  121.15746356   4- 5-12  120.00000000

  4- 8-14  120.00000000   4- 8-16  120.00000000   5- 4- 8  120.00000000   5- 6- 9  119.47771767

  6- 1- 7  121.67974590   6- 5-12  118.84253644   7-13-18  109.47100000   7-13-20  126.00000000

  8-14-17  109.47100000   8-14-19  126.00000000  13- 7-15  120.00000000  14- 8-16  120.00000000

 17-14-19  124.52900000  18-13-20  124.52900000


 BASIS DATA

   Nr Sym  Nuc  Type         Exponents   Contraction coefficients

   1.1 A     1  1s           71.616837     0.154329
                             13.045096     0.535328
                              3.530512     0.444635
   2.1 A     1  1s            2.941249    -0.099967
                              0.683483     0.399513
                              0.222290     0.700115
   3.1 A     1  2px           2.941249     0.155916
                              0.683483     0.607684
                              0.222290     0.391957
   4.1 A     1  2py           2.941249     0.155916
                              0.683483     0.607684
                              0.222290     0.391957
   5.1 A     1  2pz           2.941249     0.155916
                              0.683483     0.607684
                              0.222290     0.391957
   6.1 A     2  1s           71.616837     0.154329
                             13.045096     0.535328
                              3.530512     0.444635
   7.1 A     2  1s            2.941249    -0.099967
                              0.683483     0.399513
                              0.222290     0.700115
   8.1 A     2  2px           2.941249     0.155916
                              0.683483     0.607684
                              0.222290     0.391957
   9.1 A     2  2py           2.941249     0.155916
                              0.683483     0.607684
                              0.222290     0.391957
  10.1 A     2  2pz           2.941249     0.155916
                              0.683483     0.607684
                              0.222290     0.391957
  11.1 A     3  1s           71.616837     0.154329
                             13.045096     0.535328
                              3.530512     0.444635
  12.1 A     3  1s            2.941249    -0.099967
                              0.683483     0.399513
                              0.222290     0.700115
  13.1 A     3  2px           2.941249     0.155916
                              0.683483     0.607684
                              0.222290     0.391957
  14.1 A     3  2py           2.941249     0.155916
                              0.683483     0.607684
                              0.222290     0.391957
  15.1 A     3  2pz           2.941249     0.155916
                              0.683483     0.607684
                              0.222290     0.391957
  16.1 A     4  1s           71.616837     0.154329
                             13.045096     0.535328
                              3.530512     0.444635
  17.1 A     4  1s            2.941249    -0.099967
                              0.683483     0.399513
                              0.222290     0.700115
  18.1 A     4  2px           2.941249     0.155916
                              0.683483     0.607684
                              0.222290     0.391957
  19.1 A     4  2py           2.941249     0.155916
                              0.683483     0.607684
                              0.222290     0.391957
  20.1 A     4  2pz           2.941249     0.155916
                              0.683483     0.607684
                              0.222290     0.391957
  21.1 A     5  1s           71.616837     0.154329
                             13.045096     0.535328
                              3.530512     0.444635
  22.1 A     5  1s            2.941249    -0.099967
                              0.683483     0.399513
                              0.222290     0.700115
  23.1 A     5  2px           2.941249     0.155916
                              0.683483     0.607684
                              0.222290     0.391957
  24.1 A     5  2py           2.941249     0.155916
                              0.683483     0.607684
                              0.222290     0.391957
  25.1 A     5  2pz           2.941249     0.155916
                              0.683483     0.607684
                              0.222290     0.391957
  26.1 A     6  1s           71.616837     0.154329
                             13.045096     0.535328
                              3.530512     0.444635
  27.1 A     6  1s            2.941249    -0.099967
                              0.683483     0.399513
                              0.222290     0.700115
  28.1 A     6  2px           2.941249     0.155916
                              0.683483     0.607684
                              0.222290     0.391957
  29.1 A     6  2py           2.941249     0.155916
                              0.683483     0.607684
                              0.222290     0.391957
  30.1 A     6  2pz           2.941249     0.155916
                              0.683483     0.607684
                              0.222290     0.391957
  31.1 A     7  1s           71.616837     0.154329
                             13.045096     0.535328
                              3.530512     0.444635
  32.1 A     7  1s            2.941249    -0.099967
                              0.683483     0.399513
                              0.222290     0.700115
  33.1 A     7  2px           2.941249     0.155916
                              0.683483     0.607684
                              0.222290     0.391957
  34.1 A     7  2py           2.941249     0.155916
                              0.683483     0.607684
                              0.222290     0.391957
  35.1 A     7  2pz           2.941249     0.155916
                              0.683483     0.607684
                              0.222290     0.391957
  36.1 A     8  1s           71.616837     0.154329
                             13.045096     0.535328
                              3.530512     0.444635
  37.1 A     8  1s            2.941249    -0.099967
                              0.683483     0.399513
                              0.222290     0.700115
  38.1 A     8  2px           2.941249     0.155916
                              0.683483     0.607684
                              0.222290     0.391957
  39.1 A     8  2py           2.941249     0.155916
                              0.683483     0.607684
                              0.222290     0.391957
  40.1 A     8  2pz           2.941249     0.155916
                              0.683483     0.607684
                              0.222290     0.391957
  41.1 A     9  1s            3.425251     0.154329
                              0.623914     0.535328
                              0.168855     0.444635
  42.1 A    10  1s            3.425251     0.154329
                              0.623914     0.535328
                              0.168855     0.444635
  43.1 A    11  1s            3.425251     0.154329
                              0.623914     0.535328
                              0.168855     0.444635
  44.1 A    12  1s            3.425251     0.154329
                              0.623914     0.535328
                              0.168855     0.444635
  45.1 A    13  1s           71.616837     0.154329
                             13.045096     0.535328
                              3.530512     0.444635
  46.1 A    13  1s            2.941249    -0.099967
                              0.683483     0.399513
                              0.222290     0.700115
  47.1 A    13  2px           2.941249     0.155916
                              0.683483     0.607684
                              0.222290     0.391957
  48.1 A    13  2py           2.941249     0.155916
                              0.683483     0.607684
                              0.222290     0.391957
  49.1 A    13  2pz           2.941249     0.155916
                              0.683483     0.607684
                              0.222290     0.391957
  50.1 A    14  1s           71.616837     0.154329
                             13.045096     0.535328
                              3.530512     0.444635
  51.1 A    14  1s            2.941249    -0.099967
                              0.683483     0.399513
                              0.222290     0.700115
  52.1 A    14  2px           2.941249     0.155916
                              0.683483     0.607684
                              0.222290     0.391957
  53.1 A    14  2py           2.941249     0.155916
                              0.683483     0.607684
                              0.222290     0.391957
  54.1 A    14  2pz           2.941249     0.155916
                              0.683483     0.607684
                              0.222290     0.391957
  55.1 A    15  1s            3.425251     0.154329
                              0.623914     0.535328
                              0.168855     0.444635
  56.1 A    16  1s            3.425251     0.154329
                              0.623914     0.535328
                              0.168855     0.444635
  57.1 A    17  1s            3.425251     0.154329
                              0.623914     0.535328
                              0.168855     0.444635
  58.1 A    18  1s            3.425251     0.154329
                              0.623914     0.535328
                              0.168855     0.444635
  59.1 A    19  1s            3.425251     0.154329
                              0.623914     0.535328
                              0.168855     0.444635
  60.1 A    20  1s            3.425251     0.154329
                              0.623914     0.535328
                              0.168855     0.444635

 NUCLEAR CHARGE:                   70
 NUMBER OF PRIMITIVE AOS:         180
 NUMBER OF SYMMETRY AOS:          180
 NUMBER OF CONTRACTIONS:           60   (  60A   )
 NUMBER OF CORE ORBITALS:          10   (  10A   )
 NUMBER OF VALENCE ORBITALS:       50   (  50A   )


 NUCLEAR REPULSION ENERGY  452.43141868

 EXTRA SYMMETRY OF AOS IN SYMMETRY 1:   1 1 1 1 2 1 1 1 1 2   1 1 1 1 2 1 1 1 1 2   1 1 1 1 2 1 1 1 1 2   1 1 1 1 2 1 1 1 1 2
                                        1 1 1 1 1 1 1 1 2 1   1 1 1 2 1 1 1 1 1 1

 Eigenvalues of metric

         1 0.178E+00 0.185E+00 0.189E+00 0.214E+00 0.221E+00 0.244E+00 0.260E+00 0.281E+00


 Contracted 2-electron integrals neglected if value below      1.0D-11
 AO integral compression algorithm  1   Integral accuracy      1.0D-11

     5.767 MB (compressed) written to integral file ( 42.5%)


 NUMBER OF SORTED TWO-ELECTRON INTEGRALS:    1675365.     BUFFER LENGTH:  32768
 NUMBER OF SEGMENTS:   1  SEGMENT LENGTH:    1675365      RECORD LENGTH: 524288

 Memory used in sort:       2.23 MW

 SORT1 READ     1719389. AND WROTE      795052. INTEGRALS IN      3 RECORDS. CPU TIME:     0.04 SEC, REAL TIME:     0.07 SEC
 SORT2 READ      795052. AND WROTE     1675365. INTEGRALS IN     22 RECORDS. CPU TIME:     0.06 SEC, REAL TIME:     0.10 SEC

 FILE SIZES:   FILE 1:    13.7 MBYTE,  FILE 4:    12.6 MBYTE,   TOTAL:     26.3 MBYTE

 OPERATOR DM      FOR CENTER  0  COORDINATES:    0.000000    0.000000    0.000000


 **********************************************************************************************************************************
 DATASETS  * FILE   NREC   LENGTH (MB)   RECORD NAMES
              1      19       10.93       500      610      700      900      950      970     1000      129      960     1100   
                                          VAR    BASINP    GEOM    SYMINP    ZMAT    AOBASIS   BASIS     P2S    ABASIS      S 
                                         1400     1410     1200     1210     1080     1600     1650     1300     1700   
                                           T        V       H0       H01     AOSYM     SMH    MOLCAS    ERIS     OPER   

 PROGRAMS   *        TOTAL       INT
 CPU TIMES  *         1.54      1.44
 REAL TIME  *         2.13 SEC
 DISK USED  *        26.78 MB      
 **********************************************************************************************************************************

 Density functional group B3LYP=B88+DIRAC+LYP+VWN5
 Functional: B88(Automatically generated (new) B88)                            Gradient terms: 1
 Functional: DIRAC(Automatically generated (new) DIRAC)                        Gradient terms: 0
 Functional: LYP(Automatically generated (new) LYP)                            Gradient terms: 1
 Functional: VWN5(Automatically generated (new) VWN5)                          Gradient terms: 0
 Use grid at  1800.2
 

 Exact exchange will be calculated, factor:  0.2000

 Functional: B88                       Factor:  0.7200
 Functional: DIRAC                     Factor:  0.0800
 Functional: LYP                       Factor:  0.8100
 Functional: VWN5                      Factor:  0.1900
 
 Generated new metagrid on record  1800.2 with target accuracy 1.0D-06 and 91888 points in CPU time    1.2
 Computed new grid on record 1800.1 in CPU time    1.7
   52784 words reserved for DFT integration

 PROGRAM * RKS-SCF (Restricted closed shell Kohn-Sham)     Authors: W. Meyer, H.-J. Werner, P.J. Knowles, 1993

 NUMBER OF ELECTRONS:      35+   35-    SPACE SYMMETRY=1    SPIN SYMMETRY: Singlet 
 CONVERGENCE THRESHOLDS:    1.00E-05 (Density)    1.40E-06 (Energy)
 MAX. NUMBER OF ITERATIONS:       60
 INTERPOLATION TYPE:            DIIS
 INTERPOLATION STEPS:              2 (START)      1 (STEP)
 LEVEL SHIFTS:                  0.00 (CLOSED)  0.00 (OPEN) 



 Use fine grid record 1800.2 for energy threshold  1.0D-06

   Atom=C  basis=cc-pVTZ           lmin=0  lmax=1
   Atom=H  basis=cc-pVTZ           lmin=0  lmax=1
   Atom=C  basis=cc-pVTZ           lmin=0  lmax=1
   Atom=H  basis=cc-pVTZ           lmin=0  lmax=1

 Orbital guess generated from atomic densities. Full valence occupancy:   35

 Molecular orbital dump at record        2100.2

 ITERATION    DDIFF          GRAD             ENERGY        2-EL.EN.            DIPOLE MOMENTS         DIIS   ORB.
    1      0.000D+00      0.000D+00      -381.96656153   1259.529045    0.00000   -0.00000   -0.00000    0    start
    2      0.000D+00      0.656D-02      -381.95836741   1245.632802   -0.00000   -0.00000   -0.00000    1    diag
    3      0.252D-01      0.750D-02      -382.02203611   1251.237443   -0.00000   -0.00000   -0.00000    2    diag
    4      0.158D-01      0.258D-02      -382.02929757   1251.512816    0.00000   -0.00000   -0.00000    3    diag
    5      0.437D-02      0.257D-03      -382.02935760   1251.511651    0.00000   -0.00000    0.00000    4    diag
    6      0.506D-03      0.101D-03      -382.02936839   1251.515237   -0.00000   -0.00000    0.00000    5    diag
