 openmpi/1.6.4_intel12.1 load complete.
----- GAMESS execution script 'rungms' -----
This job is running on host wn719
under operating system Linux at Wed May 7 21:51:45 CEST 2014
PBS has assigned the following compute nodes to this run:
wn719
Available scratch disk space (Kbyte units) at beginning of the job is
Filesystem            Size  Used Avail Use% Mounted on
mds1@o2ib:/scratch    485T  114T  367T  24% /lustre
GAMESS temporary binary files will be written to /lustre/scratch/tmp/pbs.6865162.nova
GAMESS supplementary output files will be written to /home/langner/GAMESS-US2012
Copying input file dvb_gopt_a_unconverged.inp to your run's scratch directory...
cp dvb_gopt_a_unconverged.inp /lustre/scratch/tmp/pbs.6865162.nova/dvb_gopt_a_unconverged.F05
unset echo
MPI kickoff will run GAMESS on 1 cores in all nodes.
MPI will run 1 compute processes and 1 data servers.
mpiexec -np 2 /usr/local/gamess/2012.05.01-R2-openmpi/gamess.00.x
          ******************************************************
          *         GAMESS VERSION =  1 MAY 2012 (R2)          *
          *             FROM IOWA STATE UNIVERSITY             *
          * M.W.SCHMIDT, K.K.BALDRIDGE, J.A.BOATZ, S.T.ELBERT, *
          *   M.S.GORDON, J.H.JENSEN, S.KOSEKI, N.MATSUNAGA,   *
          *          K.A.NGUYEN, S.J.SU, T.L.WINDUS,           *
          *       TOGETHER WITH M.DUPUIS, J.A.MONTGOMERY       *
          *         J.COMPUT.CHEM.  14, 1347-1363(1993)        *
          **************** 64 BIT LINUX VERSION ****************

  SINCE 1993, STUDENTS AND POSTDOCS WORKING AT IOWA STATE UNIVERSITY
  AND ALSO IN THEIR VARIOUS JOBS AFTER LEAVING ISU HAVE MADE IMPORTANT
  CONTRIBUTIONS TO THE CODE:
     IVANA ADAMOVIC, CHRISTINE AIKENS, YURI ALEXEEV, POOJA ARORA,
     ANDREY ASADCHEV, ROB BELL, PRADIPTA BANDYOPADHYAY, JONATHAN BENTZ,
     BRETT BODE, GALINA CHABAN, WEI CHEN, CHEOL HO CHOI, PAUL DAY,
     ALBERT DEFUSCO, TIM DUDLEY, DMITRI FEDOROV, GRAHAM FLETCHER,
     MARK FREITAG, KURT GLAESEMANN, DAN KEMP, GRANT MERRILL,
     NORIYUKI MINEZAWA, JONATHAN MULLIN, TAKESHI NAGATA,
     SEAN NEDD, HEATHER NETZLOFF, BOSILJKA NJEGIC, RYAN OLSON, MIKE PAK,
     JIM SHOEMAKER, LYUDMILA SLIPCHENKO, SAROM SOK, JIE SONG,
     TETSUYA TAKETSUGU, SIMON WEBB, SOOHAENG YOO, FEDERICO ZAHARIEV

  ADDITIONAL CODE HAS BEEN PROVIDED BY COLLABORATORS IN OTHER GROUPS:
     IOWA STATE UNIVERSITY:
          JOE IVANIC, LAIMUTIS BYTAUTAS, KLAUS RUEDENBERG
     UNIVERSITY OF TOKYO: KIMIHIKO HIRAO, TAKAHITO NAKAJIMA,
          TAKAO TSUNEDA, MUNEAKI KAMIYA, SUSUMU YANAGISAWA,
          KIYOSHI YAGI, MAHITO CHIBA, SEIKEN TOKURA, NAOAKI KAWAKAMI
     UNIVERSITY OF AARHUS: FRANK JENSEN
     UNIVERSITY OF IOWA: VISVALDAS KAIRYS, HUI LI
     NATIONAL INST. OF STANDARDS AND TECHNOLOGY: WALT STEVENS, DAVID GARMER
     UNIVERSITY OF PISA: BENEDETTA MENNUCCI, JACOPO TOMASI
     UNIVERSITY OF MEMPHIS: HENRY KURTZ, PRAKASHAN KORAMBATH
     UNIVERSITY OF ALBERTA: TOBY ZENG, MARIUSZ KLOBUKOWSKI
     UNIVERSITY OF NEW ENGLAND: MARK SPACKMAN
     MIE UNIVERSITY: HIROAKI UMEDA
     MICHIGAN STATE UNIVERSITY:
          KAROL KOWALSKI, MARTA WLOCH, JEFFREY GOUR, JESSE LUTZ, PIOTR PIECUCH
     UNIVERSITY OF SILESIA: MONIKA MUSIAL, STANISLAW KUCHARSKI
     FACULTES UNIVERSITAIRES NOTRE-DAME DE LA PAIX:
          OLIVIER QUINET, BENOIT CHAMPAGNE
     UNIVERSITY OF CALIFORNIA - SANTA BARBARA: BERNARD KIRTMAN
     INSTITUTE FOR MOLECULAR SCIENCE:
          KAZUYA ISHIMURA, MICHIO KATOUDA, AND SHIGERU NAGASE
     UNIVERSITY OF NOTRE DAME: DAN CHIPMAN
     KYUSHU UNIVERSITY:
          HARUYUKI NAKANO,
          FENG LONG GU, JACEK KORCHOWIEC, MARCIN MAKOWSKI, AND YURIKO AOKI,
          HIROTOSHI MORI AND EISAKU MIYOSHI
     PENNSYLVANIA STATE UNIVERSITY:
          TZVETELIN IORDANOV, CHET SWALINA, JONATHAN SKONE,
          SHARON HAMMES-SCHIFFER
     WASEDA UNIVERSITY:
          MASATO KOBAYASHI, TOMOKO AKAMA, TSUGUKI TOUMA,
          TAKESHI YOSHIKAWA, YASUHIRO IKABATA, HIROMI NAKAI
     UNIVERSITY OF NEBRASKA:
          PEIFENG SU, DEJUN SI, NANDUN THELLAMUREGE, YALI WANG, HUI LI
     UNIVERSITY OF ZURICH:
          ROBERTO PEVERATI, KIM BALDRIDGE
     N. COPERNICUS UNIVERSITY AND JACKSON STATE UNIVERSITY:
          MARIA BARYSZ

 EXECUTION OF GAMESS BEGUN Wed May  7 21:51:48 2014

            ECHO OF THE FIRST FEW INPUT CARDS -
 INPUT CARD> $CONTRL COORD=PRINAXIS UNITS=ANGS                                              
 INPUT CARD>         RUNTYP=OPTIMIZE SCFTYP=RHF DFTTYP=B3LYP $END                           
 INPUT CARD> $STATPT OPTTOL=1.0E-4  NSTEP=5 DXMAX=0.01 TRUPD=.false. $END                   
 INPUT CARD> $BASIS  GBASIS=STO NGAUSS=3 $END                                               
 INPUT CARD> $GUESS  GUESS=HUCKEL $END                                                      
 INPUT CARD> $DATA                                                                          
 INPUT CARD>divinylbenzene                                                                  
 INPUT CARD>cnh  2                                                                          
 INPUT CARD>                                                                                
 INPUT CARD> C 6                -0.29126593   -1.36424454    0.00000000                     
 INPUT CARD> C  6               -1.32704602   -0.42995272    0.00000000                     
 INPUT CARD> C   6              -1.03575481    0.93441021    0.00000000                     
 INPUT CARD> C    6              0.29126593    1.36424454    0.00000000                     
 INPUT CARD> C     6             1.32704602    0.42995272    0.00000000                     
 INPUT CARD> C      6            1.03575481   -0.93441021    0.00000000                     
 INPUT CARD> H       1          -2.37312674   -0.76885967    0.00000000                     
 INPUT CARD> H        1         -1.85222338    1.67097105    0.00000000                     
 INPUT CARD> H         1         2.37312674    0.76885967    0.00000000                     
 INPUT CARD> H          1        1.85222338   -1.67097105    0.00000000                     
 INPUT CARD> C           6       0.61280896    2.87030233    0.00000000                     
 INPUT CARD> H            1      1.63138838    3.19801551    0.00000000                     
 INPUT CARD> C             6    -0.61280896   -2.87030233    0.00000000                     
 INPUT CARD> H              1   -1.63138838   -3.19801551    0.00000000                     
 INPUT CARD> C               6  -0.38987895    3.78199526    0.00000000                     
 INPUT CARD> H                1 -1.41038749    3.46033966    0.00000000                     
 INPUT CARD> H  1               -0.16025589    4.82706619    0.00000000                     
 INPUT CARD> C   6               0.38987895   -3.78199526    0.00000000                     
 INPUT CARD> H    1              1.41038749   -3.46033966    0.00000000                     
 INPUT CARD> H     1             0.16025589   -4.82706619    0.00000000                     
 INPUT CARD> $END                                                                           
    1000000 WORDS OF MEMORY AVAILABLE

     BASIS OPTIONS
     -------------
     GBASIS=STO          IGAUSS=       3      POLAR=NONE    
     NDFUNC=       0     NFFUNC=       0     DIFFSP=       F
     NPFUNC=       0      DIFFS=       F     BASNAM=        


     RUN TITLE
     ---------
 divinylbenzene                                                                  

 THE POINT GROUP OF THE MOLECULE IS CNH     
 THE ORDER OF THE PRINCIPAL AXIS IS     2

 THE MOMENTS OF INERTIA ARE (AMU-ANGSTROM**2)
 IXX=   110.383   IYY=   709.625   IZZ=   820.007

 ATOM      ATOMIC                      COORDINATES (BOHR)
           CHARGE         X                   Y                   Z
 C           6.0    -2.5811188317        0.5358294268        0.0000000000
 C           6.0     2.5811188317       -0.5358294268        0.0000000000
 C           6.0    -0.8266570180        2.5031199811        0.0000000000
 C           6.0     0.8266570180       -2.5031199811        0.0000000000
 C           6.0     1.7546858049        1.9672440476        0.0000000000
 C           6.0    -1.7546858049       -1.9672440476        0.0000000000
 H           1.0    -1.4782636034        4.4762736832        0.0000000000
 H           1.0     1.4782636034       -4.4762736832        0.0000000000
 H           1.0     3.1378391795        3.5179901351        0.0000000000
 H           1.0    -3.1378391795       -3.5179901351        0.0000000000
 C           6.0     5.4305450229       -1.1273583347        0.0000000000
 C           6.0    -5.4305450229        1.1273583347        0.0000000000
 H           1.0     6.0607049848       -3.0486625318        0.0000000000
 H           1.0    -6.0607049848        3.0486625318        0.0000000000
 C           6.0     7.1426553416        0.7771566367        0.0000000000
 C           6.0    -7.1426553416       -0.7771566367        0.0000000000
 H           1.0     6.5239217539        2.7021709984        0.0000000000
 H           1.0    -6.5239217539       -2.7021709984        0.0000000000
 H           1.0     9.1199745999        0.3544036681        0.0000000000
 H           1.0    -9.1199745999       -0.3544036681        0.0000000000

          INTERNUCLEAR DISTANCES (ANGS.)
          ------------------------------

                1 C          2 C          3 C          4 C          5 C     

   1 C       0.0000000    2.7899814 *  1.3948984 *  2.4162114 *  2.4162114 *
   2 C       2.7899814 *  0.0000000    2.4162114 *  1.3948984 *  1.3948984 *
   3 C       1.3948984 *  2.4162114 *  0.0000000    2.7899179 *  1.3951117 *
   4 C       2.4162114 *  1.3948984 *  2.7899179 *  0.0000000    2.4160516 *
   5 C       2.4162114 *  1.3948984 *  1.3951117 *  2.4160516 *  0.0000000  
   6 C       1.3948984 *  2.4162114 *  2.4160516 *  1.3951117 *  2.7899179 *
   7 H       2.1653239 *  3.4130810    1.0996103 *  3.8895282    2.1655697 *
   8 H       3.4130810    2.1653239 *  3.8895282    1.0996103 *  3.4128991  
   9 H       3.4130810    2.1653239 *  2.1655697 *  3.4128991    1.0996103 *
  10 H       2.1653239 *  3.4130810    3.4128991    2.1655697 *  3.8895282  
  11 C       4.3299814    1.5400000 *  3.8281485    2.5427231 *  2.5427231 *
  12 C       1.5400000 *  4.3299814    2.5427231 *  3.8281485    3.8281485  
  13 H       4.9508400    2.2712649 *  4.6812912    2.7847434 *  3.4982227  
  14 H       2.2712649 *  4.9508400    2.7847434 *  4.6812912    4.1751313  
  15 C       5.1471845    2.5118672 *  4.3149494    3.7661679    2.9199137 *
  16 C       2.5118672 *  5.1471845    3.7661679    4.3149494    4.9271607  
  17 H       4.9526807    2.6998591 *  3.8911850    4.0837222    2.5535601 *
  18 H       2.6998591 *  4.9526807    4.0837222    3.8911850    5.0296559  
  19 H       6.1926967    3.4921348    5.3849463    4.6418395    3.9898959  
  20 H       3.4921348    6.1926967    4.6418395    5.3849463    5.8843056  

                6 C          7 H          8 H          9 H         10 H     

   1 C       1.3948984 *  2.1653239 *  3.4130810    3.4130810    2.1653239 *
   2 C       2.4162114 *  3.4130810    2.1653239 *  2.1653239 *  3.4130810  
   3 C       2.4160516 *  1.0996103 *  3.8895282    2.1655697 *  3.4128991  
   4 C       1.3951117 *  3.8895282    1.0996103 *  3.4128991    2.1655697 *
   5 C       2.7899179 *  2.1655697 *  3.4128991    1.0996103 *  3.8895282  
   6 C       0.0000000    3.4128991    2.1655697 *  3.8895282    1.0996103 *
   7 H       3.4128991    0.0000000    4.9891385    2.4948175 *  4.3205773  
   8 H       2.1655697 *  4.9891385    0.0000000    4.3205773    2.4948175 *
   9 H       3.8895282    2.4948175 *  4.3205773    0.0000000    4.9891385  
  10 H       1.0996103 *  4.3205773    2.4948175 *  4.9891385    0.0000000  
  11 C       3.8281485    4.7073678    2.7413099 *  2.7413099 *  4.7073678  
  12 C       2.5427231 *  2.7413099 *  4.7073678    4.7073678    2.7413099 *
  13 H       4.1751313    5.6366870    2.5398767 *  3.8036056    4.8739920  
  14 H       3.4982227    2.5398767 *  5.6366870    4.8739920    3.8036056  
  15 C       4.9271607    4.9642273    4.0881764    2.5680488 *  5.8959193  
  16 C       2.9199137 *  4.0881764    4.9642273    5.8959193    2.5680488 *
  17 H       5.0296559    4.3373948    4.6431718    1.8431112 *  6.0807055  
  18 H       2.5535601 *  4.6431718    4.3373948    6.0807055    1.8431112 *
  19 H       5.8843056    6.0175729    4.7840430    3.5810181    6.8025408  
  20 H       3.9898959    4.7840430    6.0175729    6.8025408    3.5810181  

               11 C         12 C         13 H         14 H         15 C     

   1 C       4.3299814    1.5400000 *  4.9508400    2.2712649 *  5.1471845  
   2 C       1.5400000 *  4.3299814    2.2712649 *  4.9508400    2.5118672 *
   3 C       3.8281485    2.5427231 *  4.6812912    2.7847434 *  4.3149494  
   4 C       2.5427231 *  3.8281485    2.7847434 *  4.6812912    3.7661679  
   5 C       2.5427231 *  3.8281485    3.4982227    4.1751313    2.9199137 *
   6 C       3.8281485    2.5427231 *  4.1751313    3.4982227    4.9271607  
   7 H       4.7073678    2.7413099 *  5.6366870    2.5398767 *  4.9642273  
   8 H       2.7413099 *  4.7073678    2.5398767 *  5.6366870    4.0881764  
   9 H       2.7413099 *  4.7073678    3.8036056    4.8739920    2.5680488 *
  10 H       4.7073678    2.7413099 *  4.8739920    3.8036056    5.8959193  
  11 C       0.0000000    5.8699814    1.0700000 *  6.4700002    1.3552000 *
  12 C       5.8699814    0.0000000    6.4700002    1.0700000 *  6.6560319  
  13 H       1.0700000 *  6.4700002    0.0000000    7.1801758    2.1039377 *
  14 H       6.4700002    1.0700000 *  7.1801758    0.0000000    7.0895625  
  15 C       1.3552000 *  6.6560319    2.1039377 *  7.0895625    0.0000000  
  16 C       6.6560319    1.3552000 *  7.0895625    2.1039377 *  7.6040762  
  17 H       2.1074790 *  6.3806864    3.0530664    6.6620218    1.0700000 *
  18 H       6.3806864    2.1074790 *  6.6620218    3.0530664    7.4627324  
  19 H       2.1039378 *  7.7106606    2.4215275 *  8.1588092    1.0700000 *
  20 H       7.7106606    2.1039378 *  8.1588092    2.4215275 *  8.6266209  

               16 C         17 H         18 H         19 H         20 H     

   1 C       2.5118672 *  4.9526807    2.6998591 *  6.1926967    3.4921348  
   2 C       5.1471845    2.6998591 *  4.9526807    3.4921348    6.1926967  
   3 C       3.7661679    3.8911850    4.0837222    5.3849463    4.6418395  
   4 C       4.3149494    4.0837222    3.8911850    4.6418395    5.3849463  
   5 C       4.9271607    2.5535601 *  5.0296559    3.9898959    5.8843056  
   6 C       2.9199137 *  5.0296559    2.5535601 *  5.8843056    3.9898959  
   7 H       4.0881764    4.3373948    4.6431718    6.0175729    4.7840430  
   8 H       4.9642273    4.6431718    4.3373948    4.7840430    6.0175729  
   9 H       5.8959193    1.8431112 *  6.0807055    3.5810181    6.8025408  
  10 H       2.5680488 *  6.0807055    1.8431112 *  6.8025408    3.5810181  
  11 C       6.6560319    2.1074790 *  6.3806864    2.1039378 *  7.7106606  
  12 C       1.3552000 *  6.3806864    2.1074790 *  7.7106606    2.1039378 *
  13 H       7.0895625    3.0530664    6.6620218    2.4215275 *  8.1588092  
  14 H       2.1039377 *  6.6620218    3.0530664    8.1588092    2.4215275 *
  15 C       7.6040762    1.0700000 *  7.4627324    1.0700000 *  8.6266209  
  16 C       0.0000000    7.4627324    1.0700000 *  8.6266209    1.0700000 *
  17 H       7.4627324    0.0000000    7.4734580    1.8522339 *  8.4349284  
  18 H       1.0700000 *  7.4734580    0.0000000    8.4349284    1.8522339 *
  19 H       8.6266209    1.8522339 *  8.4349284    0.0000000    9.6594513  
  20 H       1.0700000 *  8.4349284    1.8522339 *  9.6594513    0.0000000  

  * ... LESS THAN  3.000


     ATOMIC BASIS SET
     ----------------
 THE CONTRACTED PRIMITIVE FUNCTIONS HAVE BEEN UNNORMALIZED
 THE CONTRACTED BASIS FUNCTIONS ARE NOW NORMALIZED TO UNITY

  SHELL TYPE  PRIMITIVE        EXPONENT          CONTRACTION COEFFICIENT(S)

 C         

      3   S       1            71.6168373    0.154328967295
      3   S       2            13.0450963    0.535328142282
      3   S       3             3.5305122    0.444634542185

      4   L       4             2.9412494   -0.099967229187    0.155916274999
      4   L       5             0.6834831    0.399512826089    0.607683718598
      4   L       6             0.2222899    0.700115468880    0.391957393099

 C         

      7   S       7            71.6168373    0.154328967295
      7   S       8            13.0450963    0.535328142282
      7   S       9             3.5305122    0.444634542185

      8   L      10             2.9412494   -0.099967229187    0.155916274999
      8   L      11             0.6834831    0.399512826089    0.607683718598
      8   L      12             0.2222899    0.700115468880    0.391957393099

 C         

     11   S      13            71.6168373    0.154328967295
     11   S      14            13.0450963    0.535328142282
     11   S      15             3.5305122    0.444634542185

     12   L      16             2.9412494   -0.099967229187    0.155916274999
     12   L      17             0.6834831    0.399512826089    0.607683718598
     12   L      18             0.2222899    0.700115468880    0.391957393099

 H         

     14   S      19             3.4252509    0.154328967295
     14   S      20             0.6239137    0.535328142282
     14   S      21             0.1688554    0.444634542185

 H         

     16   S      22             3.4252509    0.154328967295
     16   S      23             0.6239137    0.535328142282
     16   S      24             0.1688554    0.444634542185

 C         

     19   S      25            71.6168373    0.154328967295
     19   S      26            13.0450963    0.535328142282
     19   S      27             3.5305122    0.444634542185

     20   L      28             2.9412494   -0.099967229187    0.155916274999
     20   L      29             0.6834831    0.399512826089    0.607683718598
     20   L      30             0.2222899    0.700115468880    0.391957393099

 H         

     22   S      31             3.4252509    0.154328967295
     22   S      32             0.6239137    0.535328142282
     22   S      33             0.1688554    0.444634542185

 C         

     25   S      34            71.6168373    0.154328967295
     25   S      35            13.0450963    0.535328142282
     25   S      36             3.5305122    0.444634542185

     26   L      37             2.9412494   -0.099967229187    0.155916274999
     26   L      38             0.6834831    0.399512826089    0.607683718598
     26   L      39             0.2222899    0.700115468880    0.391957393099

 H         

     28   S      40             3.4252509    0.154328967295
     28   S      41             0.6239137    0.535328142282
     28   S      42             0.1688554    0.444634542185

 H         

     30   S      43             3.4252509    0.154328967295
     30   S      44             0.6239137    0.535328142282
     30   S      45             0.1688554    0.444634542185

 TOTAL NUMBER OF BASIS SET SHELLS             =   30
 NUMBER OF CARTESIAN GAUSSIAN BASIS FUNCTIONS =   60
 NUMBER OF ELECTRONS                          =   70
 CHARGE OF MOLECULE                           =    0
 SPIN MULTIPLICITY                            =    1
 NUMBER OF OCCUPIED ORBITALS (ALPHA)          =   35
 NUMBER OF OCCUPIED ORBITALS (BETA )          =   35
 TOTAL NUMBER OF ATOMS                        =   20
 THE NUCLEAR REPULSION ENERGY IS      450.5718153685

     LEBEDEV GRID-BASED DFT OPTIONS
     ------------------------------
     DFTTYP=B3LYP   
     NRAD  =      96     NLEB  =     302
     NRAD0 =      24     NLEB0 =     110
     SWOFF =    5.00E-03 (PURE SCF -> DFT)
     SWITCH=    3.00E-04 (COARSE -> TIGHT GRID)
     THRESH=    0.00E+00 GTHRE=    1.00E+00

 GRIMME'S EMPIRICAL DISPERSION CORRECTION= F

     $CONTRL OPTIONS
     ---------------
 SCFTYP=RHF          RUNTYP=OPTIMIZE     EXETYP=RUN     
 MPLEVL=       0     CITYP =NONE         CCTYP =NONE         VBTYP =NONE    
 DFTTYP=B3LYP        TDDFT =NONE    
 MULT  =       1     ICHARG=       0     NZVAR =       0     COORD =PRINAXIS
 PP    =NONE         RELWFN=NONE         LOCAL =NONE         NUMGRD=       F
 ISPHER=      -1     NOSYM =       0     MAXIT =      30     UNITS =ANGS    
 PLTORB=       F     MOLPLT=       F     AIMPAC=       F     FRIEND=        
 NPRINT=       7     IREST =       0     GEOM  =INPUT   
 NORMF =       0     NORMP =       0     ITOL  =      20     ICUT  =       9
 INTTYP=BEST         GRDTYP=BEST         QMTTOL= 1.0E-06

     $SYSTEM OPTIONS
     ---------------
  REPLICATED MEMORY=     1000000 WORDS (ON EVERY NODE).
 DISTRIBUTED MEMDDI=           0 MILLION WORDS IN AGGREGATE,
 MEMDDI DISTRIBUTED OVER   1 PROCESSORS IS           0 WORDS/PROCESSOR.
 TOTAL MEMORY REQUESTED ON EACH PROCESSOR=     1000000 WORDS.
 TIMLIM=      525600.00 MINUTES, OR     365.0 DAYS.
 PARALL= F  BALTYP=  DLB     KDIAG=    0  COREFL= F
 MXSEQ2=     300 MXSEQ3=     150

          ----------------
          PROPERTIES INPUT
          ----------------

     MOMENTS            FIELD           POTENTIAL          DENSITY
 IEMOM =       1   IEFLD =       0   IEPOT =       0   IEDEN =       0
 WHERE =COMASS     WHERE =NUCLEI     WHERE =NUCLEI     WHERE =NUCLEI  
 OUTPUT=BOTH       OUTPUT=BOTH       OUTPUT=BOTH       OUTPUT=BOTH    
 IEMINT=       0   IEFINT=       0                     IEDINT=       0
                                                       MORB  =       0
          EXTRAPOLATION IN EFFECT
          DIIS IN EFFECT
 ORBITAL PRINTING OPTION: NPREO=     1    60     2     1

     -------------------------------
     INTEGRAL TRANSFORMATION OPTIONS
     -------------------------------
     NWORD  =            0
     CUTOFF = 1.0E-09     MPTRAN =       0
     DIRTRF =       F     AOINTS =DUP     

          ----------------------
          INTEGRAL INPUT OPTIONS
          ----------------------
 NOPK  =       1 NORDER=       0 SCHWRZ=       T

     ------------------------------------------
     THE POINT GROUP IS CNH, NAXIS= 2, ORDER= 4
     ------------------------------------------

     DIMENSIONS OF THE SYMMETRY SUBSPACES ARE
 AG  =   25     AU  =    5     BU  =   25     BG  =    5

 ..... DONE SETTING UP THE RUN .....
 STEP CPU TIME =     0.02 TOTAL CPU TIME =        0.0 (    0.0 MIN)
 TOTAL WALL CLOCK TIME=        0.4 SECONDS, CPU UTILIZATION IS   4.55%


          -----------------------------
          STATIONARY POINT LOCATION RUN
          -----------------------------

 OBTAINING INITIAL HESSIAN, HESS=GUESS   
 CARTESIAN COORDINATE OPTIMIZATION USING BADGER'S RULE FORCE CONSTANT GUESS

          PARAMETERS CONTROLLING GEOMETRY SEARCH ARE
          METHOD =QA                  UPHESS =BFGS    
          NNEG   =         0          NFRZ   =         0
          NSTEP  =         5          IFOLOW =         1
          HESS   =GUESS               RESTAR =         F
          IHREP  =         0          HSSEND =         F
          NPRT   =         0          NPUN   =         0
          OPTTOL = 1.000E-04          RMIN   = 1.500E-03
          RMAX   = 1.000E-01          RLIM   = 7.000E-02
          DXMAX  = 1.000E-02          PURIFY =         F
          MOVIE  =         F          TRUPD  =         F
          TRMAX  = 5.000E-01          TRMIN  = 5.000E-02
          ITBMAT =         5          STPT   =         F
          STSTEP = 1.000E-02          PROJCT=          T

 BEGINNING GEOMETRY SEARCH POINT NSERCH=   0 ...

 COORDINATES OF SYMMETRY UNIQUE ATOMS (ANGS)
   ATOM   CHARGE       X              Y              Z
 ------------------------------------------------------------
 C           6.0   1.3658693633  -0.2835487421   0.0000000000
 C           6.0   0.4374480869  -1.3245941461   0.0000000000
 C           6.0  -0.9285398075  -1.0410207937   0.0000000000
 H           1.0   0.7822634673  -2.3687421945   0.0000000000
 H           1.0  -1.6604731056  -1.8616403425   0.0000000000
 C           6.0  -2.8737208771   0.5965723824   0.0000000000
 H           1.0  -3.2071871923   1.6132828525   0.0000000000
 C           6.0  -3.7797307060  -0.4112536112   0.0000000000
 H           1.0  -3.4523109680  -1.4299274159   0.0000000000
 H           1.0  -4.8260830719  -0.1875423582   0.0000000000
 COORDINATES OF ALL ATOMS ARE (ANGS)
   ATOM   CHARGE       X              Y              Z
 ------------------------------------------------------------
 C           6.0  -1.3658693633   0.2835487421   0.0000000000
 C           6.0   1.3658693633  -0.2835487421   0.0000000000
 C           6.0  -0.4374480869   1.3245941461   0.0000000000
 C           6.0   0.4374480869  -1.3245941461   0.0000000000
 C           6.0   0.9285398075   1.0410207937   0.0000000000
 C           6.0  -0.9285398075  -1.0410207937   0.0000000000
 H           1.0  -0.7822634673   2.3687421945   0.0000000000
 H           1.0   0.7822634673  -2.3687421945   0.0000000000
 H           1.0   1.6604731056   1.8616403425   0.0000000000
 H           1.0  -1.6604731056  -1.8616403425   0.0000000000
 C           6.0   2.8737208771  -0.5965723824   0.0000000000
 C           6.0  -2.8737208771   0.5965723824   0.0000000000
 H           1.0   3.2071871923  -1.6132828525   0.0000000000
 H           1.0  -3.2071871923   1.6132828525   0.0000000000
 C           6.0   3.7797307060   0.4112536112   0.0000000000
 C           6.0  -3.7797307060  -0.4112536112   0.0000000000
 H           1.0   3.4523109680   1.4299274159   0.0000000000
 H           1.0  -3.4523109680  -1.4299274159   0.0000000000
 H           1.0   4.8260830719   0.1875423582   0.0000000000
 H           1.0  -4.8260830719  -0.1875423582   0.0000000000

          ********************
          1 ELECTRON INTEGRALS
          ********************
 ...... END OF ONE-ELECTRON INTEGRALS ......
 STEP CPU TIME =     0.00 TOTAL CPU TIME =        0.0 (    0.0 MIN)
 TOTAL WALL CLOCK TIME=        0.4 SECONDS, CPU UTILIZATION IS   4.44%

          -------------
          GUESS OPTIONS
          -------------
          GUESS =HUCKEL            NORB  =       0          NORDER=       0
          MIX   =       F          PRTMO =       F          PUNMO =       F
          TOLZ  = 1.0E-08          TOLE  = 1.0E-05
          SYMDEN=       F          PURIFY=       F

 INITIAL GUESS ORBITALS GENERATED BY HUCKEL   ROUTINE.
 HUCKEL GUESS REQUIRES     53480 WORDS.

 SYMMETRIES FOR INITIAL GUESS ORBITALS FOLLOW.   BOTH SET(S).
    35 ORBITALS ARE OCCUPIED (   10 CORE ORBITALS).
    11=AG      12=BU      13=AG      14=BU      15=BU      16=AG      17=AG  
    18=BU      19=AG      20=AG      21=BU      22=AU      23=BU      24=BU  
    25=AG      26=BG      27=BU      28=AG      29=BU      30=AU      31=BU  
    32=BG      33=AG      34=BG      35=AG      36=AU      37=AU      38=BG  
    39=AU      40=BG      41=AG      42=AG      43=AG      44=AG      45=AG  
 ...... END OF INITIAL ORBITAL SELECTION ......
 STEP CPU TIME =     0.07 TOTAL CPU TIME =        0.1 (    0.0 MIN)
 TOTAL WALL CLOCK TIME=        0.5 SECONDS, CPU UTILIZATION IS  16.36%

                    ----------------------
                    AO INTEGRAL TECHNOLOGY
                    ----------------------
     S,P,L SHELL ROTATED AXIS INTEGRALS, REPROGRAMMED BY
        KAZUYA ISHIMURA (IMS) AND JOSE SIERRA (SYNSTAR).
     S,P,D,L SHELL ROTATED AXIS INTEGRALS PROGRAMMED BY
        KAZUYA ISHIMURA (INSTITUTE FOR MOLECULAR SCIENCE).
     S,P,D,F,G SHELL TO TOTAL QUARTET ANGULAR MOMENTUM SUM 5,
        ERIC PROGRAM BY GRAHAM FLETCHER (ELORET AND NASA ADVANCED
        SUPERCOMPUTING DIVISION, AMES RESEARCH CENTER).
     S,P,D,F,G,L SHELL GENERAL RYS QUADRATURE PROGRAMMED BY
        MICHEL DUPUIS (PACIFIC NORTHWEST NATIONAL LABORATORY).

          --------------------
          2 ELECTRON INTEGRALS
          --------------------

 THE -PK- OPTION IS OFF, THE INTEGRALS ARE NOT IN SUPERMATRIX FORM.
 STORING   15000 INTEGRALS/RECORD ON DISK, USING 12 BYTES/INTEGRAL.
 TWO ELECTRON INTEGRAL EVALUATION REQUIRES   89821 WORDS OF MEMORY.
 SCHWARZ INEQUALITY OVERHEAD:      1785 INTEGRALS, T=        0.00
 II,JST,KST,LST =  1  1  1  1 NREC =         1 INTLOC =    1
 II,JST,KST,LST =  2  1  1  1 NREC =         1 INTLOC =    1
 II,JST,KST,LST =  3  1  1  1 NREC =         1 INTLOC =    1
 II,JST,KST,LST =  4  1  1  1 NREC =         1 INTLOC =    3
 II,JST,KST,LST =  5  1  1  1 NREC =         1 INTLOC =  473
 II,JST,KST,LST =  6  1  1  1 NREC =         1 INTLOC =  473
 II,JST,KST,LST =  7  1  1  1 NREC =         1 INTLOC =  473
 II,JST,KST,LST =  8  1  1  1 NREC =         1 INTLOC =  882
 II,JST,KST,LST =  9  1  1  1 NREC =         1 INTLOC = 6384
 II,JST,KST,LST = 10  1  1  1 NREC =         1 INTLOC = 6384
 II,JST,KST,LST = 11  1  1  1 NREC =         1 INTLOC = 6384
 II,JST,KST,LST = 12  1  1  1 NREC =         1 INTLOC = 8977
 II,JST,KST,LST = 13  1  1  1 NREC =         3 INTLOC =  256
 II,JST,KST,LST = 14  1  1  1 NREC =         3 INTLOC =  256
 II,JST,KST,LST = 15  1  1  1 NREC =         3 INTLOC = 9791
 II,JST,KST,LST = 16  1  1  1 NREC =         3 INTLOC = 9791
 II,JST,KST,LST = 17  1  1  1 NREC =         4 INTLOC = 6526
 II,JST,KST,LST = 18  1  1  1 NREC =         4 INTLOC = 6526
 II,JST,KST,LST = 19  1  1  1 NREC =         4 INTLOC = 6526
 II,JST,KST,LST = 20  1  1  1 NREC =         5 INTLOC = 1123
 II,JST,KST,LST = 21  1  1  1 NREC =         9 INTLOC = 8715
 II,JST,KST,LST = 22  1  1  1 NREC =         9 INTLOC = 8715
 II,JST,KST,LST = 23  1  1  1 NREC =        11 INTLOC = 3780
 II,JST,KST,LST = 24  1  1  1 NREC =        11 INTLOC = 3780
 II,JST,KST,LST = 25  1  1  1 NREC =        11 INTLOC = 3780
 II,JST,KST,LST = 26  1  1  1 NREC =        12 INTLOC = 2455
 II,JST,KST,LST = 27  1  1  1 NREC =        19 INTLOC = 6112
 II,JST,KST,LST = 28  1  1  1 NREC =        19 INTLOC = 6112
 II,JST,KST,LST = 29  1  1  1 NREC =        22 INTLOC = 2532
 II,JST,KST,LST = 30  1  1  1 NREC =        22 INTLOC = 2532
 SCHWARZ INEQUALITY TEST SKIPPED       21430 INTEGRAL BLOCKS.
 TOTAL NUMBER OF NONZERO TWO-ELECTRON INTEGRALS =              354281
         24 INTEGRAL RECORDS WERE STORED ON DISK FILE  8.
  ...... END OF TWO-ELECTRON INTEGRALS .....
 STEP CPU TIME =     0.15 TOTAL CPU TIME =        0.2 (    0.0 MIN)
 TOTAL WALL CLOCK TIME=        0.8 SECONDS, CPU UTILIZATION IS  28.92%

          --------------------------
             R-B3LYP SCF CALCULATION
          --------------------------

     NUCLEAR ENERGY =       450.5718153685
     MAXIT =   30     NPUNCH=    2
     EXTRAP=T  DAMP=F  SHIFT=F  RSTRCT=F  DIIS=T  DEM=F  SOSCF=F
         DENSITY MATRIX CONVERGENCE THRESHOLD=  1.00E-05
     COARSE -> FINE DFT GRID SWITCH THRESHOLD=  3.00E-04 (SWITCH IN $DFT)
                   HF -> DFT SWITCH THRESHOLD=  5.00E-03 (SWOFF IN $DFT)
     MEMORY REQUIRED FOR RHF ITERS=    708602 WORDS.

 DFT CODE IS SWITCHING FROM THE FINE GRID NRAD= 96,  NLEB=  302
                      TO THE COARSE GRID NRAD0= 24, NLEB0=  110

     EXCHANGE FUNCTIONAL   =B88&HFX   
     CORRELATION FUNCTIONAL=LYP88&VWN5
     DFT THRESHOLD         =.690E-08
     GRID CHANGE THRESHOLD =.300E-03
 FOR AN EULER-MACLAURIN QUADRATURE USING  96 RADIAL POINTS:
 SMALLEST GAUSSIAN PRIMITIVE EXPONENT=        0.1688554040 OF TYPE -S-
 ON ATOM NUMBER   7 HAS RADIAL NORMALIZATION=  1.000000
  LARGEST GAUSSIAN PRIMITIVE EXPONENT=       71.6168373490 OF TYPE -S-
 ON ATOM NUMBER   1 HAS RADIAL NORMALIZATION=  1.000000
 DFT IS SWITCHED OFF, PERFORMING PURE SCF UNTIL SWOFF THRESHOLD IS REACHED.

 ITER EX DEM     TOTAL ENERGY        E CHANGE  DENSITY CHANGE    DIIS ERROR
   1  0  0     -379.4308698697  -379.4308698697   0.194546746   0.647234174
          * * *   INITIATING DIIS PROCEDURE   * * *
   2  1  0     -379.7524655813    -0.3215957117   0.047333693   0.032550358
   3  2  0     -379.7588965327    -0.0064309513   0.015027770   0.009229042
   4  3  0     -379.7593786956    -0.0004821629   0.005525438   0.004834652
   5  4  0     -379.7594634381    -0.0000847425   0.001208080   0.001110190
 CONVERGED TO SWOFF, SO DFT CALCULATION IS NOW SWITCHED ON.
          * * *   INITIATING DIIS PROCEDURE   * * *
   6  5  0     -382.0289197556    -2.2694563175   0.041290801   0.093386750
   7  6  0     -382.0363458486    -0.0074260929   0.013432554   0.005440521
   8  7  0     -382.0365339172    -0.0001880687   0.011490960   0.004244536
   9  8  0     -382.0366179761    -0.0000840588   0.005196015   0.003136448
  10  9  0     -382.0366498680    -0.0000318919   0.000235289   0.000167048
 DFT CODE IS SWITCHING BACK TO THE FINE GRID
          * * *   INITIATING DIIS PROCEDURE   * * *
  11 10  0     -382.0354165240     0.0012333440   0.000379222   0.000270525
  12 11  0     -382.0354171574    -0.0000006334   0.000241492   0.000084448
  13 12  0     -382.0354171713    -0.0000000139   0.000210477   0.000104216
  14 13  0     -382.0354172140    -0.0000000427   0.000073544   0.000042065
  15 14  0     -382.0354172194    -0.0000000053   0.000009334   0.000006443
  16 15  0     -382.0354172196    -0.0000000002   0.000001638   0.000000882

          -----------------
          DENSITY CONVERGED
          -----------------
     TIME TO FORM FOCK OPERATORS=      12.7 SECONDS (       0.8 SEC/ITER)
     TIME TO SOLVE SCF EQUATIONS=       0.0 SECONDS (       0.0 SEC/ITER)

 FINAL R-B3LYP ENERGY IS     -382.0354172196 AFTER  16 ITERATIONS
 DFT EXCHANGE + CORRELATION ENERGY =       -46.5774698424
 TOTAL ELECTRON NUMBER             =        69.9998518121

          ------------
          EIGENVECTORS
          ------------

                      1          2          3          4          5
                  -10.0149   -10.0149   -10.0028   -10.0028   -10.0019
                     BU         AG         BU         AG         BU  
    1  C  1  S    0.699394   0.699357   0.024459   0.010398  -0.009577
    2  C  1  S    0.031834   0.031611  -0.008001  -0.002736   0.003433
    3  C  1  X    0.001421   0.001074  -0.003465  -0.002182   0.000324
    4  C  1  Y   -0.000293  -0.000220  -0.001427  -0.004812  -0.005091
    5  C  1  Z    0.000000   0.000000   0.000000   0.000000   0.000000
    6  C  2  S   -0.699394   0.699357  -0.024459   0.010398   0.009577
    7  C  2  S   -0.031834   0.031611   0.008001  -0.002736  -0.003433
    8  C  2  X    0.001421  -0.001074  -0.003465   0.002182   0.000324
    9  C  2  Y   -0.000293   0.000220  -0.001427   0.004812  -0.005091
   10  C  2  Z    0.000000   0.000000   0.000000   0.000000   0.000000
   11  C  3  S   -0.018357  -0.019595   0.649602   0.637794   0.261212
   12  C  3  S   -0.008091  -0.007239   0.031673   0.031170   0.005369
   13  C  3  X    0.002695   0.003081   0.002084   0.002124  -0.003910
   14  C  3  Y    0.003550   0.003396  -0.001504  -0.001230   0.000488
   15  C  3  Z    0.000000   0.000000   0.000000   0.000000   0.000000
   16  C  4  S    0.018357  -0.019595  -0.649602   0.637794  -0.261212
   17  C  4  S    0.008091  -0.007239  -0.031673   0.031170  -0.005369
   18  C  4  X    0.002695  -0.003081   0.002084  -0.002124  -0.003910
   19  C  4  Y    0.003550  -0.003396  -0.001504   0.001230   0.000488
   20  C  4  Z    0.000000   0.000000   0.000000   0.000000   0.000000
   21  C  5  S    0.017441  -0.018571  -0.259822  -0.288385   0.650109
   22  C  5  S    0.008063  -0.007188  -0.017997  -0.018952   0.026638
   23  C  5  X    0.001056  -0.001482   0.004467   0.004263   0.000805
   24  C  5  Y   -0.004324   0.004339  -0.000427  -0.000419  -0.001170
   25  C  5  Z    0.000000   0.000000   0.000000   0.000000   0.000000
   26  C  6  S   -0.017441  -0.018571   0.259822  -0.288385  -0.650109
   27  C  6  S   -0.008063  -0.007188   0.017997  -0.018952  -0.026638
   28  C  6  X    0.001056   0.001482   0.004467  -0.004263   0.000805
   29  C  6  Y   -0.004324  -0.004339  -0.000427   0.000419  -0.001170
   30  C  6  Z    0.000000   0.000000   0.000000   0.000000   0.000000
   31  H  7  S    0.000340   0.000205  -0.005902  -0.005841  -0.002176
   32  H  8  S   -0.000340   0.000205   0.005902  -0.005841   0.002176
   33  H  9  S   -0.000348   0.000210   0.002519   0.002704  -0.005803
   34  H 10  S    0.000348   0.000210  -0.002519   0.002704   0.005803
   35  C 11  S    0.025602  -0.026056   0.009075  -0.007868  -0.008535
   36  C 11  S    0.006222  -0.006310   0.000236  -0.000351  -0.000284
   37  C 11  X   -0.003796   0.003846   0.000012   0.000027  -0.000032
   38  C 11  Y    0.000881  -0.000893  -0.000030  -0.000067  -0.000022
   39  C 11  Z    0.000000   0.000000   0.000000   0.000000   0.000000
   40  C 12  S   -0.025602  -0.026056  -0.009075  -0.007868   0.008535
   41  C 12  S   -0.006222  -0.006310  -0.000236  -0.000351   0.000284
   42  C 12  X   -0.003796  -0.003846   0.000012  -0.000027  -0.000032
   43  C 12  Y    0.000881   0.000893  -0.000030   0.000067  -0.000022
   44  C 12  Z    0.000000   0.000000   0.000000   0.000000   0.000000
   45  H 13  S   -0.000300   0.000311  -0.000046   0.000066   0.000048
   46  H 14  S    0.000300   0.000311   0.000046   0.000066  -0.000048
   47  C 15  S    0.000082  -0.000072   0.000508   0.000134  -0.000898
   48  C 15  S   -0.000471   0.000474   0.000031   0.000090  -0.000034
   49  C 15  X    0.000239  -0.000248  -0.000049  -0.000019   0.000078
   50  C 15  Y    0.000054  -0.000058   0.000057  -0.000003  -0.000119
   51  C 15  Z    0.000000   0.000000   0.000000   0.000000   0.000000
   52  C 16  S   -0.000082  -0.000072  -0.000508   0.000134   0.000898
   53  C 16  S    0.000471   0.000474  -0.000031   0.000090   0.000034
   54  C 16  X    0.000239   0.000248  -0.000049   0.000019   0.000078
   55  C 16  Y    0.000054   0.000058   0.000057   0.000003  -0.000119
   56  C 16  Z    0.000000   0.000000   0.000000   0.000000   0.000000
   57  H 17  S    0.000163  -0.000147  -0.000118  -0.000145   0.000234
   58  H 18  S   -0.000163  -0.000147   0.000118  -0.000145  -0.000234
   59  H 19  S    0.000047  -0.000046   0.000016  -0.000001  -0.000036
   60  H 20  S   -0.000047  -0.000046  -0.000016  -0.000001   0.000036

                      6          7          8          9         10
                  -10.0018   -10.0013   -10.0013    -9.9841    -9.9841
                     AG         BU         AG         BU         AG  
    1  C  1  S    0.024028  -0.027076   0.029280  -0.000458   0.000468
    2  C  1  S   -0.007130   0.004070  -0.004528  -0.000169   0.000168
    3  C  1  X   -0.002803  -0.003914   0.003669   0.000021  -0.000020
    4  C  1  Y    0.002563   0.000716  -0.000595  -0.000037   0.000035
    5  C  1  Z    0.000000   0.000000   0.000000   0.000000   0.000000
    6  C  2  S    0.024028   0.027076   0.029280   0.000458   0.000468
    7  C  2  S   -0.007130  -0.004070  -0.004528   0.000169   0.000168
    8  C  2  X    0.002803  -0.003914  -0.003669   0.000021   0.000020
    9  C  2  Y   -0.002563   0.000716   0.000595  -0.000037  -0.000035
   10  C  2  Z    0.000000   0.000000   0.000000   0.000000   0.000000
   11  C  3  S    0.287356  -0.004562   0.030002  -0.000199   0.000523
   12  C  3  S    0.006746  -0.000260   0.000764   0.000004  -0.000101
   13  C  3  X   -0.003759  -0.000097  -0.000291  -0.000105   0.000024
   14  C  3  Y    0.000573  -0.000106   0.000256  -0.000010   0.000035
   15  C  3  Z    0.000000   0.000000   0.000000   0.000000   0.000000
   16  C  4  S    0.287356   0.004562   0.030002   0.000199   0.000523
   17  C  4  S    0.006746   0.000260   0.000764  -0.000004  -0.000101
   18  C  4  X    0.003759  -0.000097   0.000291  -0.000105  -0.000024
   19  C  4  Y   -0.000573  -0.000106  -0.000256  -0.000010  -0.000035
   20  C  4  Z    0.000000   0.000000   0.000000   0.000000   0.000000
   21  C  5  S    0.636243   0.010641   0.048141   0.001194   0.001258
   22  C  5  S    0.025636   0.000488   0.001763  -0.000047  -0.000068
   23  C  5  X    0.001159  -0.000020   0.000233  -0.000177  -0.000160
   24  C  5  Y   -0.000918   0.000116   0.000115  -0.000016  -0.000021
   25  C  5  Z    0.000000   0.000000   0.000000   0.000000   0.000000
   26  C  6  S    0.636243  -0.010641   0.048141  -0.001194   0.001258
   27  C  6  S    0.025636  -0.000488   0.001763   0.000047  -0.000068
   28  C  6  X   -0.001159  -0.000020  -0.000233  -0.000177   0.000160
   29  C  6  Y    0.000918   0.000116  -0.000115  -0.000016   0.000021
   30  C  6  Z    0.000000   0.000000   0.000000   0.000000   0.000000
   31  H  7  S   -0.002568   0.000118  -0.000367   0.000013  -0.000022
   32  H  8  S   -0.002568  -0.000118  -0.000367  -0.000013  -0.000022
   33  H  9  S   -0.005806  -0.000208  -0.000573   0.000266   0.000265
   34  H 10  S   -0.005806   0.000208  -0.000573  -0.000266   0.000265
   35  C 11  S   -0.057100   0.699879   0.697598   0.009461   0.009468
   36  C 11  S   -0.002466   0.030632   0.030512  -0.006760  -0.006760
   37  C 11  X    0.000029   0.001322   0.001344  -0.003040  -0.003039
   38  C 11  Y   -0.000032   0.000824   0.000821  -0.003410  -0.003410
   39  C 11  Z    0.000000   0.000000   0.000000   0.000000   0.000000
   40  C 12  S   -0.057100  -0.699879   0.697598  -0.009461   0.009468
   41  C 12  S   -0.002466  -0.030632   0.030512   0.006760  -0.006760
   42  C 12  X   -0.000029   0.001322  -0.001344  -0.003040   0.003039
   43  C 12  Y    0.000032   0.000824  -0.000821  -0.003410   0.003410
   44  C 12  Z    0.000000   0.000000   0.000000   0.000000   0.000000
   45  H 13  S    0.000465  -0.006655  -0.006638   0.000056   0.000056
   46  H 14  S    0.000465   0.006655  -0.006638  -0.000056   0.000056
   47  C 15  S   -0.000621  -0.008590  -0.008655   0.700435   0.700435
   48  C 15  S    0.000413  -0.007569  -0.007558   0.031250   0.031250
   49  C 15  X   -0.000080   0.003045   0.003046  -0.000763  -0.000763
   50  C 15  Y   -0.000336   0.003460   0.003446  -0.000854  -0.000854
   51  C 15  Z    0.000000   0.000000   0.000000   0.000000   0.000000
   52  C 16  S   -0.000621   0.008590  -0.008655  -0.700435   0.700435
   53  C 16  S    0.000413   0.007569  -0.007558  -0.031250   0.031250
   54  C 16  X    0.000080   0.003045  -0.003046  -0.000763   0.000763
   55  C 16  Y    0.000336   0.003460  -0.003446  -0.000854   0.000854
   56  C 16  Z    0.000000   0.000000   0.000000   0.000000   0.000000
   57  H 17  S    0.000215   0.000198   0.000211  -0.006643  -0.006643
   58  H 18  S    0.000215  -0.000198   0.000211   0.006643  -0.006643
   59  H 19  S   -0.000056   0.000239   0.000236  -0.006611  -0.006611
   60  H 20  S   -0.000056  -0.000239   0.000236   0.006611  -0.006611

                     11         12         13         14         15
                   -0.8146    -0.7505    -0.7148    -0.7008    -0.6653
                     AG         BU         AG         BU         BU  
    1  C  1  S   -0.108223   0.103484  -0.004272  -0.020234  -0.100470
    2  C  1  S    0.271262  -0.271600   0.014722   0.054416   0.274090
    3  C  1  X    0.049552   0.025339  -0.091450   0.030547   0.060372
    4  C  1  Y   -0.011412   0.006022   0.005890   0.130067  -0.025072
    5  C  1  Z    0.000000   0.000000   0.000000   0.000000   0.000000
    6  C  2  S   -0.108223  -0.103484  -0.004272   0.020234   0.100470
    7  C  2  S    0.271262   0.271600   0.014722  -0.054416  -0.274090
    8  C  2  X   -0.049552   0.025339   0.091450   0.030547   0.060372
    9  C  2  Y    0.011412   0.006022  -0.005890   0.130067  -0.025072
   10  C  2  Z    0.000000   0.000000   0.000000   0.000000   0.000000
   11  C  3  S   -0.099065   0.035842   0.043425  -0.135882  -0.039159
   12  C  3  S    0.246892  -0.093341  -0.112349   0.363203   0.107291
   13  C  3  X    0.013778   0.064085  -0.032119   0.049736  -0.095750
   14  C  3  Y   -0.059162   0.027875   0.018289  -0.006467  -0.037945
   15  C  3  Z    0.000000   0.000000   0.000000   0.000000   0.000000
   16  C  4  S   -0.099065  -0.035842   0.043425   0.135882   0.039159
   17  C  4  S    0.246892   0.093341  -0.112349  -0.363203  -0.107291
   18  C  4  X   -0.013778   0.064085   0.032119   0.049736  -0.095750
   19  C  4  Y    0.059162   0.027875  -0.018289  -0.006467  -0.037945
   20  C  4  Z    0.000000   0.000000   0.000000   0.000000   0.000000
   21  C  5  S   -0.099933  -0.051174   0.034216  -0.116338   0.076900
   22  C  5  S    0.248893   0.133135  -0.088433   0.310632  -0.210491
   23  C  5  X   -0.034723   0.046651   0.050220  -0.067843  -0.041833
   24  C  5  Y   -0.048947  -0.049464   0.001371   0.037431   0.060898
   25  C  5  Z    0.000000   0.000000   0.000000   0.000000   0.000000
   26  C  6  S   -0.099933   0.051174   0.034216   0.116338  -0.076900
   27  C  6  S    0.248893  -0.133135  -0.088433  -0.310632   0.210491
   28  C  6  X    0.034723   0.046651  -0.050220  -0.067843  -0.041833
   29  C  6  Y    0.048947  -0.049464  -0.001371   0.037431   0.060898
   30  C  6  Z    0.000000   0.000000   0.000000   0.000000   0.000000
   31  H  7  S    0.043152  -0.023995  -0.021408   0.097747   0.029674
   32  H  8  S    0.043152   0.023995  -0.021408  -0.097747  -0.029674
   33  H  9  S    0.044883   0.037549  -0.008131   0.085989  -0.052543
   34  H 10  S    0.044883  -0.037549  -0.008131  -0.085989   0.052543
   35  C 11  S   -0.042559  -0.108523  -0.118240   0.004724  -0.055541
   36  C 11  S    0.109643   0.284303   0.312968  -0.014213   0.147743
   37  C 11  X   -0.025153  -0.005649   0.054499   0.016853   0.115933
   38  C 11  Y    0.013284   0.038157   0.049410   0.020834   0.038599
   39  C 11  Z    0.000000   0.000000   0.000000   0.000000   0.000000
   40  C 12  S   -0.042559   0.108523  -0.118240  -0.004724   0.055541
   41  C 12  S    0.109643  -0.284303   0.312968   0.014213  -0.147743
   42  C 12  X    0.025153  -0.005649  -0.054499   0.016853   0.115933
   43  C 12  Y   -0.013284   0.038157  -0.049410   0.020834   0.038599
   44  C 12  Z    0.000000   0.000000   0.000000   0.000000   0.000000
   45  H 13  S    0.021869   0.066649   0.081251  -0.011424   0.046793
   46  H 14  S    0.021869  -0.066649   0.081251   0.011424  -0.046793
   47  C 15  S   -0.022440  -0.082390  -0.120136  -0.012086  -0.108623
   48  C 15  S    0.056012   0.212115   0.315517   0.031373   0.294350
   49  C 15  X   -0.017477  -0.044940  -0.045283  -0.005488  -0.008515
   50  C 15  Y   -0.010679  -0.037069  -0.050125   0.004535  -0.035807
   51  C 15  Z    0.000000   0.000000   0.000000   0.000000   0.000000
   52  C 16  S   -0.022440   0.082390  -0.120136   0.012086   0.108623
   53  C 16  S    0.056012  -0.212115   0.315517  -0.031373  -0.294350
   54  C 16  X    0.017477  -0.044940   0.045283  -0.005488  -0.008515
   55  C 16  Y    0.010679  -0.037069   0.050125   0.004535  -0.035807
   56  C 16  Z    0.000000   0.000000   0.000000   0.000000   0.000000
   57  H 17  S    0.015000   0.055436   0.081735   0.016608   0.077073
   58  H 18  S    0.015000  -0.055436   0.081735  -0.016608  -0.077073
   59  H 19  S    0.009750   0.046860   0.080590   0.007423   0.093366
   60  H 20  S    0.009750  -0.046860   0.080590  -0.007423  -0.093366

                     16         17         18         19         20
                   -0.5835    -0.5574    -0.5344    -0.5102    -0.4659
                     AG         AG         BU         AG         AG  
    1  C  1  S    0.060687   0.064336  -0.009554   0.054112  -0.032861
    2  C  1  S   -0.177554  -0.189472   0.023457  -0.156685   0.108375
    3  C  1  X    0.045885   0.077267   0.110944  -0.135319  -0.129420
    4  C  1  Y   -0.149491   0.166742  -0.046192  -0.022493   0.072973
    5  C  1  Z    0.000000   0.000000   0.000000   0.000000   0.000000
    6  C  2  S    0.060687   0.064336   0.009554   0.054112  -0.032861
    7  C  2  S   -0.177554  -0.189472  -0.023457  -0.156685   0.108375
    8  C  2  X   -0.045885  -0.077267   0.110944   0.135319   0.129420
    9  C  2  Y    0.149491  -0.166742  -0.046192   0.022493  -0.072973
   10  C  2  Z    0.000000   0.000000   0.000000   0.000000   0.000000
   11  C  3  S    0.022300  -0.108319  -0.045385  -0.008606  -0.017435
   12  C  3  S   -0.064430   0.316729   0.136812   0.032226   0.064895
   13  C  3  X    0.164635  -0.003035   0.004568   0.100342  -0.149468
   14  C  3  Y    0.020883   0.084514  -0.005817   0.176847   0.135450
   15  C  3  Z    0.000000   0.000000   0.000000   0.000000   0.000000
   16  C  4  S    0.022300  -0.108319   0.045385  -0.008606  -0.017435
   17  C  4  S   -0.064430   0.316729  -0.136812   0.032226   0.064895
   18  C  4  X   -0.164635   0.003035   0.004568  -0.100342   0.149468
   19  C  4  Y   -0.020883  -0.084514  -0.005817  -0.176847  -0.135450
   20  C  4  Z    0.000000   0.000000   0.000000   0.000000   0.000000
   21  C  5  S   -0.088823   0.042653   0.022050  -0.055569   0.025136
   22  C  5  S    0.252836  -0.125093  -0.066113   0.175948  -0.070671
   23  C  5  X    0.010299  -0.167856  -0.074203   0.039944   0.138037
   24  C  5  Y    0.056539   0.113812   0.029121   0.192646   0.077836
   25  C  5  Z    0.000000   0.000000   0.000000   0.000000   0.000000
   26  C  6  S   -0.088823   0.042653  -0.022050  -0.055569   0.025136
   27  C  6  S    0.252836  -0.125093   0.066113   0.175948  -0.070671
   28  C  6  X   -0.010299   0.167856  -0.074203  -0.039944  -0.138037
   29  C  6  Y   -0.056539  -0.113812   0.029121  -0.192646  -0.077836
   30  C  6  Z    0.000000   0.000000   0.000000   0.000000   0.000000
   31  H  7  S   -0.040776   0.160408   0.041924   0.096033   0.136611
   32  H  8  S   -0.040776   0.160408  -0.041924   0.096033   0.136611
   33  H  9  S    0.124429  -0.057959  -0.055661   0.163555   0.087411
   34  H 10  S    0.124429  -0.057959   0.055661   0.163555   0.087411
   35  C 11  S    0.059153   0.015307  -0.101831  -0.061296   0.036309
   36  C 11  S   -0.178484  -0.048345   0.311375   0.187515  -0.113567
   37  C 11  X    0.087486   0.092623  -0.017241   0.007216  -0.179501
   38  C 11  Y    0.089866  -0.025624  -0.128407  -0.076750   0.114035
   39  C 11  Z    0.000000   0.000000   0.000000   0.000000   0.000000
   40  C 12  S    0.059153   0.015307   0.101831  -0.061296   0.036309
   41  C 12  S   -0.178484  -0.048345  -0.311375   0.187515  -0.113567
   42  C 12  X   -0.087486  -0.092623  -0.017241  -0.007216   0.179501
   43  C 12  Y   -0.089866   0.025624  -0.128407   0.076750  -0.114035
   44  C 12  Z    0.000000   0.000000   0.000000   0.000000   0.000000
   45  H 13  S   -0.095038   0.014539   0.188035   0.125936  -0.157385
   46  H 14  S   -0.095038   0.014539  -0.188035   0.125936  -0.157385
   47  C 15  S   -0.070904  -0.052063   0.080845   0.055763  -0.011822
   48  C 15  S    0.204198   0.154676  -0.245887  -0.174128   0.042650
   49  C 15  X    0.029381   0.064659  -0.069080  -0.075836  -0.064243
   50  C 15  Y    0.054865  -0.003745  -0.136571  -0.080280   0.188008
   51  C 15  Z    0.000000   0.000000   0.000000   0.000000   0.000000
   52  C 16  S   -0.070904  -0.052063  -0.080845   0.055763  -0.011822
   53  C 16  S    0.204198   0.154676   0.245887  -0.174128   0.042650
   54  C 16  X   -0.029381  -0.064659  -0.069080   0.075836   0.064243
   55  C 16  Y   -0.054865   0.003745  -0.136571   0.080280  -0.188008
   56  C 16  Z    0.000000   0.000000   0.000000   0.000000   0.000000
   57  H 17  S    0.108031   0.036239  -0.167994  -0.088546   0.166441
   58  H 18  S    0.108031   0.036239   0.167994  -0.088546   0.166441
   59  H 19  S    0.083381   0.091899  -0.118704  -0.104899  -0.050441
   60  H 20  S    0.083381   0.091899   0.118704  -0.104899  -0.050441

                     21         22         23         24         25
                   -0.4387    -0.4096    -0.3975    -0.3891    -0.3718
                     BU         BU         BU         AG         BU  
    1  C  1  S   -0.006396  -0.072027  -0.022463  -0.027302  -0.000959
    2  C  1  S    0.025380   0.241759   0.079174   0.091240   0.006200
    3  C  1  X   -0.154446   0.069498  -0.048164  -0.019240  -0.104132
    4  C  1  Y   -0.113460  -0.065747   0.270654   0.012652  -0.003576
    5  C  1  Z    0.000000   0.000000   0.000000   0.000000   0.000000
    6  C  2  S    0.006396   0.072027   0.022463  -0.027302   0.000959
    7  C  2  S   -0.025380  -0.241759  -0.079174   0.091240  -0.006200
    8  C  2  X   -0.154446   0.069498  -0.048164   0.019240  -0.104132
    9  C  2  Y   -0.113460  -0.065747   0.270654  -0.012652  -0.003576
   10  C  2  Z    0.000000   0.000000   0.000000   0.000000   0.000000
   11  C  3  S    0.016888   0.040679   0.021692   0.024145   0.031455
   12  C  3  S   -0.055134  -0.141260  -0.077037  -0.079128  -0.099254
   13  C  3  X    0.185166   0.037990  -0.130846  -0.102701  -0.183010
   14  C  3  Y    0.011362  -0.177796  -0.208788   0.022101   0.276418
   15  C  3  Z    0.000000   0.000000   0.000000   0.000000   0.000000
   16  C  4  S   -0.016888  -0.040679  -0.021692   0.024145  -0.031455
   17  C  4  S    0.055134   0.141260   0.077037  -0.079128   0.099254
   18  C  4  X    0.185166   0.037990  -0.130846   0.102701  -0.183010
   19  C  4  Y    0.011362  -0.177796  -0.208788  -0.022101   0.276418
   20  C  4  Z    0.000000   0.000000   0.000000   0.000000   0.000000
   21  C  5  S   -0.038994  -0.034101  -0.039943  -0.017577   0.009431
   22  C  5  S    0.126177   0.121120   0.132929   0.066537  -0.025796
   23  C  5  X   -0.117372   0.109977   0.114918   0.159335   0.272553
   24  C  5  Y    0.068107   0.240276  -0.180704   0.028780   0.122965
   25  C  5  Z    0.000000   0.000000   0.000000   0.000000   0.000000
   26  C  6  S    0.038994   0.034101   0.039943  -0.017577  -0.009431
   27  C  6  S   -0.126177  -0.121120  -0.132929   0.066537   0.025796
   28  C  6  X   -0.117372   0.109977   0.114918  -0.159335   0.272553
   29  C  6  Y    0.068107   0.240276  -0.180704  -0.028780   0.122965
   30  C  6  Z    0.000000   0.000000   0.000000   0.000000   0.000000
   31  H  7  S   -0.063530  -0.210855  -0.165032   0.009022   0.227125
   32  H  8  S    0.063530   0.210855   0.165032   0.009022  -0.227125
   33  H  9  S    0.020522   0.272328  -0.008599   0.122063   0.214652
   34  H 10  S   -0.020522  -0.272328   0.008599   0.122063  -0.214652
   35  C 11  S    0.023545  -0.010546  -0.000907   0.030277  -0.001241
   36  C 11  S   -0.073932   0.032527  -0.005545  -0.090913   0.000127
   37  C 11  X    0.102426   0.015908   0.168425  -0.078908   0.112306
   38  C 11  Y   -0.197443  -0.057273   0.043630  -0.249603  -0.024195
   39  C 11  Z    0.000000   0.000000   0.000000   0.000000   0.000000
   40  C 12  S   -0.023545   0.010546   0.000907   0.030277   0.001241
   41  C 12  S    0.073932  -0.032527   0.005545  -0.090913  -0.000127
   42  C 12  X    0.102426   0.015908   0.168425   0.078908   0.112306
   43  C 12  Y   -0.197443  -0.057273   0.043630   0.249603  -0.024195
   44  C 12  Z    0.000000   0.000000   0.000000   0.000000   0.000000
   45  H 13  S    0.128876   0.074427   0.013071   0.133410   0.042593
   46  H 14  S   -0.128876  -0.074427  -0.013071   0.133410  -0.042593
   47  C 15  S   -0.013410   0.013679   0.005222   0.007540   0.009533
   48  C 15  S    0.048206  -0.045996  -0.025843  -0.013168  -0.037528
   49  C 15  X    0.250748  -0.095252   0.022552   0.332703   0.022573
   50  C 15  Y   -0.066255   0.069016  -0.202810   0.060047  -0.112421
   51  C 15  Z    0.000000   0.000000   0.000000   0.000000   0.000000
   52  C 16  S    0.013410  -0.013679  -0.005222   0.007540  -0.009533
   53  C 16  S   -0.048206   0.045996   0.025843  -0.013168   0.037528
   54  C 16  X    0.250748  -0.095252   0.022552  -0.332703   0.022573
   55  C 16  Y   -0.066255   0.069016  -0.202810  -0.060047  -0.112421
   56  C 16  Z    0.000000   0.000000   0.000000   0.000000   0.000000
   57  H 17  S   -0.080147   0.092117  -0.169144  -0.018983  -0.079107
   58  H 18  S    0.080147  -0.092117   0.169144  -0.018983   0.079107
   59  H 19  S    0.210193  -0.106472   0.041642   0.255751   0.021641
   60  H 20  S   -0.210193   0.106472  -0.041642   0.255751  -0.021641

                     26         27         28         29         30
                   -0.3531    -0.3474    -0.3265    -0.3125    -0.2905
                     AG         BU         AU         BU         AG  
    1  C  1  S    0.023153  -0.008649   0.000000   0.009211  -0.003444
    2  C  1  S   -0.083335   0.032153   0.000000  -0.045109   0.011554
    3  C  1  X    0.051418  -0.120365   0.000000   0.295932   0.091170
    4  C  1  Y    0.090606  -0.150785   0.000000  -0.069015   0.302821
    5  C  1  Z    0.000000   0.000000   0.337166   0.000000   0.000000
    6  C  2  S    0.023153   0.008649   0.000000  -0.009211  -0.003444
    7  C  2  S   -0.083335  -0.032153   0.000000   0.045109   0.011554
    8  C  2  X   -0.051418  -0.120365   0.000000   0.295932  -0.091170
    9  C  2  Y   -0.090606  -0.150785   0.000000  -0.069015  -0.302821
   10  C  2  Z    0.000000   0.000000   0.337166   0.000000   0.000000
   11  C  3  S    0.002997   0.019473   0.000000  -0.012072  -0.008776
   12  C  3  S   -0.019414  -0.069116   0.000000   0.039991   0.021926
   13  C  3  X    0.078018   0.194371   0.000000  -0.028048  -0.127370
   14  C  3  Y   -0.139904   0.059027   0.000000  -0.073865  -0.252370
   15  C  3  Z    0.000000   0.000000   0.302778   0.000000   0.000000
   16  C  4  S    0.002997  -0.019473   0.000000   0.012072  -0.008776
   17  C  4  S   -0.019414   0.069116   0.000000  -0.039991   0.021926
   18  C  4  X   -0.078018   0.194371   0.000000  -0.028048   0.127370
   19  C  4  Y    0.139904   0.059027   0.000000  -0.073865   0.252370
   20  C  4  Z    0.000000   0.000000   0.302778   0.000000   0.000000
   21  C  5  S    0.000142  -0.009004   0.000000   0.015356   0.008233
   22  C  5  S   -0.001504   0.030623   0.000000  -0.049661  -0.017724
   23  C  5  X   -0.101503  -0.138272   0.000000   0.070418   0.079874
   24  C  5  Y    0.054411   0.119265   0.000000   0.143387   0.270045
   25  C  5  Z    0.000000   0.000000   0.303250   0.000000   0.000000
   26  C  6  S    0.000142   0.009004   0.000000  -0.015356   0.008233
   27  C  6  S   -0.001504  -0.030623   0.000000   0.049661  -0.017724
   28  C  6  X    0.101503  -0.138272   0.000000   0.070418  -0.079874
   29  C  6  Y   -0.054411   0.119265   0.000000   0.143387  -0.270045
   30  C  6  Z    0.000000   0.000000   0.303250   0.000000   0.000000
   31  H  7  S   -0.139953  -0.030312   0.000000  -0.028141  -0.220428
   32  H  8  S   -0.139953   0.030312   0.000000   0.028141  -0.220428
   33  H  9  S    0.027232   0.001418   0.000000   0.082779   0.266685
   34  H 10  S    0.027232  -0.001418   0.000000  -0.082779   0.266685
   35  C 11  S   -0.011534  -0.004244   0.000000  -0.005687   0.001422
   36  C 11  S    0.048080  -0.000952   0.000000   0.027254  -0.011746
   37  C 11  X   -0.038661   0.158841   0.000000  -0.236966   0.062254
   38  C 11  Y   -0.222531   0.269004   0.000000   0.133628   0.091300
   39  C 11  Z    0.000000   0.000000   0.151597   0.000000   0.000000
   40  C 12  S   -0.011534   0.004244   0.000000   0.005687   0.001422
   41  C 12  S    0.048080   0.000952   0.000000  -0.027254  -0.011746
   42  C 12  X    0.038661   0.158841   0.000000  -0.236966  -0.062254
   43  C 12  Y    0.222531   0.269004   0.000000   0.133628  -0.091300
   44  C 12  Z    0.000000   0.000000   0.151597   0.000000   0.000000
   45  H 13  S    0.208913  -0.197421   0.000000  -0.197722  -0.100229
   46  H 14  S    0.208913   0.197421   0.000000   0.197722  -0.100229
   47  C 15  S    0.007969  -0.020005   0.000000   0.006257  -0.004965
   48  C 15  S   -0.020326   0.055908   0.000000  -0.018125   0.012321
   49  C 15  X   -0.093379  -0.186181   0.000000   0.202786  -0.036330
   50  C 15  Y    0.294016  -0.232135   0.000000  -0.130383  -0.137441
   51  C 15  Z    0.000000   0.000000   0.081064   0.000000   0.000000
   52  C 16  S    0.007969   0.020005   0.000000  -0.006257  -0.004965
   53  C 16  S   -0.020326  -0.055908   0.000000   0.018125   0.012321
   54  C 16  X    0.093379  -0.186181   0.000000   0.202786   0.036330
   55  C 16  Y   -0.294016  -0.232135   0.000000  -0.130383   0.137441
   56  C 16  Z    0.000000   0.000000   0.081064   0.000000   0.000000
   57  H 17  S    0.279195  -0.134356   0.000000  -0.198133  -0.075292
   58  H 18  S    0.279195   0.134356   0.000000   0.198133  -0.075292
   59  H 19  S   -0.154099  -0.097147   0.000000   0.228286  -0.001326
   60  H 20  S   -0.154099   0.097147   0.000000  -0.228286  -0.001326

                     31         32         33         34         35
                   -0.2816    -0.2566    -0.2063    -0.1941    -0.1531
                     AG         BG         AU         BG         BG  
    1  C  1  S    0.005471   0.000000   0.000000   0.000000   0.000000
    2  C  1  S   -0.039339   0.000000   0.000000   0.000000   0.000000
    3  C  1  X    0.273994   0.000000   0.000000   0.000000   0.000000
    4  C  1  Y   -0.092851   0.000000   0.000000   0.000000   0.000000
    5  C  1  Z    0.000000  -0.357764  -0.012459   0.017826   0.376767
    6  C  2  S    0.005471   0.000000   0.000000   0.000000   0.000000
    7  C  2  S   -0.039339   0.000000   0.000000   0.000000   0.000000
    8  C  2  X   -0.273994   0.000000   0.000000   0.000000   0.000000
    9  C  2  Y    0.092851   0.000000   0.000000   0.000000   0.000000
   10  C  2  Z    0.000000   0.357764  -0.012459  -0.017826  -0.376767
   11  C  3  S    0.002131   0.000000   0.000000   0.000000   0.000000
   12  C  3  S   -0.003076   0.000000   0.000000   0.000000   0.000000
   13  C  3  X   -0.261443   0.000000   0.000000   0.000000   0.000000
   14  C  3  Y    0.049216   0.000000   0.000000   0.000000   0.000000
   15  C  3  Z    0.000000  -0.137367  -0.162675   0.469079   0.202805
   16  C  4  S    0.002131   0.000000   0.000000   0.000000   0.000000
   17  C  4  S   -0.003076   0.000000   0.000000   0.000000   0.000000
   18  C  4  X    0.261443   0.000000   0.000000   0.000000   0.000000
   19  C  4  Y   -0.049216   0.000000   0.000000   0.000000   0.000000
   20  C  4  Z    0.000000   0.137367  -0.162675  -0.469079  -0.202805
   21  C  5  S    0.005187   0.000000   0.000000   0.000000   0.000000
   22  C  5  S   -0.017472   0.000000   0.000000   0.000000   0.000000
   23  C  5  X    0.246624   0.000000   0.000000   0.000000   0.000000
   24  C  5  Y   -0.125827   0.000000   0.000000   0.000000   0.000000
   25  C  5  Z    0.000000   0.149467  -0.155270   0.451113  -0.236950
   26  C  6  S    0.005187   0.000000   0.000000   0.000000   0.000000
   27  C  6  S   -0.017472   0.000000   0.000000   0.000000   0.000000
   28  C  6  X   -0.246624   0.000000   0.000000   0.000000   0.000000
   29  C  6  Y    0.125827   0.000000   0.000000   0.000000   0.000000
   30  C  6  Z    0.000000  -0.149467  -0.155270  -0.451113   0.236950
   31  H  7  S    0.159638   0.000000   0.000000   0.000000   0.000000
   32  H  8  S    0.159638   0.000000   0.000000   0.000000   0.000000
   33  H  9  S    0.098217   0.000000   0.000000   0.000000   0.000000
   34  H 10  S    0.098217   0.000000   0.000000   0.000000   0.000000
   35  C 11  S    0.025278   0.000000   0.000000   0.000000   0.000000
   36  C 11  S   -0.105990   0.000000   0.000000   0.000000   0.000000
   37  C 11  X    0.296564   0.000000   0.000000   0.000000   0.000000
   38  C 11  Y   -0.065347   0.000000   0.000000   0.000000   0.000000
   39  C 11  Z    0.000000   0.364562   0.422294  -0.000652   0.244094
   40  C 12  S    0.025278   0.000000   0.000000   0.000000   0.000000
   41  C 12  S   -0.105990   0.000000   0.000000   0.000000   0.000000
   42  C 12  X   -0.296564   0.000000   0.000000   0.000000   0.000000
   43  C 12  Y    0.065347   0.000000   0.000000   0.000000   0.000000
   44  C 12  Z    0.000000  -0.364562   0.422294   0.000652  -0.244094
   45  H 13  S    0.126463   0.000000   0.000000   0.000000   0.000000
   46  H 14  S    0.126463   0.000000   0.000000   0.000000   0.000000
   47  C 15  S   -0.004959   0.000000   0.000000   0.000000   0.000000
   48  C 15  S    0.010103   0.000000   0.000000   0.000000   0.000000
   49  C 15  X   -0.131108   0.000000   0.000000   0.000000   0.000000
   50  C 15  Y   -0.024034   0.000000   0.000000   0.000000   0.000000
   51  C 15  Z    0.000000   0.268470   0.426031   0.013267   0.395228
   52  C 16  S   -0.004959   0.000000   0.000000   0.000000   0.000000
   53  C 16  S    0.010103   0.000000   0.000000   0.000000   0.000000
   54  C 16  X    0.131108   0.000000   0.000000   0.000000   0.000000
   55  C 16  Y    0.024034   0.000000   0.000000   0.000000   0.000000
   56  C 16  Z    0.000000  -0.268470   0.426031  -0.013267  -0.395228
   57  H 17  S    0.070795   0.000000   0.000000   0.000000   0.000000
   58  H 18  S    0.070795   0.000000   0.000000   0.000000   0.000000
   59  H 19  S   -0.136779   0.000000   0.000000   0.000000   0.000000
   60  H 20  S   -0.136779   0.000000   0.000000   0.000000   0.000000

                     36         37         38         39         40
                    0.0499     0.0940     0.1123     0.1795     0.2826
                     AU         AU         BG         AU         BG  
    1  C  1  S    0.000000   0.000000   0.000000   0.000000   0.000000
    2  C  1  S    0.000000   0.000000   0.000000   0.000000   0.000000
    3  C  1  X    0.000000   0.000000   0.000000   0.000000   0.000000
    4  C  1  Y    0.000000   0.000000   0.000000   0.000000   0.000000
    5  C  1  Z   -0.432178  -0.038952  -0.015222  -0.507967   0.548143
    6  C  2  S    0.000000   0.000000   0.000000   0.000000   0.000000
    7  C  2  S    0.000000   0.000000   0.000000   0.000000   0.000000
    8  C  2  X    0.000000   0.000000   0.000000   0.000000   0.000000
    9  C  2  Y    0.000000   0.000000   0.000000   0.000000   0.000000
   10  C  2  Z   -0.432178  -0.038952   0.015222  -0.507967  -0.548143
   11  C  3  S    0.000000   0.000000   0.000000   0.000000   0.000000
   12  C  3  S    0.000000   0.000000   0.000000   0.000000   0.000000
   13  C  3  X    0.000000   0.000000   0.000000   0.000000   0.000000
   14  C  3  Y    0.000000   0.000000   0.000000   0.000000   0.000000
   15  C  3  Z    0.218279   0.587853   0.210033   0.183568  -0.481038
   16  C  4  S    0.000000   0.000000   0.000000   0.000000   0.000000
   17  C  4  S    0.000000   0.000000   0.000000   0.000000   0.000000
   18  C  4  X    0.000000   0.000000   0.000000   0.000000   0.000000
   19  C  4  Y    0.000000   0.000000   0.000000   0.000000   0.000000
   20  C  4  Z    0.218279   0.587853  -0.210033   0.183568   0.481038
   21  C  5  S    0.000000   0.000000   0.000000   0.000000   0.000000
   22  C  5  S    0.000000   0.000000   0.000000   0.000000   0.000000
   23  C  5  X    0.000000   0.000000   0.000000   0.000000   0.000000
   24  C  5  Y    0.000000   0.000000   0.000000   0.000000   0.000000
   25  C  5  Z    0.283199  -0.549737  -0.201126   0.215869   0.482836
   26  C  6  S    0.000000   0.000000   0.000000   0.000000   0.000000
   27  C  6  S    0.000000   0.000000   0.000000   0.000000   0.000000
   28  C  6  X    0.000000   0.000000   0.000000   0.000000   0.000000
   29  C  6  Y    0.000000   0.000000   0.000000   0.000000   0.000000
   30  C  6  Z    0.283199  -0.549737   0.201126   0.215869  -0.482836
   31  H  7  S    0.000000   0.000000   0.000000   0.000000   0.000000
   32  H  8  S    0.000000   0.000000   0.000000   0.000000   0.000000
   33  H  9  S    0.000000   0.000000   0.000000   0.000000   0.000000
   34  H 10  S    0.000000   0.000000   0.000000   0.000000   0.000000
   35  C 11  S    0.000000   0.000000   0.000000   0.000000   0.000000
   36  C 11  S    0.000000   0.000000   0.000000   0.000000   0.000000
   37  C 11  X    0.000000   0.000000   0.000000   0.000000   0.000000
   38  C 11  Y    0.000000   0.000000   0.000000   0.000000   0.000000
   39  C 11  Z   -0.284856   0.000127   0.536084   0.510479   0.251633
   40  C 12  S    0.000000   0.000000   0.000000   0.000000   0.000000
   41  C 12  S    0.000000   0.000000   0.000000   0.000000   0.000000
   42  C 12  X    0.000000   0.000000   0.000000   0.000000   0.000000
   43  C 12  Y    0.000000   0.000000   0.000000   0.000000   0.000000
   44  C 12  Z   -0.284856   0.000127  -0.536084   0.510479  -0.251633
   45  H 13  S    0.000000   0.000000   0.000000   0.000000   0.000000
   46  H 14  S    0.000000   0.000000   0.000000   0.000000   0.000000
   47  C 15  S    0.000000   0.000000   0.000000   0.000000   0.000000
   48  C 15  S    0.000000   0.000000   0.000000   0.000000   0.000000
   49  C 15  X    0.000000   0.000000   0.000000   0.000000   0.000000
   50  C 15  Y    0.000000   0.000000   0.000000   0.000000   0.000000
   51  C 15  Z    0.454374   0.022314  -0.531812  -0.365159  -0.130716
   52  C 16  S    0.000000   0.000000   0.000000   0.000000   0.000000
   53  C 16  S    0.000000   0.000000   0.000000   0.000000   0.000000
   54  C 16  X    0.000000   0.000000   0.000000   0.000000   0.000000
   55  C 16  Y    0.000000   0.000000   0.000000   0.000000   0.000000
   56  C 16  Z    0.454374   0.022314   0.531812  -0.365159   0.130716
   57  H 17  S    0.000000   0.000000   0.000000   0.000000   0.000000
   58  H 18  S    0.000000   0.000000   0.000000   0.000000   0.000000
   59  H 19  S    0.000000   0.000000   0.000000   0.000000   0.000000
   60  H 20  S    0.000000   0.000000   0.000000   0.000000   0.000000

                     41         42         43         44         45
                    0.3279     0.3521     0.3673     0.4034     0.4182
                     AG         BU         BU         AG         BU  
    1  C  1  S    0.063250   0.054872  -0.047733  -0.079597  -0.074429
    2  C  1  S   -0.362814  -0.311693   0.265399   0.477829   0.436743
    3  C  1  X    0.328179   0.244907  -0.478986  -0.155851   0.022934
    4  C  1  Y   -0.071505  -0.258334  -0.059250   0.001455  -0.162723
    5  C  1  Z    0.000000   0.000000   0.000000   0.000000   0.000000
    6  C  2  S    0.063250  -0.054872   0.047733  -0.079597   0.074429
    7  C  2  S   -0.362814   0.311693  -0.265399   0.477829  -0.436743
    8  C  2  X   -0.328179   0.244907  -0.478986   0.155851   0.022934
    9  C  2  Y    0.071505  -0.258334  -0.059250  -0.001455  -0.162723
   10  C  2  Z    0.000000   0.000000   0.000000   0.000000   0.000000
   11  C  3  S    0.044016  -0.013093   0.014124   0.017657   0.082863
   12  C  3  S   -0.267594   0.068765  -0.084053  -0.111135  -0.497299
   13  C  3  X    0.064882   0.097744  -0.246498   0.202349   0.028023
   14  C  3  Y   -0.264342  -0.361975  -0.104768   0.102200  -0.232792
   15  C  3  Z    0.000000   0.000000   0.000000   0.000000   0.000000
   16  C  4  S    0.044016   0.013093  -0.014124   0.017657  -0.082863
   17  C  4  S   -0.267594  -0.068765   0.084053  -0.111135   0.497299
   18  C  4  X   -0.064882   0.097744  -0.246498  -0.202349   0.028023
   19  C  4  Y    0.264342  -0.361975  -0.104768  -0.102200  -0.232792
   20  C  4  Z    0.000000   0.000000   0.000000   0.000000   0.000000
   21  C  5  S    0.046837   0.043712   0.004947   0.065558  -0.096371
   22  C  5  S   -0.284195  -0.260617  -0.035667  -0.405369   0.584355
   23  C  5  X   -0.166360  -0.010530  -0.343391  -0.211954   0.149648
   24  C  5  Y   -0.221623  -0.309128  -0.238468  -0.096075  -0.055644
   25  C  5  Z    0.000000   0.000000   0.000000   0.000000   0.000000
   26  C  6  S    0.046837  -0.043712  -0.004947   0.065558   0.096371
   27  C  6  S   -0.284195   0.260617   0.035667  -0.405369  -0.584355
   28  C  6  X    0.166360  -0.010530  -0.343391   0.211954   0.149648
   29  C  6  Y    0.221623  -0.309128  -0.238468   0.096075  -0.055644
   30  C  6  Z    0.000000   0.000000   0.000000   0.000000   0.000000
   31  H  7  S    0.453680   0.348643   0.055334   0.038252   0.487078
   32  H  8  S    0.453680  -0.348643  -0.055334   0.038252  -0.487078
   33  H  9  S    0.462039   0.333371   0.431376   0.311706  -0.296322
   34  H 10  S    0.462039  -0.333371  -0.431376   0.311706   0.296322
   35  C 11  S   -0.074904   0.031089  -0.102893  -0.005183  -0.041102
   36  C 11  S    0.420127  -0.173519   0.595588   0.043279   0.261235
   37  C 11  X   -0.358730   0.325971  -0.333558   0.319548  -0.078754
   38  C 11  Y    0.080906  -0.203152  -0.051777  -0.219369  -0.218028
   39  C 11  Z    0.000000   0.000000   0.000000   0.000000   0.000000
   40  C 12  S   -0.074904  -0.031089   0.102893  -0.005183   0.041102
   41  C 12  S    0.420127   0.173519  -0.595588   0.043279  -0.261235
   42  C 12  X    0.358730   0.325971  -0.333558  -0.319548  -0.078754
   43  C 12  Y   -0.080906  -0.203152  -0.051777   0.219369  -0.218028
   44  C 12  Z    0.000000   0.000000   0.000000   0.000000   0.000000
   45  H 13  S   -0.091317  -0.209879  -0.302903  -0.338302  -0.291379
   46  H 14  S   -0.091317   0.209879   0.302903  -0.338302   0.291379
   47  C 15  S    0.041175   0.017455   0.043071   0.048525  -0.071945
   48  C 15  S   -0.237104  -0.109938  -0.250811  -0.302365   0.460822
   49  C 15  X   -0.058060   0.129615  -0.029019   0.244669   0.135224
   50  C 15  Y   -0.006087  -0.311437  -0.036433  -0.373051   0.168974
   51  C 15  Z    0.000000   0.000000   0.000000   0.000000   0.000000
   52  C 16  S    0.041175  -0.017455  -0.043071   0.048525   0.071945
   53  C 16  S   -0.237104   0.109938   0.250811  -0.302365  -0.460822
   54  C 16  X    0.058060   0.129615  -0.029019  -0.244669   0.135224
   55  C 16  Y    0.006087  -0.311437  -0.036433   0.373051   0.168974
   56  C 16  Z    0.000000   0.000000   0.000000   0.000000   0.000000
   57  H 17  S    0.024759   0.370741   0.096220   0.563170  -0.304322
   58  H 18  S    0.024759  -0.370741  -0.096220   0.563170   0.304322
   59  H 19  S    0.239832  -0.160776   0.196504  -0.167168  -0.332654
   60  H 20  S    0.239832   0.160776  -0.196504  -0.167168   0.332654

                     46         47         48         49         50
                    0.4192     0.4390     0.4563     0.4958     0.5086
                     AG         BU         AG         BU         AG  
    1  C  1  S   -0.025474  -0.041138   0.108109   0.051158   0.004631
    2  C  1  S    0.148015   0.254799  -0.663195  -0.316694  -0.034378
    3  C  1  X   -0.155201   0.082196  -0.013933  -0.125492  -0.085803
    4  C  1  Y   -0.234375  -0.037136  -0.086124  -0.138629   0.366525
    5  C  1  Z    0.000000   0.000000   0.000000   0.000000   0.000000
    6  C  2  S   -0.025474   0.041138   0.108109  -0.051158   0.004631
    7  C  2  S    0.148015  -0.254799  -0.663195   0.316694  -0.034378
    8  C  2  X    0.155201   0.082196   0.013933  -0.125492   0.085803
    9  C  2  Y    0.234375  -0.037136   0.086124  -0.138629  -0.366525
   10  C  2  Z    0.000000   0.000000   0.000000   0.000000   0.000000
   11  C  3  S   -0.075653   0.066212  -0.109554  -0.037429   0.089975
   12  C  3  S    0.467439  -0.412055   0.690584   0.231093  -0.579280
   13  C  3  X    0.115281   0.223141  -0.210603  -0.182663  -0.214780
   14  C  3  Y   -0.028012  -0.246792   0.121345  -0.175338   0.015474
   15  C  3  Z    0.000000   0.000000   0.000000   0.000000   0.000000
   16  C  4  S   -0.075653  -0.066212  -0.109554   0.037429   0.089975
   17  C  4  S    0.467439   0.412055   0.690584  -0.231093  -0.579280
   18  C  4  X   -0.115281   0.223141   0.210603  -0.182663   0.214780
   19  C  4  Y    0.028012  -0.246792  -0.121345  -0.175338  -0.015474
   20  C  4  Z    0.000000   0.000000   0.000000   0.000000   0.000000
   21  C  5  S    0.085435  -0.011737  -0.024090   0.048600  -0.115335
   22  C  5  S   -0.524704   0.062999   0.154241  -0.301541   0.746912
   23  C  5  X    0.047250  -0.002958   0.238332  -0.195250  -0.171404
   24  C  5  Y    0.025641  -0.163767  -0.248023  -0.130864  -0.004640
   25  C  5  Z    0.000000   0.000000   0.000000   0.000000   0.000000
   26  C  6  S    0.085435   0.011737  -0.024090  -0.048600  -0.115335
   27  C  6  S   -0.524704  -0.062999   0.154241   0.301541   0.746912
   28  C  6  X   -0.047250  -0.002958  -0.238332  -0.195250   0.171404
   29  C  6  Y   -0.025641  -0.163767   0.248023  -0.130864   0.004640
   30  C  6  Z    0.000000   0.000000   0.000000   0.000000   0.000000
   31  H  7  S   -0.199517   0.510920  -0.475767  -0.006015   0.196707
   32  H  8  S   -0.199517  -0.510920  -0.475767   0.006015   0.196707
   33  H  9  S    0.173165   0.060684  -0.088423   0.454403  -0.325184
   34  H 10  S    0.173165  -0.060684  -0.088423  -0.454403  -0.325184
   35  C 11  S    0.060186   0.047499  -0.090803   0.072362   0.022515
   36  C 11  S   -0.383686  -0.315726   0.555868  -0.452182  -0.162675
   37  C 11  X    0.056171  -0.107038  -0.047345  -0.185827   0.074214
   38  C 11  Y    0.357163   0.307562  -0.144391   0.094470  -0.023031
   39  C 11  Z    0.000000   0.000000   0.000000   0.000000   0.000000
   40  C 12  S    0.060186  -0.047499  -0.090803  -0.072362   0.022515
   41  C 12  S   -0.383686   0.315726   0.555868   0.452182  -0.162675
   42  C 12  X   -0.056171  -0.107038   0.047345  -0.185827  -0.074214
   43  C 12  Y   -0.357163   0.307562   0.144391   0.094470   0.023031
   44  C 12  Z    0.000000   0.000000   0.000000   0.000000   0.000000
   45  H 13  S    0.529316   0.484933  -0.396375   0.368872   0.003478
   46  H 14  S    0.529316  -0.484933  -0.396375  -0.368872   0.003478
   47  C 15  S    0.076442   0.042177   0.064952  -0.118026   0.071268
   48  C 15  S   -0.491627  -0.275904  -0.399485   0.757656  -0.469042
   49  C 15  X   -0.248512  -0.380984   0.017173   0.022896  -0.361876
   50  C 15  Y   -0.040411   0.073255  -0.042263   0.128843  -0.203968
   51  C 15  Z    0.000000   0.000000   0.000000   0.000000   0.000000
   52  C 16  S    0.076442  -0.042177   0.064952   0.118026   0.071268
   53  C 16  S   -0.491627   0.275904  -0.399485  -0.757656  -0.469042
   54  C 16  X    0.248512  -0.380984  -0.017173   0.022896   0.361876
   55  C 16  Y    0.040411   0.073255   0.042263   0.128843   0.203968
   56  C 16  Z    0.000000   0.000000   0.000000   0.000000   0.000000
   57  H 17  S    0.169000  -0.069002   0.255076  -0.556315   0.366590
   58  H 18  S    0.169000   0.069002   0.255076   0.556315   0.366590
   59  H 19  S    0.481518   0.513028   0.188987  -0.357659   0.490814
   60  H 20  S    0.481518  -0.513028   0.188987   0.357659   0.490814

                     51         52         53         54         55
                    0.5496     0.5731     0.5903     0.6142     0.6481
                     AG         BU         AG         BU         BU  
    1  C  1  S   -0.090083  -0.015757  -0.004669  -0.072507   0.068649
    2  C  1  S    0.615256   0.117509   0.032218   0.510325  -0.466019
    3  C  1  X    0.602604  -0.107930   0.121260  -0.011581  -0.006715
    4  C  1  Y   -0.113046  -0.552486   0.160259   0.274771   0.042342
    5  C  1  Z    0.000000   0.000000   0.000000   0.000000   0.000000
    6  C  2  S   -0.090083   0.015757  -0.004669   0.072507  -0.068649
    7  C  2  S    0.615256  -0.117509   0.032218  -0.510325   0.466019
    8  C  2  X   -0.602604  -0.107930  -0.121260  -0.011581  -0.006715
    9  C  2  Y    0.113046  -0.552486  -0.160259   0.274771   0.042342
   10  C  2  Z    0.000000   0.000000   0.000000   0.000000   0.000000
   11  C  3  S    0.036357  -0.094837   0.016567  -0.026862  -0.025664
   12  C  3  S   -0.242760   0.649596  -0.120502   0.182399   0.168433
   13  C  3  X    0.169824  -0.020471  -0.214999   0.759646   0.000497
   14  C  3  Y    0.447416   0.034964   0.596166   0.216509  -0.208394
   15  C  3  Z    0.000000   0.000000   0.000000   0.000000   0.000000
   16  C  4  S    0.036357   0.094837   0.016567   0.026862   0.025664
   17  C  4  S   -0.242760  -0.649596  -0.120502  -0.182399  -0.168433
   18  C  4  X   -0.169824  -0.020471   0.214999   0.759646   0.000497
[...]
   11             0.064615   0.313341   0.353680   0.006021   0.144637
   12             0.064615   0.313341   0.353680   0.006021   0.144637
   13             0.004724   0.031999   0.040747   0.000967   0.011034
   14             0.004724   0.031999   0.040747   0.000967   0.011034
   15             0.019864   0.194486   0.357806   0.003777   0.261481
   16             0.019864   0.194486   0.357806   0.003777   0.261481
   17             0.002594   0.023419   0.041951   0.002097   0.031243
   18             0.002594   0.023419   0.041951   0.002097   0.031243
   19             0.000988   0.016316   0.041715   0.000349   0.049946
   20             0.000988   0.016316   0.041715   0.000349   0.049946

                     16         17         18         19         20

                  2.000000   2.000000   2.000000   2.000000   2.000000

    1             0.194309   0.224430   0.065290   0.122412   0.098660
    2             0.194309   0.224430   0.065290   0.122412   0.098660
    3             0.135848   0.267393   0.040967   0.168619   0.155655
    4             0.135848   0.267393   0.040967   0.168619   0.155655
    5             0.173274   0.215549   0.039028   0.224818   0.096368
    6             0.173274   0.215549   0.039028   0.224818   0.096368
    7             0.005718   0.116440   0.007830   0.040054   0.066132
    8             0.005718   0.116440   0.007830   0.040054   0.066132
    9             0.072901   0.018374   0.015742   0.104113   0.027464
   10             0.072901   0.018374   0.015742   0.104113   0.027464
   11             0.158471   0.047599   0.276718   0.093440   0.198196
   12             0.158471   0.047599   0.276718   0.093440   0.198196
   13             0.037539   0.002566   0.134255   0.055544   0.086556
   14             0.037539   0.002566   0.134255   0.055544   0.086556
   15             0.130799   0.069833   0.242519   0.117448   0.161871
   16             0.130799   0.069833   0.242519   0.117448   0.161871
   17             0.055814   0.003318   0.117361   0.028276   0.103506
   18             0.055814   0.003318   0.117361   0.028276   0.103506
   19             0.035327   0.034499   0.060289   0.045275   0.005593
   20             0.035327   0.034499   0.060289   0.045275   0.005593

                     21         22         23         24         25

                  2.000000   2.000000   2.000000   2.000000   2.000000

    1             0.124841   0.108035   0.238923   0.013690   0.033230
    2             0.124841   0.108035   0.238923   0.013690   0.033230
    3             0.122102   0.160264   0.154857   0.036900   0.340164
    4             0.122102   0.160264   0.154857   0.036900   0.340164
    5             0.089127   0.236751   0.175394   0.082220   0.251612
    6             0.089127   0.236751   0.175394   0.082220   0.251612
    7             0.016077   0.149252   0.052256   0.000041   0.154815
    8             0.016077   0.149252   0.052256   0.000041   0.154815
    9             0.001535   0.219873   0.004093   0.042446   0.122574
   10             0.001535   0.219873   0.004093   0.042446   0.122574
   11             0.192165   0.012410   0.112021   0.222473   0.039513
   12             0.192165   0.012410   0.112021   0.222473   0.039513
   13             0.062561   0.015296   0.000022   0.059397   0.005400
   14             0.062561   0.015296   0.000022   0.059397   0.005400
   15             0.235378   0.045864   0.158540   0.353025   0.038006
   16             0.235378   0.045864   0.158540   0.353025   0.038006
   17             0.019762   0.015923   0.099244   0.000329   0.013889
   18             0.019762   0.015923   0.099244   0.000329   0.013889
   19             0.136453   0.036333   0.004651   0.189477   0.000798
   20             0.136453   0.036333   0.004651   0.189477   0.000798

                     26         27         28         29         30

                  2.000000   2.000000   2.000000   2.000000   2.000000

    1             0.040186   0.122936   0.343870   0.213466   0.223087
    2             0.040186   0.122936   0.343870   0.213466   0.223087
    3             0.079888   0.134590   0.275889   0.012578   0.224979
    4             0.079888   0.134590   0.275889   0.012578   0.224979
    5             0.042947   0.097162   0.276679   0.071127   0.167943
    6             0.042947   0.097162   0.276679   0.071127   0.167943
    7             0.055843   0.000715   0.000000   0.002342   0.040170
    8             0.055843   0.000715   0.000000   0.002342   0.040170
    9             0.001833   0.000436   0.000000   0.016639   0.178874
   10             0.001833   0.000436   0.000000   0.016639   0.178874
   11             0.139448   0.252525   0.080072   0.187801   0.088591
   12             0.139448   0.252525   0.080072   0.187801   0.088591
   13             0.107443   0.087377   0.000000   0.111170   0.003624
   14             0.107443   0.087377   0.000000   0.111170   0.003624
   15             0.271476   0.233986   0.023489   0.161446   0.061469
   16             0.271476   0.233986   0.023489   0.161446   0.061469
   17             0.199146   0.031809   0.000000   0.106328   0.002849
   18             0.199146   0.031809   0.000000   0.106328   0.002849
   19             0.061791   0.038464   0.000000   0.117104   0.008414
   20             0.061791   0.038464   0.000000   0.117104   0.008414

                     31         32         33         34         35

                  2.000000   2.000000   2.000000   2.000000   2.000000

    1             0.209348   0.327746   0.000480   0.000836   0.320309
    2             0.209348   0.327746   0.000480   0.000836   0.320309
    3             0.131747   0.046260   0.070598   0.519707   0.091147
    4             0.131747   0.046260   0.070598   0.519707   0.091147
    5             0.203056   0.054504   0.064555   0.478978   0.127305
    6             0.203056   0.054504   0.064555   0.478978   0.127305
    7             0.121143   0.000000   0.000000   0.000000   0.000000
    8             0.121143   0.000000   0.000000   0.000000   0.000000
    9             0.000842   0.000000   0.000000   0.000000   0.000000
   10             0.000842   0.000000   0.000000   0.000000   0.000000
   11             0.178886   0.369597   0.425687   0.000000   0.118297
   12             0.178886   0.369597   0.425687   0.000000   0.118297
   13             0.062441   0.000000   0.000000   0.000000   0.000000
   14             0.062441   0.000000   0.000000   0.000000   0.000000
   15             0.032887   0.201892   0.438681   0.000479   0.342942
   16             0.032887   0.201892   0.438681   0.000479   0.342942
   17             0.023343   0.000000   0.000000   0.000000   0.000000
   18             0.023343   0.000000   0.000000   0.000000   0.000000
   19             0.036307   0.000000   0.000000   0.000000   0.000000
   20             0.036307   0.000000   0.000000   0.000000   0.000000

               ----- POPULATIONS IN EACH AO -----
                             MULLIKEN      LOWDIN
              1  C  1  S      1.99066     1.98492
              2  C  1  S      1.14157     1.04285
              3  C  1  X      0.92927     0.97402
              4  C  1  Y      0.94901     1.00162
              5  C  1  Z      0.99324     0.99241
              6  C  2  S      1.99066     1.98492
              7  C  2  S      1.14157     1.04285
              8  C  2  X      0.92927     0.97402
              9  C  2  Y      0.94901     1.00162
             10  C  2  Z      0.99324     0.99241
             11  C  3  S      1.99073     1.98538
             12  C  3  S      1.15131     1.03656
             13  C  3  X      0.95417     1.00773
             14  C  3  Y      0.97948     1.01238
             15  C  3  Z      1.00360     1.00387
             16  C  4  S      1.99073     1.98538
             17  C  4  S      1.15131     1.03656
             18  C  4  X      0.95417     1.00773
             19  C  4  Y      0.97948     1.01238
             20  C  4  Z      1.00360     1.00387
             21  C  5  S      1.99073     1.98537
             22  C  5  S      1.15010     1.03665
             23  C  5  X      0.96637     1.01089
             24  C  5  Y      0.96786     1.01044
             25  C  5  Z      1.00202     1.00237
             26  C  6  S      1.99073     1.98537
             27  C  6  S      1.15010     1.03665
             28  C  6  X      0.96637     1.01089
             29  C  6  Y      0.96786     1.01044
             30  C  6  Z      1.00202     1.00237
             31  H  7  S      0.92072     0.95675
             32  H  8  S      0.92072     0.95675
             33  H  9  S      0.92055     0.95477
             34  H 10  S      0.92055     0.95477
             35  C 11  S      1.99092     1.98543
             36  C 11  S      1.16847     1.05211
             37  C 11  X      0.93521     0.98339
             38  C 11  Y      0.98927     1.02464
             39  C 11  Z      0.99365     0.99321
             40  C 12  S      1.99092     1.98543
             41  C 12  S      1.16847     1.05211
             42  C 12  X      0.93521     0.98339
             43  C 12  Y      0.98927     1.02464
             44  C 12  Z      0.99365     0.99321
             45  H 13  S      0.91935     0.95635
             46  H 14  S      0.91935     0.95635
             47  C 15  S      1.99093     1.98585
             48  C 15  S      1.17252     1.04023
             49  C 15  X      0.99598     1.03041
             50  C 15  Y      0.99521     1.03355
             51  C 15  Z      1.00748     1.00814
             52  C 16  S      1.99093     1.98585
             53  C 16  S      1.17252     1.04023
             54  C 16  X      0.99598     1.03041
             55  C 16  Y      0.99521     1.03355
             56  C 16  Z      1.00748     1.00814
             57  H 17  S      0.92086     0.95374
             58  H 18  S      0.92086     0.95374
             59  H 19  S      0.91875     0.95400
             60  H 20  S      0.91875     0.95400

          ----- MULLIKEN ATOMIC OVERLAP POPULATIONS -----
          (OFF-DIAGONAL ELEMENTS NEED TO BE MULTIPLIED BY 2)

             1           2           3           4           5

    1    4.7775134
    2   -0.0116969   4.7775134
    3    0.4960341  -0.0287033   4.8065058
    4   -0.0287033   0.4960341  -0.0113507   4.8065058
    5   -0.0290530   0.4976921   0.5100096  -0.0308145   4.8092896
    6    0.4976921  -0.0290530  -0.0308145   0.5100096  -0.0116027
    7   -0.0256241   0.0014159   0.3891601   0.0000368  -0.0251371
    8    0.0014159  -0.0256241   0.0000368   0.3891601   0.0014150
    9    0.0014199  -0.0251123  -0.0250337   0.0014032   0.3893941
   10   -0.0251123   0.0014199   0.0014032  -0.0250337   0.0000375
   11    0.0000211   0.4023318   0.0008174  -0.0270034  -0.0255739
   12    0.4023318   0.0000211  -0.0270034   0.0008174   0.0008442
   13   -0.0000007  -0.0220888  -0.0000149  -0.0024708   0.0009671
   14   -0.0220888  -0.0000007  -0.0024708  -0.0000149   0.0000057
   15   -0.0000003  -0.0267700   0.0000462   0.0006768  -0.0076609
   16   -0.0267700  -0.0000003   0.0006768   0.0000462  -0.0000081
   17   -0.0000007  -0.0050699  -0.0000141   0.0000332  -0.0027917
   18   -0.0050699  -0.0000007   0.0000332  -0.0000141  -0.0000012
   19    0.0000000   0.0014410   0.0000000  -0.0000166   0.0000700
   20    0.0014410   0.0000000  -0.0000166   0.0000000   0.0000001

             6           7           8           9          10

    6    4.8092896
    7    0.0014150   0.5861379
    8   -0.0251371   0.0000021   0.5861379
    9    0.0000375  -0.0037961  -0.0000354   0.5878667
   10    0.3893941  -0.0000354  -0.0037961   0.0000021   0.5878667
   11    0.0008442  -0.0000157  -0.0036932  -0.0038150  -0.0000155
   12   -0.0255739  -0.0036932  -0.0000157  -0.0000155  -0.0038150
   13    0.0000057   0.0000003   0.0008154   0.0000313  -0.0000007
   14    0.0009671   0.0008154   0.0000003  -0.0000007   0.0000313
   15   -0.0000081   0.0000007   0.0000297  -0.0029383   0.0000001
   16   -0.0076609   0.0000297   0.0000007   0.0000001  -0.0029383
   17   -0.0000012   0.0000059   0.0000014   0.0011511   0.0000000
   18   -0.0027917   0.0000014   0.0000059   0.0000000   0.0011511
   19    0.0000001   0.0000000  -0.0000022  -0.0000106   0.0000000
   20    0.0000700  -0.0000022   0.0000000   0.0000000  -0.0000106

            11          12          13          14          15

   11    4.8072610
   12    0.0000001   4.8072610
   13    0.3896757   0.0000000   0.5830140
   14    0.0000000   0.3896757   0.0000000   0.5830140
   15    0.5871875   0.0000000  -0.0279203   0.0000000   4.8554909
   16    0.0000000   0.5871875   0.0000000  -0.0279203   0.0000000
   17   -0.0256812   0.0000000   0.0021375   0.0000000   0.3915950
   18    0.0000000  -0.0256812   0.0000000   0.0021375   0.0000000
   19   -0.0248152   0.0000000  -0.0048052   0.0000000   0.3923945
   20    0.0000000  -0.0248152   0.0000000  -0.0048052   0.0000000

            16          17          18          19          20

   16    4.8554909
   17    0.0000000   0.5822904
   18    0.3915950   0.0000000   0.5822904
   19    0.0000000  -0.0227958   0.0000000   0.5772867
   20    0.3923945   0.0000000  -0.0227958   0.0000000   0.5772867

          TOTAL MULLIKEN AND LOWDIN ATOMIC POPULATIONS
       ATOM         MULL.POP.    CHARGE          LOW.POP.     CHARGE
    1 C             6.003749   -0.003749         5.995807    0.004193
    2 C             6.003749   -0.003749         5.995807    0.004193
    3 C             6.079301   -0.079301         6.045919   -0.045919
    4 C             6.079301   -0.079301         6.045919   -0.045919
    5 C             6.077082   -0.077082         6.045715   -0.045715
    6 C             6.077082   -0.077082         6.045715   -0.045715
    7 H             0.920717    0.079283         0.956748    0.043252
    8 H             0.920717    0.079283         0.956748    0.043252
    9 H             0.920548    0.079452         0.954773    0.045227
   10 H             0.920548    0.079452         0.954773    0.045227
   11 C             6.077526   -0.077526         6.038776   -0.038776
   12 C             6.077526   -0.077526         6.038776   -0.038776
   13 H             0.919346    0.080654         0.956348    0.043652
   14 H             0.919346    0.080654         0.956348    0.043652
   15 C             6.162123   -0.162123         6.098173   -0.098173
   16 C             6.162123   -0.162123         6.098173   -0.098173
   17 H             0.920860    0.079140         0.953736    0.046264
   18 H             0.920860    0.079140         0.953736    0.046264
   19 H             0.918747    0.081253         0.954004    0.045996
   20 H             0.918747    0.081253         0.954004    0.045996

          -------------------------------
          BOND ORDER AND VALENCE ANALYSIS     BOND ORDER THRESHOLD=0.050
          -------------------------------

                   BOND                       BOND                       BOND
  ATOM PAIR DIST  ORDER      ATOM PAIR DIST  ORDER      ATOM PAIR DIST  ORDER
    1   2  2.816  0.098        1   3  1.405  1.377        1   6  1.406  1.379
    1  12  1.520  1.045        2   4  1.405  1.377        2   5  1.406  1.379
    2  11  1.520  1.045        3   4  2.798  0.101        3   5  1.394  1.458
    3   7  1.096  0.962        4   6  1.394  1.458        4   8  1.096  0.962
    5   6  2.796  0.107        5   9  1.096  0.954        6  10  1.096  0.954
   11  13  1.087  0.962       11  15  1.342  1.917       12  14  1.087  0.962
   12  16  1.342  1.917       15  17  1.080  0.963       15  19  1.078  0.971
   16  18  1.080  0.963       16  20  1.078  0.971

                       TOTAL       BONDED        FREE
      ATOM            VALENCE     VALENCE     VALENCE
    1 C                 3.975       3.975       0.000
    2 C                 3.975       3.975       0.000
    3 C                 3.972       3.972       0.000
    4 C                 3.972       3.972       0.000
    5 C                 3.973       3.973       0.000
    6 C                 3.973       3.973       0.000
    7 H                 0.994       0.994       0.000
    8 H                 0.994       0.994       0.000
    9 H                 0.994       0.994       0.000
   10 H                 0.994       0.994       0.000
   11 C                 3.966       3.966       0.000
   12 C                 3.966       3.966       0.000
   13 H                 0.993       0.993       0.000
   14 H                 0.993       0.993       0.000
   15 C                 3.967       3.967       0.000
   16 C                 3.967       3.967       0.000
   17 H                 0.994       0.994       0.000
   18 H                 0.994       0.994       0.000
   19 H                 0.993       0.993       0.000
   20 H                 0.993       0.993       0.000

          ---------------------
          ELECTROSTATIC MOMENTS
          ---------------------

 POINT   1           X           Y           Z (BOHR)    CHARGE
                 0.000000    0.000000    0.000000        0.00 (A.U.)
         DX          DY          DZ         /D/  (DEBYE)
     0.000000    0.000000    0.000000    0.000000
 ...... END OF PROPERTY EVALUATION ......
 STEP CPU TIME =     0.02 TOTAL CPU TIME =      132.4 (    2.2 MIN)
 TOTAL WALL CLOCK TIME=      134.5 SECONDS, CPU UTILIZATION IS  98.46%
  $VIB   
          IVIB=   0 IATOM=   0 ICOORD=   0 E=     -382.0410393829
  3.357607681E-02-9.080760950E-03 0.000000000E+00-3.357607681E-02 9.080760950E-03
  0.000000000E+00-2.027332145E-03-1.189273923E-02 0.000000000E+00 2.027332145E-03
  1.189273923E-02 0.000000000E+00 1.471989744E-04-1.026989281E-02 0.000000000E+00
 -1.471989744E-04 1.026989281E-02 0.000000000E+00 5.269599911E-04-1.381750160E-03
  0.000000000E+00-5.269599911E-04 1.381750160E-03 0.000000000E+00 3.149494062E-03
 -9.762170976E-04 0.000000000E+00-3.149494062E-03 9.762170976E-04 0.000000000E+00
  1.375173322E-02-2.542128240E-02 0.000000000E+00-1.375173322E-02 2.542128240E-02
  0.000000000E+00 1.785716901E-03 1.390603233E-02 0.000000000E+00-1.785716901E-03
 -1.390603233E-02 0.000000000E+00 9.543730134E-03 1.807133137E-02 0.000000000E+00
 -9.543730134E-03-1.807133137E-02 0.000000000E+00-3.759595436E-03-1.343195987E-02
  0.000000000E+00 3.759595436E-03 1.343195987E-02 0.000000000E+00-1.644936810E-02
 -5.188328628E-04 0.000000000E+00 1.644936810E-02 5.188328628E-04 0.000000000E+00
 -3.612066735E-14 2.539734423E-15-2.173933589E-49
 ......END OF GEOMETRY SEARCH......
 STEP CPU TIME =     0.00 TOTAL CPU TIME =      132.4 (    2.2 MIN)
 TOTAL WALL CLOCK TIME=      134.5 SECONDS, CPU UTILIZATION IS  98.45%
                708917  WORDS OF DYNAMIC MEMORY USED
 EXECUTION OF GAMESS TERMINATED NORMALLY Wed May  7 21:54:03 2014
 DDI: 263624 bytes (0.3 MB / 0 MWords) used by master data server.

 ----------------------------------------
 CPU timing information for all processes
 ========================================
 0: 132.409 + 0.692 = 133.102
 1: 0.11 + 0.16 = 0.28
 ----------------------------------------
set exit_status=0
unset echo
----- accounting info -----
Files used on the master node wn719 were:
-rw------- 1 langner grant012    1448 May  7 21:51 /lustre/scratch/tmp/pbs.6865162.nova/dvb_gopt_a_unconverged.F05
-rw------- 1 langner grant012 4320384 May  7 21:53 /lustre/scratch/tmp/pbs.6865162.nova/dvb_gopt_a_unconverged.F08
-rw------- 1 langner grant012 1177920 May  7 21:54 /lustre/scratch/tmp/pbs.6865162.nova/dvb_gopt_a_unconverged.F10
-rw------- 1 langner grant012 5200544 May  7 21:53 /lustre/scratch/tmp/pbs.6865162.nova/dvb_gopt_a_unconverged.F22
-rw------- 1 langner grant012       6 May  7 21:51 /lustre/scratch/tmp/pbs.6865162.nova/dvb_gopt_a_unconverged.nodes.mpd
ls: No match.
ls: No match.
ls: No match.
Wed May  7 21:54:05 CEST 2014
132.613u 0.836s 2:20.80 94.7%	0+0k 0+0io 94pf+0w
