Begin Torque Prologue Wed Jun 19 09:12:30 EST 2013
Job ID:     119768.cherax.hpsc.csiro.au
Username:   war391
Group:      ces
Job Name:   ScriptBicarbNa1B3LYP-B2Vib
Resources:  neednodes=3:ppn=6,nodes=3:ppn=6,vmem=192gb,walltime=02:00:00
Queue:      batch
End Torque Prologue Wed Jun 19 09:12:30 EST 2013

rungms BicarbNa1B3LYP-B2Vib 00 9 6
----- GAMESS execution script 'rungms' -----
This job is running on host cherax
under operating system Linux at Wed Jun 19 09:12:30 EST 2013
PBS has assigned the following compute nodes to this run:
cherax
Available scratch disk space (Kbyte units) at beginning of the job is
Filesystem           1K-blocks      Used Available Use% Mounted on
/dev/lxvm/is5500_7k  93749585920 66319982024 27429603896  71% /data/flush
GAMESS temporary binary files will be written to /data/flush/batch/war391.119768.cherax.hpsc.csiro.au
GAMESS supplementary output files will be written to /data/flush/batch/war391.119768.cherax.hpsc.csiro.au
Copying input file BicarbNa1B3LYP-B2Vib.inp to your run's scratch directory...
reading your own /home/ces/war391/.gmsrc
          ******************************************************
          *         GAMESS VERSION =  1 MAY 2012 (R1)          *
          *             FROM IOWA STATE UNIVERSITY             *
          * M.W.SCHMIDT, K.K.BALDRIDGE, J.A.BOATZ, S.T.ELBERT, *
          *   M.S.GORDON, J.H.JENSEN, S.KOSEKI, N.MATSUNAGA,   *
          *          K.A.NGUYEN, S.J.SU, T.L.WINDUS,           *
          *       TOGETHER WITH M.DUPUIS, J.A.MONTGOMERY       *
          *         J.COMPUT.CHEM.  14, 1347-1363(1993)        *
          **************** 64 BIT INTEL VERSION ****************

  SINCE 1993, STUDENTS AND POSTDOCS WORKING AT IOWA STATE UNIVERSITY
  AND ALSO IN THEIR VARIOUS JOBS AFTER LEAVING ISU HAVE MADE IMPORTANT
  CONTRIBUTIONS TO THE CODE:
     IVANA ADAMOVIC, CHRISTINE AIKENS, YURI ALEXEEV, POOJA ARORA,
     ANDREY ASADCHEV, ROB BELL, PRADIPTA BANDYOPADHYAY, JONATHAN BENTZ,
     BRETT BODE, GALINA CHABAN, WEI CHEN, CHEOL HO CHOI, PAUL DAY,
     ALBERT DEFUSCO, TIM DUDLEY, DMITRI FEDOROV, GRAHAM FLETCHER,
     MARK FREITAG, KURT GLAESEMANN, DAN KEMP, GRANT MERRILL,
     NORIYUKI MINEZAWA, JONATHAN MULLIN, TAKESHI NAGATA,
     SEAN NEDD, HEATHER NETZLOFF, BOSILJKA NJEGIC, RYAN OLSON, MIKE PAK,
     JIM SHOEMAKER, LYUDMILA SLIPCHENKO, SAROM SOK, JIE SONG,
     TETSUYA TAKETSUGU, SIMON WEBB, SOOHAENG YOO, FEDERICO ZAHARIEV

  ADDITIONAL CODE HAS BEEN PROVIDED BY COLLABORATORS IN OTHER GROUPS:
     IOWA STATE UNIVERSITY:
          JOE IVANIC, LAIMUTIS BYTAUTAS, KLAUS RUEDENBERG
     UNIVERSITY OF TOKYO: KIMIHIKO HIRAO, TAKAHITO NAKAJIMA,
          TAKAO TSUNEDA, MUNEAKI KAMIYA, SUSUMU YANAGISAWA,
          KIYOSHI YAGI, MAHITO CHIBA, SEIKEN TOKURA, NAOAKI KAWAKAMI
     UNIVERSITY OF AARHUS: FRANK JENSEN
     UNIVERSITY OF IOWA: VISVALDAS KAIRYS, HUI LI
     NATIONAL INST. OF STANDARDS AND TECHNOLOGY: WALT STEVENS, DAVID GARMER
     UNIVERSITY OF PISA: BENEDETTA MENNUCCI, JACOPO TOMASI
     UNIVERSITY OF MEMPHIS: HENRY KURTZ, PRAKASHAN KORAMBATH
     UNIVERSITY OF ALBERTA: TOBY ZENG, MARIUSZ KLOBUKOWSKI
     UNIVERSITY OF NEW ENGLAND: MARK SPACKMAN
     MIE UNIVERSITY: HIROAKI UMEDA
     MICHIGAN STATE UNIVERSITY:
          KAROL KOWALSKI, MARTA WLOCH, JEFFREY GOUR, JESSE LUTZ, PIOTR PIECUCH
     UNIVERSITY OF SILESIA: MONIKA MUSIAL, STANISLAW KUCHARSKI
     FACULTES UNIVERSITAIRES NOTRE-DAME DE LA PAIX:
          OLIVIER QUINET, BENOIT CHAMPAGNE
     UNIVERSITY OF CALIFORNIA - SANTA BARBARA: BERNARD KIRTMAN
     INSTITUTE FOR MOLECULAR SCIENCE:
          KAZUYA ISHIMURA, MICHIO KATOUDA, AND SHIGERU NAGASE
     UNIVERSITY OF NOTRE DAME: DAN CHIPMAN
     KYUSHU UNIVERSITY:
          HARUYUKI NAKANO,
          FENG LONG GU, JACEK KORCHOWIEC, MARCIN MAKOWSKI, AND YURIKO AOKI,
          HIROTOSHI MORI AND EISAKU MIYOSHI
     PENNSYLVANIA STATE UNIVERSITY:
          TZVETELIN IORDANOV, CHET SWALINA, JONATHAN SKONE,
          SHARON HAMMES-SCHIFFER
     WASEDA UNIVERSITY:
          MASATO KOBAYASHI, TOMOKO AKAMA, TSUGUKI TOUMA,
          TAKESHI YOSHIKAWA, YASUHIRO IKABATA, HIROMI NAKAI
     UNIVERSITY OF NEBRASKA:
          PEIFENG SU, DEJUN SI, NANDUN THELLAMUREGE, YALI WANG, HUI LI
     UNIVERSITY OF ZURICH:
          ROBERTO PEVERATI, KIM BALDRIDGE
     N. COPERNICUS UNIVERSITY AND JACKSON STATE UNIVERSITY:
          MARIA BARYSZ


 PARALLEL VERSION RUNNING ON     9 PROCESSORS IN     1 NODES.

 EXECUTION OF GAMESS BEGUN Wed Jun 19 09:12:31 2013

            ECHO OF THE FIRST FEW INPUT CARDS -
 INPUT CARD>!   File created by the GAMESS Input Deck Generator Plugin for Avogadro         
 INPUT CARD> $CONTRL SCFTYP=RHF RUNTYP=HESSIAN DFTTYP=B3LYP                                 
 INPUT CARD>  MAXIT=199 ISPHER=1 PLTORB=.TRUE. $END                                         
 INPUT CARD> $GUESS GUESS=HUCKEL $END                                                       
 INPUT CARD> $DFT NRAD=99 NLEB=770 $END                                                     
 INPUT CARD> $STATPT OPTTOL=0.000001 $END                                                   
 INPUT CARD> $SYSTEM MWORDS=200 MEMDDI=200 $END                                             
 INPUT CARD> $BASIS EXTFIL=.t. GBASIS=NICE $END                                             
 INPUT CARD> $SCF DIRSCF=.t. DIIS=.t. DAMP=.t. $END                                         
 INPUT CARD>                                                                                
 INPUT CARD> $DATA                                                                          
 INPUT CARD>Title                                                                           
 INPUT CARD>C1                                                                              
 INPUT CARD>C     6.0     2.21850    -1.79290     1.46430                                   
 INPUT CARD>O     8.0     1.71330    -0.63810     1.43930                                   
 INPUT CARD>O     8.0     1.67790    -2.71690     0.62000                                   
 INPUT CARD>O     8.0     3.18410    -2.17180     2.20480                                   
 INPUT CARD>H     1.0     2.18310    -3.52850     0.77600                                   
 INPUT CARD>Na    11.0     3.17310    -0.12680     2.96440                                  
 INPUT CARD> $END                                                                           
  200000000 WORDS OF MEMORY AVAILABLE

     $BASIS REQUESTS READING THE "NICE    " BASIS SET FROM AN EXTERNAL FILE


     RUN TITLE
     ---------
 Title                                                                           

 THE POINT GROUP OF THE MOLECULE IS C1      
 THE ORDER OF THE PRINCIPAL AXIS IS     0

 THE EXTERNAL BASIS SET FILE BEING READ IS
     "/datastore/ces/war391/GAMESS/631G++B2Zn"

 ATOM      ATOMIC                      COORDINATES (BOHR)
           CHARGE         X                   Y                   Z
 C           6.0     4.1923571038       -3.3880897234        2.7671257638
 O           8.0     3.2376675348       -1.2058341528        2.7198826141
 O           8.0     3.1707712348       -5.1341965360        1.1716301124
 O           8.0     6.0170765175       -4.1041069001        4.1664678577
 H           1.0     4.1254608038       -6.6678981477        1.4664273665
 NA         11.0     5.9962895316       -0.2396172552        5.6019037180

          INTERNUCLEAR DISTANCES (ANGS.)
          ------------------------------

                1 C          2 O          3 O          4 O          5 H     

   1 C       0.0000000    1.2607201 *  1.3634027 *  1.2744759 *  1.8674361 *
   2 O       1.2607201 *  0.0000000    2.2347069 *  2.2586453 *  3.0025141  
   3 O       1.3634027 *  2.2347069 *  0.0000000    2.2533006 *  0.9686370 *
   4 O       1.2744759 *  2.2586453 *  2.2533006 *  0.0000000    2.2100012 *
   5 H       1.8674361 *  3.0025141    0.9686370 *  2.2100012 *  0.0000000  
   6 NA      2.4366884 *  2.1721818 *  3.8000595    2.1815449 *  4.1642235  

                6 NA    

   1 C       2.4366884 *
   2 O       2.1721818 *
   3 O       3.8000595  
   4 O       2.1815449 *
   5 H       4.1642235  
   6 NA      0.0000000  

  * ... LESS THAN  3.000


     ATOMIC BASIS SET
     ----------------
 THE CONTRACTED PRIMITIVE FUNCTIONS HAVE BEEN UNNORMALIZED
 THE CONTRACTED BASIS FUNCTIONS ARE NOW NORMALIZED TO UNITY

  SHELL TYPE  PRIMITIVE        EXPONENT          CONTRACTION COEFFICIENT(S)

 C         

      1   S       1          3047.5249000    0.001834700163
      1   S       2           457.3695100    0.014037301247
      1   S       3           103.9486900    0.068842606114
      1   S       4            29.2101550    0.232184420621
      1   S       5             9.2866630    0.467941341559
      1   S       6             3.1639270    0.362312032178

      2   L       7             7.8682724   -0.119332408615    0.068999095585
      2   L       8             1.8812885   -0.160854211613    0.316423979753
      2   L       9             0.5442493    1.143456482552    0.744308252374

      3   L      10             0.1687144    1.000000000000    1.000000000000

      4   D      11             0.8000000    1.000000000000

 O         

      5   S      12          5484.6717000    0.001831099806
      5   S      13           825.2349500    0.013950098518
      5   S      14           188.0469600    0.068445092731
      5   S      15            52.9645000    0.232714275284
      5   S      16            16.8975700    0.470192950063
      5   S      17             5.7996353    0.358520861923

      6   L      18            15.5396160   -0.110777503825    0.070874299543
      6   L      19             3.5999336   -0.148026305111    0.339752797811
      6   L      20             1.0137618    1.130767039045    0.727158595314

      7   L      21             0.2700058    1.000000000000    1.000000000000

      8   D      22             0.8000000    1.000000000000

 O         

      9   S      23          5484.6717000    0.001831099806
      9   S      24           825.2349500    0.013950098518
      9   S      25           188.0469600    0.068445092731
      9   S      26            52.9645000    0.232714275284
      9   S      27            16.8975700    0.470192950063
      9   S      28             5.7996353    0.358520861923

     10   L      29            15.5396160   -0.110777503825    0.070874299543
     10   L      30             3.5999336   -0.148026305111    0.339752797811
     10   L      31             1.0137618    1.130767039045    0.727158595314

     11   L      32             0.2700058    1.000000000000    1.000000000000

     12   D      33             0.8000000    1.000000000000

 O         

     13   S      34          5484.6717000    0.001831099806
     13   S      35           825.2349500    0.013950098518
     13   S      36           188.0469600    0.068445092731
     13   S      37            52.9645000    0.232714275284
     13   S      38            16.8975700    0.470192950063
     13   S      39             5.7996353    0.358520861923

     14   L      40            15.5396160   -0.110777503825    0.070874299543
     14   L      41             3.5999336   -0.148026305111    0.339752797811
     14   L      42             1.0137618    1.130767039045    0.727158595314

     15   L      43             0.2700058    1.000000000000    1.000000000000

     16   D      44             0.8000000    1.000000000000

 H         

     17   S      45            18.7311370    0.033494599523
     17   S      46             2.8253937    0.234726946658
     17   S      47             0.6401217    0.813757318413

     18   S      48             0.1612778    1.000000000000

     19   P      49             1.1000000    1.000000000000

 NA        

     20   S      50         36166.4000000    0.001032000455
     20   S      51          5372.5800000    0.008071003557
     20   S      52          1213.2100000    0.042129018568
     20   S      53           339.6230000    0.169789074834
     20   S      54           109.5530000    0.514621226817
     20   S      55            38.7773000    0.379817167403

     21   S      56            38.7773000    0.374761809650
     21   S      57            14.5759000    0.575768707554
     21   S      58             5.2699300    0.112932942639

     22   S      59             1.8277700    1.000000000000

     23   S      60             0.6199480    1.000000000000

     24   S      61             0.0572400    1.000000000000

     25   S      62             0.0240480    1.000000000000

     26   P      63           144.6450000    0.011485001600
     26   P      64            33.9074000    0.082383011476
     26   P      65            10.6285000    0.319658044528
     26   P      66             3.8238900    0.701295097689

     27   P      67             1.4442900    0.638506121329
     27   P      68             0.5526210    0.425365080828

     28   P      69             0.1887200    1.000000000000

     29   P      70             0.0465010    1.000000000000

     30   P      71             0.0162850    1.000000000000

     31   L      72             0.0076000    1.000000000000    1.000000000000

     32   D      73             0.3500000    1.000000000000

     33   D      74             0.0875000    1.000000000000

 TOTAL NUMBER OF BASIS SET SHELLS             =   33
 NUMBER OF CARTESIAN GAUSSIAN BASIS FUNCTIONS =  102
 NOTE: THIS RUN WILL RESTRICT THE MO VARIATION SPACE TO SPHERICAL HARMONICS.
 THE NUMBER OF ORBITALS KEPT IN THE VARIATIONAL SPACE WILL BE PRINTED LATER.
 NUMBER OF ELECTRONS                          =   42
 CHARGE OF MOLECULE                           =    0
 SPIN MULTIPLICITY                            =    1
 NUMBER OF OCCUPIED ORBITALS (ALPHA)          =   21
 NUMBER OF OCCUPIED ORBITALS (BETA )          =   21
 TOTAL NUMBER OF ATOMS                        =    6
 THE NUCLEAR REPULSION ENERGY IS      184.0539363432

     LEBEDEV GRID-BASED DFT OPTIONS
     ------------------------------
     DFTTYP=B3LYP   
     NRAD  =      99     NLEB  =     770
     NRAD0 =      99     NLEB0 =     770
     SWOFF =    5.00E-03 (PURE SCF -> DFT)
     SWITCH=    3.00E-04 (COARSE -> TIGHT GRID)
     THRESH=    0.00E+00 GTHRE=    1.00E+00

 GRIMME'S EMPIRICAL DISPERSION CORRECTION= F

     $CONTRL OPTIONS
     ---------------
 SCFTYP=RHF          RUNTYP=HESSIAN      EXETYP=RUN     
 MPLEVL=       0     CITYP =NONE         CCTYP =NONE         VBTYP =NONE    
 DFTTYP=B3LYP        TDDFT =NONE    
 MULT  =       1     ICHARG=       0     NZVAR =       0     COORD =UNIQUE  
 PP    =NONE         RELWFN=NONE         LOCAL =NONE         NUMGRD=       F
 ISPHER=       1     NOSYM =       0     MAXIT =     199     UNITS =ANGS    
 PLTORB=       T     MOLPLT=       F     AIMPAC=       F     FRIEND=        
 NPRINT=       7     IREST =       0     GEOM  =INPUT   
 NORMF =       0     NORMP =       0     ITOL  =      20     ICUT  =       9
 INTTYP=BEST         GRDTYP=BEST         QMTTOL= 1.0E-06

     $SYSTEM OPTIONS
     ---------------
  REPLICATED MEMORY=   200000000 WORDS (ON EVERY NODE).
 DISTRIBUTED MEMDDI=         200 MILLION WORDS IN AGGREGATE,
 MEMDDI DISTRIBUTED OVER   9 PROCESSORS IS    22222222 WORDS/PROCESSOR.
 TOTAL MEMORY REQUESTED ON EACH PROCESSOR=   222222222 WORDS.
 TIMLIM=      525600.00 MINUTES, OR     365.0 DAYS.
 PARALL= T  BALTYP=  DLB     KDIAG=    0  COREFL= F
 MXSEQ2=     300 MXSEQ3=     150

          ----------------
          PROPERTIES INPUT
          ----------------

     MOMENTS            FIELD           POTENTIAL          DENSITY
 IEMOM =       1   IEFLD =       0   IEPOT =       0   IEDEN =       0
 WHERE =COMASS     WHERE =NUCLEI     WHERE =NUCLEI     WHERE =NUCLEI  
 OUTPUT=BOTH       OUTPUT=BOTH       OUTPUT=BOTH       OUTPUT=BOTH    
 IEMINT=       0   IEFINT=       0                     IEDINT=       0
                                                       MORB  =       0
          EXTRAPOLATION IN EFFECT
          DAMPING IN EFFECT
          DIIS IN EFFECT
 ORBITAL PRINTING OPTION: NPREO=     1   102     2     1

     -------------------------------
     INTEGRAL TRANSFORMATION OPTIONS
     -------------------------------
     NWORD  =            0
     CUTOFF = 1.0E-09     MPTRAN =       0
     DIRTRF =       T     AOINTS =DUP     

          ----------------------
          INTEGRAL INPUT OPTIONS
          ----------------------
 NOPK  =       1 NORDER=       0 SCHWRZ=       T

     ------------------------------------------
     THE POINT GROUP IS C1 , NAXIS= 0, ORDER= 1
     ------------------------------------------

 -- VARIATIONAL SPACE WILL BE RESTRICTED TO PURE SPHERICAL HARMONICS ONLY --
 AFTER EXCLUDING CONTAMINANT COMBINATIONS FROM THE CARTESIAN GAUSSIAN BASIS
 SET, THE NUMBER OF SPHERICAL HARMONICS KEPT IN THE VARIATION SPACE IS   96

     DIMENSIONS OF THE SYMMETRY SUBSPACES ARE
 A   =   96

 ..... DONE SETTING UP THE RUN .....
 CPU     0: STEP CPU TIME=     0.01 TOTAL CPU TIME=        0.0 (    0.0 MIN)
 TOTAL WALL CLOCK TIME=        0.2 SECONDS, CPU UTILIZATION IS   4.17%

     ---------------------------------
     HESSIAN MATRIX CONTROL PARAMETERS
     ---------------------------------
     METHOD=SEMINUM    NVIB  =       2   VIBSIZ= 0.01000
     RDHESS=       F   PURIFY=       F   PRTIFC=       F
     VIBANL=       T   DECOMP=       F   PROJCT=       F
     SCLFAC= 1.00000   PRTSCN=       F   NPRT  =       0
     PULCOR=       F   NPUN  =       0   REDOVB=       T
     THERMOCHEMISTRY WILL BE PRINTED FOR    1 TEMPERATURES:
      298.15000
1   ATOM  0
                                        -------------------
   COORD  0                             NUCLEAR COORDINATES
                                        -------------------
     VIB  0

                       ATOM             X              Y              Z

                 1  C                4.192357      -3.388090       2.767126
                 2  O                3.237668      -1.205834       2.719883
                 3  O                3.170771      -5.134197       1.171630
                 4  O                6.017077      -4.104107       4.166468
                 5  H                4.125461      -6.667898       1.466427
                 6  NA               5.996290      -0.239617       5.601904

          ********************
          1 ELECTRON INTEGRALS
          ********************
 ...... END OF ONE-ELECTRON INTEGRALS ......
 CPU     0: STEP CPU TIME=     0.00 TOTAL CPU TIME=        0.0 (    0.0 MIN)
 TOTAL WALL CLOCK TIME=        0.2 SECONDS, CPU UTILIZATION IS   4.00%

          -------------
          GUESS OPTIONS
          -------------
          GUESS =HUCKEL            NORB  =       0          NORDER=       0
          MIX   =       F          PRTMO =       F          PUNMO =       F
          TOLZ  = 1.0E-08          TOLE  = 1.0E-05
          SYMDEN=       F          PURIFY=       F

 INITIAL GUESS ORBITALS GENERATED BY HUCKEL   ROUTINE.
 HUCKEL GUESS REQUIRES     83217 WORDS.

 STATISTICS FOR GENERATION OF SYMMETRY ORBITAL -Q- MATRIX
 NUMBER OF CARTESIAN ATOMIC ORBITALS=        102
 NUMBER OF SPHERICAL CONTAMINANTS DROPPED=     6
 NUMBER OF LINEARLY DEPENDENT MOS DROPPED=     0
 TOTAL NUMBER OF MOS IN VARIATION SPACE=      96

 SYMMETRIES FOR INITIAL GUESS ORBITALS FOLLOW.   BOTH SET(S).
    21 ORBITALS ARE OCCUPIED (    9 CORE ORBITALS).
    10=A       11=A       12=A       13=A       14=A       15=A       16=A   
    17=A       18=A       19=A       20=A       21=A       22=A       23=A   
    24=A       25=A       26=A       27=A       28=A       29=A       30=A   
    31=A   
 ...... END OF INITIAL ORBITAL SELECTION ......
 CPU     0: STEP CPU TIME=     0.03 TOTAL CPU TIME=        0.0 (    0.0 MIN)
 TOTAL WALL CLOCK TIME=        0.3 SECONDS, CPU UTILIZATION IS  14.81%

                    ----------------------
                    AO INTEGRAL TECHNOLOGY
                    ----------------------
     S,P,L SHELL ROTATED AXIS INTEGRALS, REPROGRAMMED BY
        KAZUYA ISHIMURA (IMS) AND JOSE SIERRA (SYNSTAR).
     S,P,D,L SHELL ROTATED AXIS INTEGRALS PROGRAMMED BY
        KAZUYA ISHIMURA (INSTITUTE FOR MOLECULAR SCIENCE).
     S,P,D,F,G SHELL TO TOTAL QUARTET ANGULAR MOMENTUM SUM 5,
        ERIC PROGRAM BY GRAHAM FLETCHER (ELORET AND NASA ADVANCED
        SUPERCOMPUTING DIVISION, AMES RESEARCH CENTER).
     S,P,D,F,G,L SHELL GENERAL RYS QUADRATURE PROGRAMMED BY
        MICHEL DUPUIS (PACIFIC NORTHWEST NATIONAL LABORATORY).

          --------------------
          2 ELECTRON INTEGRALS
          --------------------

 DIRECT SCF METHOD SKIPS INTEGRAL STORAGE ON DISK.
 DIRECT TRANSFORMATION SKIPS AO INTEGRAL STORAGE ON DISK.
  ...... END OF TWO-ELECTRON INTEGRALS .....
 CPU     0: STEP CPU TIME=     0.01 TOTAL CPU TIME=        0.0 (    0.0 MIN)
 TOTAL WALL CLOCK TIME=        0.3 SECONDS, CPU UTILIZATION IS  15.62%

          --------------------------
             R-B3LYP SCF CALCULATION
          --------------------------

     NUCLEAR ENERGY =       184.0539363432
     MAXIT =  199     NPUNCH=    2
     EXTRAP=T  DAMP=T  SHIFT=F  RSTRCT=F  DIIS=T  DEM=F  SOSCF=F
         DENSITY MATRIX CONVERGENCE THRESHOLD=  2.00E-05
     COARSE -> FINE DFT GRID SWITCH THRESHOLD=  3.00E-04 (SWITCH IN $DFT)
                   HF -> DFT SWITCH THRESHOLD=  5.00E-03 (SWOFF IN $DFT)
     MEMORY REQUIRED FOR RHF ITERS=    669732 WORDS.

 DIRECT SCF CALCULATION, SCHWRZ=T   FDIFF=T,  DIRTHR=  0.00E+00 NITDIR=10
 SCHWARZ INEQUALITY OVERHEAD:      5186 INTEGRALS, T=        0.00

     EXCHANGE FUNCTIONAL   =B88&HFX   
     CORRELATION FUNCTIONAL=LYP88&VWN5
     DFT THRESHOLD         =.219E-08
 FOR AN EULER-MACLAURIN QUADRATURE USING  99 RADIAL POINTS:
 SMALLEST GAUSSIAN PRIMITIVE EXPONENT=        0.0076000000 OF TYPE -P-
 ON ATOM NUMBER   6 HAS RADIAL NORMALIZATION=  1.000000
  LARGEST GAUSSIAN PRIMITIVE EXPONENT=    36166.4000000000 OF TYPE -S-
 ON ATOM NUMBER   6 HAS RADIAL NORMALIZATION=  1.000009
 DFT IS SWITCHED OFF, PERFORMING PURE SCF UNTIL SWOFF THRESHOLD IS REACHED.

                                                                                                                   NONZERO     BLOCKS
 ITER EX DEM     TOTAL ENERGY        E CHANGE  DENSITY CHANGE    DIIS ERROR      VIR. SHIFT       DAMPING        INTEGRALS    SKIPPED
   1  0  0     -423.9297673481  -423.9297673481   0.364785595   1.646556939     0.000000000     1.000000000       12584477      25648
          * * *   INITIATING DIIS PROCEDURE   * * *
   2  1  0     -424.8763695692    -0.9466022211   0.130600689   0.123206893     0.000000000     1.000000000       12594946      26143
   3  2  0     -424.9494024255    -0.0730328563   0.062595417   0.066831409     0.000000000     1.000000000       12539862      28055
   4  3  0     -424.9866404839    -0.0372380584   0.011388236   0.008862984     0.000000000     1.000000000       12462398      29933
   5  4  0     -424.9877709044    -0.0011304206   0.003036338   0.004213285     0.000000000     1.000000000       12335451      32461
 CONVERGED TO SWOFF, SO DFT CALCULATION IS NOW SWITCHED ON.
          * * *   INITIATING DIIS PROCEDURE   * * *
   6  5  0     -426.5792288879    -1.5914579835   0.085289176   0.128811033       12597312      25495
   7  6  0     -426.6063959254    -0.0271670375   0.056490379   0.024200979       12538892      27885
   8  7  0     -426.6052687665     0.0011271589   0.028436018   0.030153023       12440085      30409
   9  8  0     -426.6106368134    -0.0053680470   0.005775810   0.005292141       12378327      31862
  10  9  0     -426.6107994403    -0.0001626269   0.001303899   0.000730077       12154211      35561
  11 10  0     -426.6108027771    -0.0000033367   0.000499309   0.000520505       11845134      41351
  12 11  0     -426.6108042695    -0.0000014924   0.000161311   0.000103921       11639966      43991
  13 12  0     -426.6108043203    -0.0000000508   0.000052857   0.000062952       11308579      49057
  14 13  0     -426.6108043520    -0.0000000317   0.000002859   0.000004183       11092653      52224
  15 14  0     -426.6108043520     0.0000000000   0.000000850   0.000001659       10298857      62433

          -----------------
          DENSITY CONVERGED
          -----------------
     TIME TO FORM FOCK OPERATORS=       7.9 SECONDS (       0.5 SEC/ITER)
     FOCK TIME ON FIRST ITERATION=       0.2, LAST ITERATION=       0.7
     TIME TO SOLVE SCF EQUATIONS=       0.1 SECONDS (       0.0 SEC/ITER)

 FINAL R-B3LYP ENERGY IS     -426.6108043520 AFTER  15 ITERATIONS
 DFT EXCHANGE + CORRELATION ENERGY =       -37.1518091645
 TOTAL ELECTRON NUMBER             =        42.0000091470

          ------------
          EIGENVECTORS
          ------------

                      1          2          3          4          5
                  -38.4521   -19.1445   -19.0841   -19.0809   -10.3024
                     A          A          A          A          A   
    1  C  1  S    0.000018   0.000050   0.000197   0.000226   0.995112
    2  C  1  S    0.000035   0.000507   0.000637   0.000717   0.037132
    3  C  1  X   -0.000018  -0.000248   0.000409  -0.000096   0.000104
    4  C  1  Y   -0.000036  -0.000450  -0.000043   0.000435   0.000202
    5  C  1  Z   -0.000031  -0.000398   0.000358   0.000077   0.000171
    6  C  1  S   -0.001394   0.006712   0.007309   0.007551  -0.006984
    7  C  1  X   -0.000091  -0.004558   0.007420  -0.004785  -0.002222
    8  C  1  Y   -0.000096  -0.007783  -0.004246   0.009180  -0.003338
    9  C  1  Z   -0.000119  -0.007115   0.005185  -0.000902  -0.003290
   10  C  1 XX    0.000016  -0.000051  -0.000470   0.000151  -0.000331
   11  C  1 YY   -0.000030   0.000181   0.000514  -0.000637   0.001018
   12  C  1 ZZ    0.000014  -0.000131  -0.000044   0.000485  -0.000687
   13  C  1 XY    0.000004  -0.000185   0.000455   0.000742  -0.000851
   14  C  1 XZ   -0.000069   0.000065  -0.000493   0.000207   0.001785
   15  C  1 YZ   -0.000045  -0.000012   0.000572   0.000304   0.000682
   16  O  2  S   -0.000001  -0.000322  -0.007850   0.995132   0.000047
   17  O  2  S   -0.000018  -0.000270  -0.000616   0.030430   0.000955
   18  O  2  X   -0.000031  -0.000091   0.000065   0.001082  -0.000234
   19  O  2  Y    0.000014   0.000161   0.000197  -0.001756   0.000848
   20  O  2  Z   -0.000023  -0.000023   0.000134   0.000324   0.000107
   21  O  2  S    0.000138   0.001157   0.002283  -0.022974  -0.004247
   22  O  2  X    0.000123   0.001225  -0.001311  -0.003289  -0.001555
   23  O  2  Y   -0.000295   0.000101  -0.001315   0.005593   0.003034
   24  O  2  Z    0.000001   0.001159  -0.001699  -0.000890  -0.000273
   25  O  2 XX   -0.000004   0.000193  -0.000301   0.000044   0.000566
   26  O  2 YY    0.000032  -0.000210   0.000318  -0.000184  -0.001527
   27  O  2 ZZ   -0.000028   0.000017  -0.000017   0.000140   0.000961
   28  O  2 XY   -0.000048  -0.000189   0.000316   0.000204   0.001137
   29  O  2 XZ    0.000021   0.000186  -0.000143  -0.000209  -0.000208
   30  O  2 YZ   -0.000012  -0.000242   0.000451  -0.000032  -0.000140
   31  O  3  S   -0.000005   0.995101   0.000375   0.000329   0.000175
   32  O  3  S   -0.000071   0.030251  -0.000137  -0.000213   0.001633
   33  O  3  X    0.000002   0.001606   0.000032  -0.000142  -0.000162
   34  O  3  Y   -0.000004  -0.000311  -0.000246  -0.000130  -0.000263
   35  O  3  Z    0.000001   0.001353  -0.000064  -0.000179  -0.000248
   36  O  3  S    0.000279  -0.021153  -0.000016   0.000345  -0.007145
   37  O  3  X    0.000059  -0.003063  -0.001419   0.001239  -0.002233
   38  O  3  Y    0.000142  -0.004327   0.001498  -0.001173  -0.002827
   39  O  3  Z    0.000107  -0.004441  -0.000732   0.000689  -0.003115
   40  O  3 XX   -0.000008   0.000081  -0.000160   0.000213   0.000528
   41  O  3 YY    0.000001   0.000343   0.000357  -0.000241  -0.000427
   42  O  3 ZZ    0.000007  -0.000423  -0.000197   0.000028  -0.000101
   43  O  3 XY    0.000023  -0.000902  -0.000190  -0.000188  -0.000845
   44  O  3 XZ    0.000015  -0.000293  -0.000233   0.000311  -0.001117
   45  O  3 YZ    0.000028  -0.000692  -0.000014  -0.000212  -0.001520
   46  O  4  S   -0.000002  -0.000362   0.995129   0.007830   0.000058
   47  O  4  S   -0.000021  -0.000294   0.030306  -0.000148   0.000933
   48  O  4  X    0.000019   0.000132  -0.001474   0.000099   0.000629
   49  O  4  Y   -0.000035  -0.000070   0.000911   0.000143  -0.000077
   50  O  4  Z    0.000004   0.000094  -0.001005   0.000145   0.000547
   51  O  4  S    0.000168   0.001310  -0.022447   0.001984  -0.003734
   52  O  4  X   -0.000254  -0.000342   0.004712  -0.000587   0.002347
   53  O  4  Y    0.000084   0.001682  -0.002738  -0.002068  -0.001221
   54  O  4  Z   -0.000201   0.000324   0.003279  -0.001320   0.001688
   55  O  4 XX    0.000016  -0.000040  -0.000031   0.000031  -0.000613
   56  O  4 YY   -0.000004   0.000245  -0.000040  -0.000286   0.000623
   57  O  4 ZZ   -0.000012  -0.000205   0.000072   0.000255  -0.000010
   58  O  4 XY   -0.000041  -0.000342   0.000162   0.000451   0.000654
   59  O  4 XZ    0.000044  -0.000091  -0.000313   0.000260  -0.001623
   60  O  4 YZ   -0.000022  -0.000172  -0.000010   0.000312   0.000367
   61  H  5  S   -0.000022  -0.000523   0.000227  -0.000434   0.000501
   62  H  5  S    0.000091   0.000534   0.000211   0.000775   0.000484
   63  H  5  X   -0.000009   0.001081  -0.000065   0.000143   0.000177
   64  H  5  Y    0.000005  -0.001386  -0.000003   0.000031   0.000397
   65  H  5  Z   -0.000006   0.000466  -0.000061   0.000143   0.000312
   66  NA 6  S    0.378458  -0.000001   0.000000   0.000000   0.000001
   67  NA 6  S    0.685383   0.000018   0.000007   0.000007   0.000012
   68  NA 6  S    0.005800  -0.000124   0.000027   0.000028  -0.000035
   69  NA 6  S   -0.003441   0.000173  -0.000402  -0.000408  -0.000312
   70  NA 6  S    0.001693   0.002380   0.002362   0.002304   0.004537
   71  NA 6  S   -0.000969  -0.001383  -0.001227  -0.001251  -0.001168
   72  NA 6  X    0.000061  -0.000024  -0.000027  -0.000052  -0.000032
   73  NA 6  Y    0.000105  -0.000041  -0.000085  -0.000054  -0.000056
   74  NA 6  Z    0.000095  -0.000038  -0.000056  -0.000068  -0.000051
   75  NA 6  X   -0.000007   0.000088   0.000100   0.000237   0.000160
   76  NA 6  Y   -0.000011   0.000149   0.000373   0.000217   0.000279
   77  NA 6  Z   -0.000010   0.000137   0.000231   0.000298   0.000251
   78  NA 6  X   -0.000014  -0.000593  -0.000327  -0.000917  -0.000988
   79  NA 6  Y   -0.000024  -0.001016  -0.001396  -0.000723  -0.001717
   80  NA 6  Z   -0.000022  -0.000925  -0.000823  -0.001108  -0.001550
   81  NA 6  X   -0.000243  -0.000114  -0.000137  -0.000176  -0.001183
   82  NA 6  Y   -0.000439  -0.000288  -0.000388  -0.000331  -0.002171
   83  NA 6  Z   -0.000388  -0.000211  -0.000271  -0.000285  -0.001900
   84  NA 6  X    0.000118   0.000116  -0.000011   0.000190   0.000543
   85  NA 6  Y    0.000223   0.000337   0.000302   0.000196   0.001030
   86  NA 6  Z    0.000192   0.000231   0.000103   0.000247   0.000885
   87  NA 6  S    0.000265   0.000286   0.000293   0.000269   0.000153
   88  NA 6  X   -0.000048  -0.000042   0.000008  -0.000076  -0.000193
   89  NA 6  Y   -0.000090  -0.000123  -0.000122  -0.000062  -0.000367
   90  NA 6  Z   -0.000078  -0.000084  -0.000038  -0.000093  -0.000315
   91  NA 6 XX    0.000006  -0.000161  -0.000388   0.000058  -0.000238
   92  NA 6 YY   -0.000006   0.000045   0.000623  -0.000185   0.000200
   93  NA 6 ZZ    0.000000   0.000116  -0.000236   0.000127   0.000039
   94  NA 6 XY   -0.000007   0.000412   0.000023   0.000201   0.000371
   95  NA 6 XZ   -0.000013   0.000101   0.000197   0.000743   0.000433
   96  NA 6 YZ   -0.000016   0.000445   0.000538   0.000353   0.000650
   97  NA 6 XX   -0.000094  -0.000074  -0.000211  -0.000028  -0.000618
   98  NA 6 YY    0.000100   0.000038   0.000373   0.000056   0.000343
   99  NA 6 ZZ   -0.000007   0.000035  -0.000162  -0.000028   0.000275
  100  NA 6 XY    0.000106   0.000160  -0.000043   0.000001   0.001274
  101  NA 6 XZ    0.000200   0.000065   0.000306   0.000491   0.000633
  102  NA 6 YZ    0.000248   0.000196   0.000347   0.000239   0.001645

                      6          7          8          9         10
                   -2.2134    -1.1521    -1.1514    -1.1491    -1.0698
                     A          A          A          A          A   
    1  C  1  S   -0.000069   0.019522  -0.000070  -0.000097  -0.126549
    2  C  1  S    0.000735  -0.036284   0.000131   0.000188   0.244882
    3  C  1  X   -0.000190  -0.005029  -0.000567  -0.004120  -0.008445
    4  C  1  Y   -0.000422  -0.009019  -0.000209   0.004572  -0.029212
    5  C  1  Z   -0.000335  -0.008004   0.000668  -0.002040  -0.018752
    6  C  1  S   -0.027404  -0.000141   0.000002   0.000007   0.033346
    7  C  1  X   -0.001873   0.000753  -0.000141   0.001064   0.012809
    8  C  1  Y   -0.001749   0.003152  -0.000069  -0.001369   0.006474
    9  C  1  Z   -0.002365   0.001884   0.000144   0.000456   0.014155
   10  C  1 XX    0.000134   0.000349  -0.000093  -0.000458  -0.003691
   11  C  1 YY   -0.000277  -0.001292  -0.000061   0.000838   0.008531
   12  C  1 ZZ    0.000143   0.000943   0.000154  -0.000380  -0.004840
   13  C  1 XY    0.000090   0.001288  -0.000119  -0.000195  -0.004366
   14  C  1 XZ   -0.000778  -0.002351  -0.000017  -0.000547   0.013637
   15  C  1 YZ   -0.000433  -0.000710   0.000069   0.000192   0.007666
   16  O  2  S   -0.000644   0.018869  -0.000070  -0.006215  -0.077437
   17  O  2  S   -0.000185  -0.038911   0.000144   0.012286   0.166193
   18  O  2  X    0.000117  -0.012101  -0.000959   0.003721   0.029778
   19  O  2  Y    0.000445   0.010136  -0.000451   0.000306  -0.069633
   20  O  2  Z    0.000275  -0.007208   0.001127   0.003509   0.000875
   21  O  2  S    0.004795  -0.038428   0.000142   0.013203   0.159007
   22  O  2  X    0.004091  -0.006299  -0.000369   0.002273   0.014232
   23  O  2  Y   -0.005265   0.005453  -0.000181  -0.000413  -0.029464
   24  O  2  Z    0.001744  -0.003687   0.000444   0.001916   0.001855
   25  O  2 XX    0.000135  -0.000335  -0.000375   0.000139  -0.002212
   26  O  2 YY    0.000036  -0.000054  -0.000011  -0.000342   0.006112
   27  O  2 ZZ   -0.000172   0.000388   0.000386   0.000202  -0.003899
   28  O  2 XY   -0.000435   0.001053  -0.000109   0.000262  -0.004742
   29  O  2 XZ    0.001228  -0.001708   0.000040   0.001092  -0.000341
   30  O  2 YZ    0.000136   0.000211  -0.000068   0.000441  -0.000094
   31  O  3  S   -0.000105   0.008146  -0.000029   0.000108  -0.147617
   32  O  3  S   -0.001157  -0.017650   0.000064  -0.000230   0.323137
   33  O  3  X    0.000017  -0.004175  -0.000007  -0.000279   0.068827
   34  O  3  Y   -0.000150  -0.002555   0.000000   0.000293   0.016825
   35  O  3  Z   -0.000041  -0.004789   0.000041  -0.000144   0.069391
   36  O  3  S    0.004904  -0.016233   0.000058  -0.000221   0.313234
   37  O  3  X    0.000953  -0.002290   0.000005  -0.000397   0.030807
   38  O  3  Y    0.003010  -0.001646   0.000004   0.000312   0.019979
   39  O  3  Z    0.002010  -0.002719   0.000012  -0.000245   0.035768
   40  O  3 XX   -0.000118   0.000200  -0.000013  -0.000061  -0.001972
   41  O  3 YY    0.000008  -0.000096  -0.000006   0.000106   0.001213
   42  O  3 ZZ    0.000111  -0.000105   0.000019  -0.000045   0.000759
   43  O  3 XY    0.000355  -0.000451  -0.000011  -0.000016   0.003954
   44  O  3 XZ    0.000213  -0.000563   0.000000  -0.000084   0.006953
   45  O  3 YZ    0.000413  -0.000704   0.000009   0.000026   0.007261
   46  O  4  S   -0.000634   0.018643  -0.000069   0.005991  -0.082939
   47  O  4  S   -0.000292  -0.038546   0.000142  -0.011830   0.178480
   48  O  4  X    0.000304   0.010129  -0.001015   0.000617  -0.060422
   49  O  4  Y    0.000232  -0.012764  -0.000356  -0.004692   0.020236
   50  O  4  Z    0.000366   0.004468   0.001055  -0.001199  -0.047656
   51  O  4  S    0.005488  -0.037326   0.000138  -0.012755   0.163063
   52  O  4  X   -0.005115   0.005299  -0.000406   0.000840  -0.024617
   53  O  4  Y    0.003975  -0.006442  -0.000136  -0.002646   0.009803
   54  O  4  Z   -0.003183   0.002424   0.000415  -0.000226  -0.018834
   55  O  4 XX   -0.000290   0.000322   0.000072   0.000578   0.002960
   56  O  4 YY    0.000824  -0.001224  -0.000191  -0.000956  -0.003183
   57  O  4 ZZ   -0.000533   0.000902   0.000118   0.000378   0.000223
   58  O  4 XY   -0.000640   0.001288  -0.000261   0.000022  -0.002861
   59  O  4 XZ    0.000692  -0.000959  -0.000107  -0.000212   0.006772
   60  O  4 YZ    0.000282  -0.000085   0.000274  -0.000736  -0.002065
   61  H  5  S   -0.000365  -0.004674   0.000017  -0.000186   0.094218
   62  H  5  S    0.002563   0.001011  -0.000004  -0.000271   0.005421
   63  H  5  X   -0.000136   0.000374  -0.000001  -0.000017  -0.007421
   64  H  5  Y    0.000120  -0.000724   0.000003  -0.000065   0.014696
   65  H  5  Z   -0.000079   0.000069  -0.000001  -0.000040  -0.001243
   66  NA 6  S   -0.096566   0.001735  -0.000007  -0.000022   0.001502
   67  NA 6  S   -0.275488   0.005142  -0.000022  -0.000065   0.004408
   68  NA 6  S    0.647669  -0.014982   0.000064   0.000186  -0.012293
   69  NA 6  S    0.460795  -0.002685   0.000013   0.000054  -0.006425
   70  NA 6  S    0.049970   0.002521  -0.000015  -0.000093  -0.006057
   71  NA 6  S   -0.028941  -0.002949   0.000014   0.000079   0.006551
   72  NA 6  X    0.002947   0.180290  -0.308156  -0.308982   0.026156
   73  NA 6  Y    0.005032   0.319550  -0.127962   0.319871   0.046953
   74  NA 6  Z    0.004580   0.287376   0.335701  -0.161702   0.041564
   75  NA 6  X    0.005217   0.241100  -0.413066  -0.413602   0.034579
   76  NA 6  Y    0.008905   0.427349  -0.171523   0.428196   0.062145
   77  NA 6  Z    0.008108   0.384319   0.449994  -0.216447   0.054977
   78  NA 6  X    0.001378   0.025888  -0.042998  -0.041977   0.005364
   79  NA 6  Y    0.002387   0.045947  -0.017858   0.043427   0.009213
   80  NA 6  Z    0.002154   0.041282   0.046836  -0.021979   0.008367
   81  NA 6  X   -0.005235  -0.002825   0.005952   0.005364  -0.000005
   82  NA 6  Y   -0.009519  -0.005227   0.002470  -0.005550   0.001145
   83  NA 6  Z   -0.008368  -0.004596  -0.006489   0.002808   0.000422
   84  NA 6  X    0.002543   0.002248  -0.004350  -0.004085  -0.001637
   85  NA 6  Y    0.004919   0.004232  -0.001806   0.004184  -0.003912
   86  NA 6  Z    0.004176   0.003681   0.004741  -0.002154  -0.002965
   87  NA 6  S    0.007754   0.000732  -0.000004  -0.000011  -0.000301
   88  NA 6  X   -0.001035  -0.000987   0.001954   0.001840   0.000493
   89  NA 6  Y   -0.001980  -0.001836   0.000811  -0.001891   0.001239
   90  NA 6  Z   -0.001691  -0.001608  -0.002130   0.000968   0.000915
   91  NA 6 XX    0.000332  -0.001491  -0.002885  -0.003079  -0.000138
   92  NA 6 YY   -0.000604   0.001138  -0.002036   0.005570   0.000224
   93  NA 6 ZZ    0.000273   0.000353   0.004921  -0.002491  -0.000086
   94  NA 6 XY    0.000070   0.002483  -0.003546  -0.001205   0.000011
   95  NA 6 XZ   -0.001275   0.002463  -0.000774  -0.003740   0.000213
   96  NA 6 YZ   -0.000879   0.004054   0.002034   0.001300   0.000253
   97  NA 6 XX   -0.001863   0.000534   0.000442   0.000576   0.000714
   98  NA 6 YY    0.002014  -0.000455   0.000324  -0.001060  -0.000677
   99  NA 6 ZZ   -0.000151  -0.000079  -0.000766   0.000484  -0.000037
  100  NA 6 XY    0.002068  -0.000810   0.000561   0.000259  -0.000951
  101  NA 6 XZ    0.003986  -0.001006   0.000127   0.000706  -0.000440
  102  NA 6 YZ    0.004899  -0.001462  -0.000325  -0.000223  -0.001503

                     11         12         13         14         15
                   -0.9695    -0.9311    -0.5640    -0.4494    -0.4225
                     A          A          A          A          A   
    1  C  1  S    0.058443  -0.001401  -0.096689   0.087280   0.028272
    2  C  1  S   -0.117286   0.001985   0.214575  -0.197769  -0.065695
    3  C  1  X   -0.050409   0.186389  -0.107791  -0.159837   0.046553
    4  C  1  Y   -0.158692  -0.165861  -0.132626   0.005601  -0.317850
    5  C  1  Z   -0.106205   0.107798  -0.148901  -0.144307  -0.076979
    6  C  1  S   -0.016082  -0.004020   0.180251  -0.185916  -0.098497
    7  C  1  X    0.013825  -0.008424  -0.006051  -0.065109   0.029770
    8  C  1  Y    0.022049   0.003914  -0.013965  -0.002265  -0.109058
    9  C  1  Z    0.020996  -0.006228  -0.010871  -0.060466  -0.013674
   10  C  1 XX   -0.005273   0.014084   0.001971   0.003673  -0.002323
   11  C  1 YY   -0.003242  -0.023827  -0.007826  -0.009722   0.003625
   12  C  1 ZZ    0.008515   0.009744   0.005856   0.006050  -0.001302
   13  C  1 XY    0.022147   0.002258   0.009071   0.007166   0.000175
   14  C  1 XZ   -0.003522   0.015796   0.012076   0.003011  -0.003335
   15  C  1 YZ    0.016226  -0.008334   0.007597   0.000838   0.001342
   16  O  2  S    0.121930   0.136886   0.059512  -0.033558  -0.081068
   17  O  2  S   -0.264814  -0.299834  -0.133776   0.076293   0.175818
   18  O  2  X   -0.050931  -0.031081  -0.016226  -0.117049  -0.170683
   19  O  2  Y    0.078007   0.085545  -0.107868   0.080459   0.325898
   20  O  2  Z   -0.017045   0.003979  -0.055685  -0.076712  -0.032324
   21  O  2  S   -0.261031  -0.290936  -0.186931   0.113884   0.345078
   22  O  2  X   -0.028457  -0.010421  -0.013957  -0.063050  -0.079526
   23  O  2  Y    0.028729   0.025166  -0.049329   0.043405   0.143771
   24  O  2  Z   -0.015140   0.000022  -0.031437  -0.041311  -0.018079
   25  O  2 XX   -0.000159   0.002491  -0.004029  -0.002410   0.000180
   26  O  2 YY   -0.003396  -0.005007   0.007351  -0.000131  -0.006813
   27  O  2 ZZ    0.003555   0.002516  -0.003322   0.002541   0.006633
   28  O  2 XY    0.006810   0.001798  -0.001614   0.007541   0.012171
   29  O  2 XZ   -0.001787   0.000165  -0.002624  -0.002293  -0.003306
   30  O  2 YZ    0.003001  -0.001857   0.002667   0.005769   0.004752
   31  O  3  S   -0.144074   0.024477   0.026262  -0.044342   0.042767
   32  O  3  S    0.321808  -0.054771  -0.059546   0.106927  -0.096472
   33  O  3  X    0.057808   0.008629  -0.016748  -0.171220   0.204860
   34  O  3  Y   -0.032383  -0.019314   0.430423   0.165013   0.032424
   35  O  3  Z    0.040697   0.000583   0.147297  -0.094487   0.200321
   36  O  3  S    0.317967  -0.058031  -0.069427   0.141886  -0.166924
   37  O  3  X    0.022409   0.006864  -0.007179  -0.103732   0.120282
   38  O  3  Y   -0.004700  -0.009313   0.203345   0.081615   0.026090
   39  O  3  Z    0.018740   0.002755   0.070261  -0.064192   0.120309
   40  O  3 XX    0.000079   0.002092  -0.002501  -0.005211   0.006552
   41  O  3 YY    0.000816  -0.003507  -0.005466   0.005807  -0.010929
   42  O  3 ZZ   -0.000895   0.001415   0.007967  -0.000596   0.004377
   43  O  3 XY   -0.001699   0.000269   0.018091   0.004744   0.000873
   44  O  3 XZ    0.002819   0.002117   0.004012  -0.009911   0.013929
   45  O  3 YZ    0.000192  -0.001366   0.014106   0.004322  -0.001215
   46  O  4  S    0.087348  -0.160935   0.030170  -0.097032   0.000944
   47  O  4  S   -0.189343   0.351226  -0.065863   0.214401  -0.001452
   48  O  4  X    0.048116  -0.078265  -0.045062   0.281069  -0.024154
   49  O  4  Y   -0.040939   0.027333  -0.020304  -0.093555  -0.180845
   50  O  4  Z    0.028565  -0.061328  -0.048946   0.221767  -0.090038
   51  O  4  S   -0.193743   0.351534  -0.104542   0.378239  -0.014223
   52  O  4  X    0.022691  -0.027883  -0.018024   0.131847  -0.009643
   53  O  4  Y   -0.026527   0.011542  -0.012894  -0.038245  -0.113693
   54  O  4  Z    0.010746  -0.021185  -0.021380   0.106143  -0.051556
   55  O  4 XX   -0.001634   0.001821   0.002325  -0.005631   0.001629
   56  O  4 YY   -0.000159  -0.002279  -0.004607   0.004714  -0.007454
   57  O  4 ZZ    0.001793   0.000458   0.002283   0.000916   0.005825
   58  O  4 XY    0.005217  -0.001113   0.001670   0.008030   0.009272
   59  O  4 XZ   -0.002798   0.005727   0.003678  -0.011066   0.005317
   60  O  4 YZ    0.003456  -0.000285  -0.000240   0.006038   0.005299
   61  H  5  S    0.108529  -0.004367  -0.214920  -0.104375   0.033708
   62  H  5  S    0.015154   0.006341  -0.109778  -0.054294   0.016278
   63  H  5  X   -0.008311   0.001549   0.013114   0.001534   0.005190
   64  H  5  Y    0.014910  -0.000281  -0.009145  -0.005102   0.006111
   65  H  5  Z   -0.001977   0.001312   0.008554  -0.000525   0.007077
   66  NA 6  S   -0.002091   0.000217  -0.001760   0.000768  -0.000917
   67  NA 6  S   -0.006166   0.000638  -0.005229   0.002246  -0.002792
   68  NA 6  S    0.017498  -0.001792   0.015372  -0.006227   0.009087
   69  NA 6  S    0.010231  -0.001252   0.011927  -0.007853   0.002741
   70  NA 6  S   -0.021202   0.004444  -0.044721   0.035311  -0.005103
   71  NA 6  S    0.006657  -0.001534   0.009895   0.036585   0.047364
   72  NA 6  X   -0.021761  -0.014832  -0.008101  -0.007212   0.006003
   73  NA 6  Y   -0.031952   0.020171  -0.007483   0.007404  -0.018714
   74  NA 6  Z   -0.031900  -0.005949  -0.010204  -0.003806  -0.001587
   75  NA 6  X   -0.029092  -0.019794  -0.011206  -0.009936   0.007966
   76  NA 6  Y   -0.042754   0.026970  -0.010550   0.009957  -0.026025
   77  NA 6  Z   -0.042662  -0.007920  -0.014191  -0.005335  -0.002557
   78  NA 6  X    0.000365  -0.000063   0.005786   0.003424  -0.004450
   79  NA 6  Y    0.001125  -0.000839   0.007231  -0.007602   0.013342
   80  NA 6  Z    0.000767  -0.000375   0.008006   0.000271   0.000985
   81  NA 6  X    0.003592   0.000634   0.009863   0.003007  -0.048315
   82  NA 6  Y    0.006600  -0.003636   0.009703  -0.051639   0.003664
   83  NA 6  Z    0.005761  -0.000789   0.012635  -0.016679  -0.042704
   84  NA 6  X   -0.002031   0.002737  -0.002674  -0.009200   0.016050
   85  NA 6  Y   -0.004364   0.000085  -0.001191   0.005311  -0.002549
   86  NA 6  Z   -0.003502   0.002533  -0.002881  -0.006421   0.013737
   87  NA 6  S   -0.000880  -0.000121  -0.004791  -0.005037  -0.015109
   88  NA 6  X    0.000650  -0.001172   0.001586   0.003095  -0.004929
   89  NA 6  Y    0.001483   0.000252   0.001913  -0.002206   0.003160
   90  NA 6  Z    0.001154  -0.000976   0.002167   0.002003  -0.003323
   91  NA 6 XX    0.001308  -0.001854   0.000565   0.000056   0.004332
   92  NA 6 YY   -0.000646   0.003168  -0.000125   0.002284  -0.004852
   93  NA 6 ZZ   -0.000662  -0.001314  -0.000440  -0.002340   0.000519
   94  NA 6 XY   -0.002868  -0.000352  -0.001623  -0.004579  -0.004143
   95  NA 6 XZ   -0.002063  -0.001734  -0.003159  -0.002583  -0.000366
   96  NA 6 YZ   -0.003877   0.001202  -0.002832  -0.003571  -0.007288
   97  NA 6 XX    0.000777  -0.000550   0.001025  -0.010460   0.009495
   98  NA 6 YY   -0.000438   0.000915  -0.001208   0.021352  -0.015073
   99  NA 6 ZZ   -0.000339  -0.000364   0.000183  -0.010892   0.005578
  100  NA 6 XY   -0.001575  -0.000037  -0.001123  -0.007921   0.000410
  101  NA 6 XZ   -0.000189  -0.000176  -0.005843   0.006825   0.027102
  102  NA 6 YZ   -0.001798   0.000538  -0.004227   0.010629   0.000805

                     16         17         18         19         20
                   -0.4164    -0.3611    -0.2829    -0.2761    -0.2440
                     A          A          A          A          A   
    1  C  1  S   -0.000025   0.015231   0.000003   0.007710  -0.000004
    2  C  1  S    0.000068  -0.037726  -0.000008  -0.016496   0.000009
    3  C  1  X   -0.242958   0.201527   0.059638  -0.036234  -0.007151
    4  C  1  Y   -0.099916  -0.115422   0.024579  -0.029165  -0.003037
    5  C  1  Z    0.265225   0.141038  -0.065187  -0.044052   0.007844
    6  C  1  S    0.000129   0.001779   0.000007  -0.064758   0.000013
    7  C  1  X   -0.112112  -0.017110   0.017401   0.050922  -0.001313
    8  C  1  Y   -0.046193   0.018226   0.007283   0.030611  -0.000398
    9  C  1  Z    0.122450  -0.008614  -0.018996   0.058261   0.001261
   10  C  1 XX   -0.000019   0.010580   0.016286  -0.016013   0.032235
   11  C  1 YY    0.000576  -0.023333   0.011585   0.005198  -0.014493
   12  C  1 ZZ   -0.000557   0.012753  -0.027870   0.010815  -0.017742
   13  C  1 XY    0.000798   0.012026   0.020113   0.039037  -0.012481
   14  C  1 XZ    0.000313   0.015768   0.004470  -0.003521  -0.010916
   15  C  1 YZ   -0.000767   0.000830  -0.011580   0.037445   0.025921
   16  O  2  S    0.000115  -0.026268   0.000011   0.008300  -0.000030
   17  O  2  S   -0.000242   0.058897  -0.000031  -0.025758   0.000089
   18  O  2  X   -0.162704  -0.031596   0.157624   0.213978  -0.298304
   19  O  2  Y   -0.068012   0.298058   0.065440   0.186027  -0.123253
   20  O  2  Z    0.177955   0.084225  -0.172115   0.266499   0.324867
   21  O  2  S   -0.000512   0.077493  -0.000054  -0.017144   0.000025
   22  O  2  X   -0.092350  -0.010129   0.109586   0.152929  -0.225760
   23  O  2  Y   -0.038511   0.175005   0.045494   0.109315  -0.093236
   24  O  2  Z    0.100950   0.057180  -0.119676   0.181497   0.245884
   25  O  2 XX   -0.010577   0.006358   0.009653   0.006771  -0.011781
   26  O  2 YY    0.008010  -0.012220  -0.004931  -0.008642   0.008353
   27  O  2 ZZ    0.002567   0.005862  -0.004722   0.001871   0.003428
   28  O  2 XY    0.008609   0.003714  -0.004557  -0.004159   0.008837
   29  O  2 XZ    0.005309   0.004820  -0.003589   0.008541   0.005602
   30  O  2 YZ   -0.012746  -0.003342   0.008532  -0.006373  -0.013438
   31  O  3  S   -0.000026  -0.059801   0.000000  -0.007418   0.000023
   32  O  3  S    0.000061   0.138250   0.000004   0.019148  -0.000059
   33  O  3  X   -0.202321  -0.276583  -0.354295   0.183597   0.005364
   34  O  3  Y   -0.083481   0.147283  -0.146199   0.111771   0.002015
   35  O  3  Z    0.220599  -0.197433   0.387250   0.209846  -0.005541
   36  O  3  S    0.000095   0.239900   0.000038   0.090018  -0.000070
   37  O  3  X   -0.129883  -0.170519  -0.264567   0.136588   0.004584
   38  O  3  Y   -0.053592   0.059968  -0.109187   0.079359   0.001730
   39  O  3  Z    0.141628  -0.133376   0.289173   0.154680  -0.004777
   40  O  3 XX   -0.015681  -0.004303  -0.019515   0.003705   0.003153
   41  O  3 YY   -0.002279   0.002684   0.001629  -0.007802  -0.001348
   42  O  3 ZZ    0.017960   0.001619   0.017886   0.004097  -0.001805
   43  O  3 XY   -0.006937   0.007756  -0.002361   0.003619  -0.001139
   44  O  3 XZ    0.000375  -0.011967   0.002859   0.007880  -0.001027
   45  O  3 YZ   -0.000426   0.004000  -0.006401   0.000986   0.002445
   46  O  4  S   -0.000050   0.029550   0.000014   0.006440   0.000024
   47  O  4  S    0.000118  -0.065299  -0.000041  -0.018046  -0.000072
   48  O  4  X   -0.163766  -0.213094   0.166291   0.138395   0.294948
   49  O  4  Y   -0.067639   0.160701   0.069058   0.289269   0.122693
   50  O  4  Z    0.179315  -0.133994  -0.181486   0.236439  -0.322147
   51  O  4  S    0.000174  -0.095051  -0.000018  -0.045433  -0.000011
   52  O  4  X   -0.096834  -0.121054   0.116158   0.086647   0.226121
   53  O  4  Y   -0.039996   0.105658   0.048239   0.204005   0.094075
   54  O  4  Z    0.106022  -0.070688  -0.126785   0.156710  -0.247038
   55  O  4 XX    0.016585   0.003519  -0.011235  -0.004636  -0.016669
   56  O  4 YY   -0.003278  -0.001663   0.003833   0.011183   0.003467
   57  O  4 ZZ   -0.013306  -0.001856   0.007402  -0.006546   0.013202
   58  O  4 XY   -0.000638  -0.007461   0.002653  -0.007029   0.000821
   59  O  4 XZ   -0.003444   0.005623   0.003163  -0.006207   0.003520
   60  O  4 YZ    0.007925  -0.005599  -0.007462  -0.000983  -0.008171
   61  H  5  S   -0.000002  -0.150653   0.000020  -0.002658   0.000088
   62  H  5  S    0.000011  -0.119258  -0.000019  -0.053773  -0.000026
   63  H  5  X   -0.006603   0.000107  -0.011095   0.002060   0.001095
   64  H  5  Y   -0.002726  -0.007878  -0.004573   0.004505   0.000454
   65  H  5  Z    0.007198  -0.002870   0.012118   0.003575  -0.001206
   66  NA 6  S   -0.000007   0.001819   0.000013   0.007653   0.000000
   67  NA 6  S   -0.000021   0.005449   0.000038   0.022773  -0.000001
   68  NA 6  S    0.000062  -0.016705  -0.000115  -0.068180   0.000004
   69  NA 6  S    0.000057  -0.011530  -0.000097  -0.059821   0.000004
   70  NA 6  S   -0.000173   0.049264   0.000475   0.249215  -0.000023
   71  NA 6  S    0.000001  -0.029690  -0.000296  -0.091259   0.000021
   72  NA 6  X    0.007143   0.013610  -0.007738   0.014545   0.000144
   73  NA 6  Y    0.002953  -0.000530  -0.003152   0.027014   0.000165
   74  NA 6  Z   -0.007904   0.012207   0.008539   0.023396  -0.000281
   75  NA 6  X    0.009956   0.019256  -0.011364   0.019802   0.000269
   76  NA 6  Y    0.004117  -0.000654  -0.004630   0.036910   0.000256
   77  NA 6  Z   -0.011014   0.017307   0.012539   0.031899  -0.000467
   78  NA 6  X   -0.006215  -0.014560   0.010679  -0.008130  -0.000490
   79  NA 6  Y   -0.002583   0.000263   0.004357  -0.016336  -0.000305
   80  NA 6  Z    0.006847  -0.013180  -0.011779  -0.013505   0.000668
   81  NA 6  X   -0.017616  -0.030130   0.044852  -0.017070  -0.000702
   82  NA 6  Y   -0.007295   0.039435   0.018514  -0.039720  -0.000533
   83  NA 6  Z    0.019513  -0.012568  -0.049075  -0.030296   0.001032
   84  NA 6  X   -0.005321  -0.008302  -0.025741   0.029607   0.001336
   85  NA 6  Y   -0.002204  -0.005433  -0.010559   0.040536   0.000758
   86  NA 6  Z    0.005722  -0.009674   0.028223   0.042249  -0.001690
   87  NA 6  S    0.000010   0.012766   0.000066   0.009625  -0.000008
   88  NA 6  X    0.001849   0.001382   0.009506  -0.009365  -0.000555
   89  NA 6  Y    0.000764   0.000658   0.003895  -0.012307  -0.000316
   90  NA 6  Z   -0.001989   0.001526  -0.010428  -0.013158   0.000706
   91  NA 6 XX    0.002200   0.000006  -0.003305  -0.001844   0.003738
   92  NA 6 YY    0.001512  -0.001428  -0.002357   0.002832  -0.001349
   93  NA 6 ZZ   -0.003712   0.001423   0.005662  -0.000988  -0.002388
   94  NA 6 XY    0.002630   0.002860  -0.004090   0.000623  -0.001061
   95  NA 6 XZ    0.000552   0.004194  -0.000887   0.006697  -0.001157
   96  NA 6 YZ   -0.001502   0.003275   0.002418   0.005253   0.002652
   97  NA 6 XX    0.010323   0.014029  -0.016910   0.001101   0.040410
   98  NA 6 YY    0.007529  -0.026009  -0.013167   0.004453  -0.016711
   99  NA 6 ZZ   -0.017852   0.011980   0.030077  -0.005554  -0.023699
  100  NA 6 XY    0.012954   0.006729  -0.022502  -0.011467  -0.013848
  101  NA 6 XZ    0.002818   0.015522  -0.005161   0.001765  -0.013114
  102  NA 6 YZ   -0.007614  -0.005909   0.013582  -0.006590   0.030851

                     21         22         23         24         25
                   -0.2290    -0.0537     0.0002     0.0030     0.0043
                     A          A          A          A          A   
    1  C  1  S   -0.002085  -0.008580   0.000001   0.004781   0.003546
    2  C  1  S    0.007329   0.013596   0.000016  -0.007481  -0.007292
    3  C  1  X    0.017614  -0.002490   0.051227  -0.010983   0.011521
    4  C  1  Y   -0.038244  -0.004040   0.021215   0.020759  -0.001117
    5  C  1  Z    0.001619  -0.003644  -0.055979  -0.001984   0.010148
    6  C  1  S    0.003527   0.028046  -0.000027  -0.022768   0.017602
    7  C  1  X   -0.071738  -0.019149   0.040655  -0.000297   0.002845
    8  C  1  Y    0.073774  -0.024358   0.016746  -0.026169   0.007921
    9  C  1  Z   -0.037749  -0.026603  -0.044565  -0.009993   0.005618
   10  C  1 XX    0.013136   0.002478   0.000225  -0.000832  -0.001331
   11  C  1 YY   -0.023514  -0.001864  -0.000034   0.002344   0.002035
   12  C  1 ZZ    0.010379  -0.000614  -0.000191  -0.001512  -0.000704
   13  C  1 XY    0.004465  -0.004160  -0.000016  -0.001781   0.000314
   14  C  1 XZ    0.015987  -0.002786  -0.000037   0.002773   0.002482
   15  C  1 YZ   -0.006113  -0.006205   0.000103   0.001188   0.002732
   16  O  2  S   -0.005799   0.014139  -0.000007  -0.000125  -0.010968
   17  O  2  S    0.020534  -0.035660   0.000012  -0.001797   0.028811
   18  O  2  X   -0.340815  -0.033811   0.010502   0.008843   0.006538
   19  O  2  Y   -0.025250  -0.041820   0.004274  -0.029409   0.019010
   20  O  2  Z   -0.322427  -0.046659  -0.011560  -0.003004   0.013114
   21  O  2  S   -0.036791  -0.075649   0.000100   0.024227   0.056696
   22  O  2  X   -0.249420  -0.022217   0.002994   0.011334  -0.003020
   23  O  2  Y   -0.004187  -0.033214   0.001173  -0.025842   0.021321
   24  O  2  Z   -0.230569  -0.032827  -0.003318   0.000583   0.005262
   25  O  2 XX   -0.007980  -0.001435   0.000775  -0.000847   0.000881
   26  O  2 YY    0.007821   0.001547  -0.001922   0.002077  -0.001254
   27  O  2 ZZ    0.000159  -0.000112   0.001147  -0.001230   0.000373
   28  O  2 XY    0.009379   0.001459  -0.002506  -0.001318  -0.000329
   29  O  2 XZ   -0.009086  -0.000742  -0.001096  -0.000051   0.000225
   30  O  2 YZ    0.010300   0.002090   0.002692   0.000246  -0.001087
   31  O  3  S    0.012774   0.008846  -0.000029  -0.012139  -0.007687
   32  O  3  S   -0.031384  -0.020782   0.000076   0.030150   0.019532
   33  O  3  X    0.095138  -0.024608  -0.006656   0.025489   0.004598
   34  O  3  Y   -0.063618  -0.015894  -0.002838  -0.035436   0.002516
   35  O  3  Z    0.062820  -0.028607   0.007271   0.009890   0.005188
   36  O  3  S   -0.045323  -0.074429   0.000165   0.088293   0.053488
   37  O  3  X    0.071116  -0.026404  -0.008766   0.022048   0.006598
   38  O  3  Y   -0.051305  -0.011676  -0.003705  -0.038527  -0.004623
   39  O  3  Z    0.045540  -0.028660   0.009548   0.005568   0.004313
   40  O  3 XX    0.001675  -0.000511   0.000830   0.000183   0.000407
   41  O  3 YY   -0.000178   0.000912   0.001002   0.000489  -0.000566
   42  O  3 ZZ   -0.001497  -0.000401  -0.001832  -0.000671   0.000159
   43  O  3 XY   -0.004670  -0.000189   0.001592  -0.001463  -0.000175
   44  O  3 XZ    0.003990  -0.001091   0.000445   0.000949   0.000295
   45  O  3 YZ   -0.002713   0.000031  -0.001126  -0.000579  -0.000435
   46  O  4  S    0.003575   0.014628  -0.000023  -0.016793  -0.003043
   47  O  4  S   -0.013612  -0.037488   0.000052   0.042523   0.007740
   48  O  4  X   -0.062663  -0.025580   0.011979   0.016739  -0.003411
   49  O  4  Y    0.441711  -0.050733   0.004878  -0.017656   0.019160
   50  O  4  Z    0.110950  -0.042497  -0.013150   0.008583   0.004119
   51  O  4  S    0.042256  -0.073428   0.000184   0.091116   0.022535
   52  O  4  X   -0.056616  -0.022637   0.004402   0.012879   0.002597
   53  O  4  Y    0.328305  -0.034203   0.001770  -0.019466   0.011392
   54  O  4  Z    0.073287  -0.033584  -0.004880   0.004362   0.006675
   55  O  4 XX   -0.001418   0.000151  -0.003601  -0.000356   0.000444
   56  O  4 YY    0.008859  -0.001266  -0.000054   0.000699  -0.000260
   57  O  4 ZZ   -0.007441   0.001115   0.003655  -0.000343  -0.000185
   58  O  4 XY   -0.012365   0.001984  -0.000936  -0.000225  -0.000861
   59  O  4 XZ   -0.003176   0.001219   0.000346  -0.000290   0.000314
   60  O  4 YZ   -0.006193   0.001393  -0.000713   0.000172  -0.000829
   61  H  5  S    0.051417   0.006715  -0.000009  -0.006276  -0.007426
   62  H  5  S    0.003924   0.043813  -0.000108  -0.083749  -0.041828
   63  H  5  X   -0.002410  -0.000012  -0.000755  -0.001799   0.000000
   64  H  5  Y    0.000715  -0.000919  -0.000301   0.003528   0.000818
   65  H  5  Z   -0.001941  -0.000361   0.000818  -0.000318   0.000309
   66  NA 6  S   -0.000091   0.012843  -0.000003  -0.001101  -0.005104
   67  NA 6  S   -0.000274   0.037965  -0.000010  -0.003284  -0.015178
   68  NA 6  S    0.000844  -0.110189   0.000029   0.009974   0.045317
   69  NA 6  S    0.000823  -0.145143   0.000027   0.010488   0.054908
   70  NA 6  S   -0.004026   0.493744   0.000016  -0.008964  -0.106791
   71  NA 6  S    0.002394   0.369839  -0.000430  -0.045537  -0.743258
   72  NA 6  X   -0.020540  -0.019229   0.021059   0.010008   0.000080
   73  NA 6  Y    0.020370  -0.032345   0.008661  -0.014258   0.015632
   74  NA 6  Z   -0.011087  -0.029708  -0.023063   0.003826   0.005972
   75  NA 6  X   -0.029061  -0.028996   0.030374   0.014364   0.001487
   76  NA 6  Y    0.028445  -0.048918   0.012495  -0.019114   0.024003
   77  NA 6  Z   -0.015828  -0.044852  -0.033262   0.006000   0.010413
   78  NA 6  X    0.025739   0.039340  -0.028284  -0.014038  -0.013766
   79  NA 6  Y   -0.023433   0.067614  -0.011656   0.005649  -0.037390
   80  NA 6  Z    0.014681   0.061320   0.030942  -0.010767  -0.026655
   81  NA 6  X    0.024792   0.115230  -0.193366  -0.094756   0.030436
   82  NA 6  Y   -0.026184   0.193096  -0.079557   0.130138  -0.102510
   83  NA 6  Z    0.012799   0.177677   0.211757  -0.038051  -0.010909
   84  NA 6  X   -0.043120   0.036227  -0.058874  -0.011837  -0.116757
   85  NA 6  Y    0.048178   0.039559  -0.024255  -0.066056  -0.151196
   86  NA 6  Z   -0.021237   0.047928   0.064461  -0.035784  -0.163580
   87  NA 6  S   -0.002190   0.169115   0.000376  -0.070938   0.950481
   88  NA 6  X    0.018505   0.009922  -0.483425  -0.271793   0.602794
   89  NA 6  Y   -0.019733   0.014417  -0.198125   0.924928   0.348026
   90  NA 6  Z    0.009469   0.014457   0.529921   0.098725   0.680700
   91  NA 6 XX   -0.008415   0.000542  -0.001945  -0.003247   0.000126
   92  NA 6 YY    0.015677  -0.002290  -0.001653   0.005119  -0.000354
   93  NA 6 ZZ   -0.007261   0.001748   0.003598  -0.001872   0.000228
   94  NA 6 XY   -0.004190   0.002478  -0.002780   0.000301   0.000461
   95  NA 6 XZ   -0.011142  -0.004638  -0.000668  -0.000613   0.004521
   96  NA 6 YZ    0.002687  -0.001265   0.001775   0.003609   0.002003
   97  NA 6 XX    0.001864  -0.008909  -0.029946  -0.034706   0.016664
   98  NA 6 YY   -0.002707  -0.001931  -0.018803   0.058965  -0.023529
   99  NA 6 ZZ    0.000843   0.010840   0.048748  -0.024259   0.006865
  100  NA 6 XY   -0.000773   0.031025  -0.033522  -0.005149  -0.005711
  101  NA 6 XZ    0.001380   0.000689  -0.006778  -0.017664   0.024094
  102  NA 6 YZ   -0.002225   0.026850   0.018402   0.029439  -0.011896

                     26         27         28         29         30
                    0.0110     0.0237     0.0285     0.0396     0.0856
                     A          A          A          A          A   
    1  C  1  S   -0.006357   0.000007   0.001181   0.012379  -0.005767
    2  C  1  S    0.008050  -0.000047   0.000386  -0.001992   0.014439
    3  C  1  X   -0.010920  -0.057639  -0.025747   0.007640   0.063087
    4  C  1  Y    0.002733  -0.023841   0.025290   0.000415   0.033641
    5  C  1  Z   -0.009165   0.063016  -0.013933   0.007449  -0.044067
    6  C  1  S    0.060771   0.000069  -0.011050  -0.141041  -0.113927
    7  C  1  X    0.020648  -0.047409  -0.005839  -0.063053   0.080395
    8  C  1  Y    0.036052  -0.019575   0.006866  -0.089397   0.026621
    9  C  1  Z    0.032343   0.051991  -0.002688  -0.091124  -0.028484
   10  C  1 XX    0.000937  -0.000313   0.000689  -0.004214   0.001482
   11  C  1 YY   -0.003745  -0.000016  -0.001025   0.007486  -0.006629
   12  C  1 ZZ    0.002808   0.000329   0.000336  -0.003272   0.005147
   13  C  1 XY    0.004112  -0.000084  -0.000104  -0.000987   0.004638
   14  C  1 XZ   -0.002523   0.000020   0.002043   0.007165  -0.012388
   15  C  1 YZ    0.000034  -0.000050   0.000028   0.007323  -0.003859
   16  O  2  S    0.014114   0.000001   0.010913  -0.024843   0.014652
   17  O  2  S   -0.033836   0.000004  -0.029697   0.063475  -0.038501
   18  O  2  X    0.017700  -0.007422   0.009929   0.008751  -0.020484
   19  O  2  Y    0.012268  -0.003030  -0.033078   0.000525  -0.001207
   20  O  2  Z    0.020918   0.008188  -0.003344   0.008005   0.027991
   21  O  2  S   -0.094358  -0.000053  -0.043070   0.165587  -0.093115
   22  O  2  X    0.009450   0.002009   0.014144   0.008727   0.012325
   23  O  2  Y    0.018036   0.000877  -0.015619  -0.016361  -0.031794
   24  O  2  Z    0.015562  -0.002170   0.007064   0.001597   0.050132
   25  O  2 XX    0.000395  -0.000405  -0.001517   0.000382   0.000339
   26  O  2 YY   -0.000811   0.002137   0.002720   0.000950  -0.000074
   27  O  2 ZZ    0.000416  -0.001731  -0.001203  -0.001332  -0.000265
   28  O  2 XY    0.000292   0.002892  -0.000505  -0.002888  -0.004927
   29  O  2 XZ   -0.000637   0.001169  -0.000763   0.002008  -0.003052
   30  O  2 YZ   -0.000565  -0.002892   0.001144  -0.001113  -0.001894
   31  O  3  S    0.018905   0.000000  -0.000060  -0.022089  -0.002272
   32  O  3  S   -0.046134  -0.000006   0.002178   0.061055  -0.002637
   33  O  3  X   -0.006766   0.016392   0.014868   0.031371  -0.027927
   34  O  3  Y    0.036762   0.006778  -0.008684  -0.017241  -0.043033
   35  O  3  Z    0.007767  -0.017883   0.010288   0.022068   0.011271
   36  O  3  S   -0.131720   0.000044  -0.004119   0.125457   0.057498
   37  O  3  X   -0.010614   0.014868   0.009527   0.013198  -0.010972
   38  O  3  Y    0.047000   0.006121   0.000205  -0.039553  -0.043543
   39  O  3  Z    0.008114  -0.016176   0.008757  -0.003020   0.026863
   40  O  3 XX   -0.000153  -0.000464  -0.000485   0.000851   0.000236
   41  O  3 YY   -0.000280  -0.001064   0.000944  -0.001409   0.001198
   42  O  3 ZZ    0.000433   0.001528  -0.000459   0.000558  -0.001434
   43  O  3 XY    0.000961  -0.001596  -0.000298   0.000107   0.001852
   44  O  3 XZ   -0.001414  -0.000515  -0.000099   0.002122  -0.000332
   45  O  3 YZ    0.000084   0.001285   0.000358  -0.000019  -0.001814
   46  O  4  S    0.006449   0.000010  -0.015468  -0.022153   0.015840
   47  O  4  S   -0.012987  -0.000014   0.041613   0.052979  -0.037566
   48  O  4  X    0.015539  -0.008849   0.025532  -0.002269  -0.011690
   49  O  4  Y    0.026673  -0.003612  -0.003936   0.003160  -0.008301
   50  O  4  Z    0.024327   0.009732   0.021776  -0.001040   0.031971
   51  O  4  S   -0.060894  -0.000133   0.071602   0.171569  -0.129243
   52  O  4  X    0.023018   0.000539   0.015772  -0.021041  -0.037352
   53  O  4  Y    0.012575   0.000231  -0.019088   0.006290   0.025748
   54  O  4  Z    0.025870  -0.000497   0.007156  -0.017053   0.024492
   55  O  4 XX   -0.000800   0.003886  -0.001197   0.001157   0.000192
   56  O  4 YY    0.001241   0.000305   0.002142  -0.000335  -0.002607
   57  O  4 ZZ   -0.000441  -0.004191  -0.000945  -0.000822   0.002416
   58  O  4 XY   -0.000001   0.001355  -0.000438  -0.002783  -0.003094
   59  O  4 XZ   -0.003111  -0.000243  -0.001977   0.003922  -0.000597
   60  O  4 YZ   -0.000396   0.000445   0.000305  -0.001142  -0.003945
   61  H  5  S    0.017167  -0.000012   0.005958  -0.023351  -0.008214
   62  H  5  S    0.117688  -0.000127   0.030110  -0.091095  -0.097720
   63  H  5  X    0.001614   0.000883  -0.001328  -0.002813  -0.000936
   64  H  5  Y   -0.003557   0.000360   0.001444   0.005964  -0.000843
   65  H  5  Z    0.000138  -0.000960  -0.000671  -0.000328   0.000520
   66  NA 6  S   -0.002393   0.000000   0.000011  -0.004449  -0.009472
   67  NA 6  S   -0.007145   0.000001  -0.000006  -0.013386  -0.027520
   68  NA 6  S    0.021634  -0.000005   0.000556   0.042258   0.073486
   69  NA 6  S    0.025816   0.000001  -0.002582   0.037448   0.150342
   70  NA 6  S   -0.024738  -0.000058   0.060700   0.000294  -1.951890
   71  NA 6  S   -0.750973   0.000085  -0.127005  -0.474186   2.874171
   72  NA 6  X    0.013963  -0.025368   0.021572  -0.006125   0.027226
   73  NA 6  Y    0.007446  -0.010443  -0.024425  -0.001230   0.035797
   74  NA 6  Z    0.015539   0.027792   0.010517  -0.006043   0.018216
   75  NA 6  X    0.019461  -0.038956   0.032678  -0.008153   0.036686
   76  NA 6  Y    0.010985  -0.016038  -0.036916  -0.000748   0.047180
   77  NA 6  Z    0.021885   0.042675   0.015964  -0.007705   0.023740
   78  NA 6  X   -0.013105   0.054772  -0.044382   0.002872  -0.019038
   79  NA 6  Y   -0.012078   0.022560   0.049937  -0.007439  -0.015135
   80  NA 6  Z   -0.016486  -0.059984  -0.021758  -0.000220  -0.005836
   81  NA 6  X   -0.142971   0.103821  -0.042952  -0.121263  -0.570235
   82  NA 6  Y   -0.031109   0.042783   0.021230  -0.301682  -0.783558
   83  NA 6  Z   -0.142090  -0.113718  -0.031289  -0.224290  -0.358596
   84  NA 6  X    0.074353   0.961771  -1.019381   0.921006   0.705035
   85  NA 6  Y   -0.025463   0.395774   1.286281   1.410121   0.945662
   86  NA 6  Z    0.058193  -1.053614  -0.447114   1.371020   0.280508
   87  NA 6  S    1.206646  -0.000016   0.064206   0.316321  -1.085281
   88  NA 6  X   -0.434529  -1.045962   0.963135  -0.700644  -0.338038
   89  NA 6  Y   -0.033396  -0.430596  -1.177856  -1.037725  -0.470879
   90  NA 6  Z   -0.409144   1.145740   0.436608  -1.029787  -0.116160
   91  NA 6 XX   -0.000046   0.002393  -0.004937  -0.003257   0.005913
   92  NA 6 YY    0.001665   0.001957   0.008882   0.002829  -0.006979
   93  NA 6 ZZ   -0.001619  -0.004350  -0.003946   0.000428   0.001066
   94  NA 6 XY   -0.003086   0.003309  -0.001776   0.005021  -0.009807
   95  NA 6 XZ   -0.002211   0.000781  -0.004644   0.009182  -0.012704
   96  NA 6 YZ   -0.002508  -0.002071   0.002746   0.010239  -0.016954
   97  NA 6 XX   -0.000727   0.037340  -0.068436  -0.029591   0.023265
   98  NA 6 YY    0.013750   0.023913   0.121351   0.029457  -0.038738
   99  NA 6 ZZ   -0.013022  -0.061254  -0.052916   0.000134   0.015474
  100  NA 6 XY   -0.025797   0.042406  -0.021615   0.040115  -0.030617
  101  NA 6 XZ   -0.051757   0.008681  -0.073031   0.118682  -0.083195
  102  NA 6 YZ   -0.034588  -0.023508   0.035941   0.104944  -0.076166

                     31         32         33         34         35
                    0.0856     0.0962     0.1022     0.1282     0.1530
                     A          A          A          A          A   
    1  C  1  S   -0.001412   0.000671  -0.000022   0.000750  -0.009525
    2  C  1  S    0.003533   0.004202  -0.000015   0.013518   0.016921
    3  C  1  X   -0.207448  -0.029147   0.335684  -0.012107  -0.053408
    4  C  1  Y   -0.083918   0.024151   0.138821   0.007968  -0.035371
    5  C  1  Z    0.232984  -0.017288  -0.366875  -0.008105  -0.061699
    6  C  1  S   -0.028582  -0.026441   0.000794  -0.012988   0.019165
    7  C  1  X   -0.198477  -0.006347   0.317712   0.010187  -0.106147
    8  C  1  Y   -0.083830   0.044640   0.131376   0.180784   0.044097
    9  C  1  Z    0.231848   0.011328  -0.347495   0.077751  -0.079798
   10  C  1 XX    0.002053   0.004495  -0.002188   0.001161   0.005822
   11  C  1 YY    0.000444  -0.008316  -0.003065  -0.003675  -0.010915
   12  C  1 ZZ   -0.002497   0.003821   0.005253   0.002514   0.005092
   13  C  1 XY    0.004475   0.002108  -0.004790   0.003546   0.002703
   14  C  1 XZ   -0.002165   0.005813  -0.001392   0.006653  -0.001264
   15  C  1 YZ   -0.003319  -0.001580   0.003536   0.003328  -0.005797
   16  O  2  S    0.003652   0.009492  -0.000022  -0.007007   0.017138
   17  O  2  S   -0.009608  -0.022559   0.000091   0.025984  -0.036411
   18  O  2  X    0.086573  -0.023759  -0.186763   0.058620  -0.035483
   19  O  2  Y    0.037561  -0.010251  -0.077107   0.083641   0.045005
   20  O  2  Z   -0.093179  -0.025572   0.204049   0.085085  -0.015456
   21  O  2  S   -0.023136  -0.070066  -0.000066  -0.020325  -0.184447
   22  O  2  X    0.102073  -0.014757  -0.195631   0.017974  -0.041834
   23  O  2  Y    0.032935  -0.013060  -0.080620   0.113205   0.047734
   24  O  2  Z   -0.095637  -0.018438   0.213575   0.059068  -0.020250
   25  O  2 XX    0.000518  -0.003674   0.004277   0.001660  -0.001685
   26  O  2 YY    0.004651   0.005154  -0.004654  -0.002795  -0.001042
   27  O  2 ZZ   -0.005169  -0.001480   0.000377   0.001135   0.002726
   28  O  2 XY    0.005387   0.001520  -0.005440   0.000297   0.007087
   29  O  2 XZ    0.001650  -0.000841  -0.002891   0.003394  -0.000771
   30  O  2 YZ   -0.006492   0.004640   0.006994  -0.000306   0.005312
   31  O  3  S   -0.000621   0.008589   0.000015   0.039713   0.052851
   32  O  3  S   -0.000545  -0.015843   0.000015  -0.083083  -0.096948
   33  O  3  X    0.096624  -0.023839  -0.118933  -0.079065  -0.151360
   34  O  3  Y    0.031899   0.048740  -0.049108   0.197251   0.176761
   35  O  3  Z   -0.110233  -0.003528   0.129889   0.002069  -0.071995
   36  O  3  S    0.014888  -0.097835  -0.000363  -0.425301  -0.678172
   37  O  3  X    0.101365  -0.038285  -0.130594  -0.126043  -0.247297
   38  O  3  Y    0.031886   0.087959  -0.053960   0.332407   0.316067
   39  O  3  Z   -0.106836  -0.001940   0.142420   0.010121  -0.107276
   40  O  3 XX   -0.001096  -0.002408   0.003880  -0.002617  -0.005717
   41  O  3 YY   -0.004787   0.003317   0.007946   0.001401   0.006662
   42  O  3 ZZ    0.005883  -0.000908  -0.011826   0.001216  -0.000944
   43  O  3 XY   -0.006912   0.001038   0.012021   0.005262   0.004729
   44  O  3 XZ   -0.002641  -0.002601   0.003788  -0.004071  -0.006897
   45  O  3 YZ    0.005934   0.002225  -0.009546   0.004068   0.006162
   46  O  4  S    0.003961  -0.011444  -0.000027  -0.005832   0.016449
   47  O  4  S   -0.009396   0.028709   0.000088   0.014991  -0.046750
   48  O  4  X    0.086020   0.009644  -0.182096   0.006414  -0.008946
   49  O  4  Y    0.034679   0.065690  -0.075365   0.110440  -0.002475
   50  O  4  Z   -0.089240   0.033394   0.199123   0.047473  -0.009119
   51  O  4  S   -0.032323   0.075078   0.000068   0.048628  -0.074564
   52  O  4  X    0.085779   0.018440  -0.190489   0.025244  -0.023038
   53  O  4  Y    0.045739   0.041549  -0.078963   0.071089  -0.010922
   54  O  4  Z   -0.097839   0.032324   0.208430   0.049811  -0.025196
   55  O  4 XX    0.008310  -0.001760  -0.009528  -0.002251  -0.003417
   56  O  4 YY    0.000576   0.004536   0.001552   0.004508   0.002673
   57  O  4 ZZ   -0.008886  -0.002776   0.007976  -0.002257   0.000744
   58  O  4 XY    0.002927  -0.003326  -0.000106  -0.001646   0.005372
   59  O  4 XZ   -0.000343  -0.004996   0.001775  -0.001563  -0.003818
   60  O  4 YZ   -0.000807  -0.001845  -0.004101   0.001045   0.005167
   61  H  5  S   -0.002172   0.030766   0.000073   0.094637   0.129733
   62  H  5  S   -0.025127   0.232916   0.000292   0.921720   1.260917
   63  H  5  X    0.003067   0.000093  -0.005071   0.002170   0.000216
   64  H  5  Y    0.001159  -0.001848  -0.002088  -0.004135  -0.003456
   65  H  5  Z   -0.003473  -0.000618   0.005529   0.000425  -0.001112
   66  NA 6  S   -0.002357  -0.001306   0.000016  -0.009829   0.008482
   67  NA 6  S   -0.006847  -0.003790   0.000045  -0.028659   0.024804
   68  NA 6  S    0.018279   0.010086  -0.000106   0.078220  -0.068796
   69  NA 6  S    0.037432   0.020798  -0.000320   0.150694  -0.126403
   70  NA 6  S   -0.486135  -0.195799   0.003856  -1.405141   1.217521
   71  NA 6  S    0.716010   0.228750  -0.005578   1.459160  -1.215129
   72  NA 6  X   -0.032983   0.041106  -0.023440  -0.009559   0.001934
   73  NA 6  Y   -0.007439  -0.041714  -0.009715   0.004510   0.017979
   74  NA 6  Z    0.048098   0.021868   0.025573  -0.006992   0.008546
   75  NA 6  X   -0.045242   0.054429  -0.031519  -0.009551   0.000236
   76  NA 6  Y   -0.010617  -0.054481  -0.013062   0.011688   0.020881
   77  NA 6  Z    0.065485   0.029239   0.034386  -0.004278   0.008094
   78  NA 6  X    0.029216  -0.016562   0.012456  -0.030917   0.033129
   79  NA 6  Y    0.010210   0.008083   0.005203  -0.068946   0.036920
   80  NA 6  Z   -0.038679  -0.012101  -0.013481  -0.054139   0.044139
   81  NA 6  X    0.761805  -1.015340   0.536210   0.522700  -0.314804
   82  NA 6  Y    0.176651   1.092596   0.221672   0.380198  -0.870749
   83  NA 6  Z   -1.079096  -0.516681  -0.586329   0.619207  -0.615702
   84  NA 6  X   -1.246273   1.483756  -0.744923  -0.590858   0.444707
   85  NA 6  Y   -0.349873  -1.464438  -0.307572  -0.214716   1.262855
   86  NA 6  Z    1.626262   0.804890   0.815555  -0.618627   0.882156
   87  NA 6  S   -0.270170  -0.129000   0.001963  -0.565218   0.199064
   88  NA 6  X    0.646702  -0.731545   0.368861   0.296562  -0.187021
   89  NA 6  Y    0.183600   0.746061   0.152298   0.159677  -0.511571
   90  NA 6  Z   -0.829015  -0.387778  -0.403907   0.330139  -0.363582
   91  NA 6 XX    0.004699  -0.010919   0.005682  -0.001409   0.008173
   92  NA 6 YY    0.000676   0.020519   0.003872   0.002979  -0.008985
   93  NA 6 ZZ   -0.005375  -0.009600  -0.009554  -0.001570   0.000812
   94  NA 6 XY    0.001705  -0.005648   0.006809  -0.000573  -0.008600
   95  NA 6 XZ   -0.002224  -0.012286   0.001445   0.016774  -0.012213
   96  NA 6 YZ   -0.006731   0.004310  -0.003821   0.008368  -0.019022
   97  NA 6 XX    0.028338  -0.113181   0.098705  -0.060846   0.033857
   98  NA 6 YY    0.005870   0.199755   0.064821   0.088264  -0.089138
   99  NA 6 ZZ   -0.034208  -0.086574  -0.163526  -0.027418   0.055281
  100  NA 6 XY    0.019274  -0.033135   0.115076   0.031954   0.058258
  101  NA 6 XZ   -0.014841  -0.098537   0.023728   0.277557  -0.133767
  102  NA 6 YZ   -0.034942   0.070219  -0.063322   0.203418  -0.063759

                     36         37         38         39         40
                    0.1863     0.1864     0.2078     0.2296     0.2433
                     A          A          A          A          A   
    1  C  1  S   -0.000358   0.026076  -0.000113   0.047899   0.005377
    2  C  1  S    0.001072  -0.076971   0.000216  -0.099434  -0.010484
    3  C  1  X   -0.002441   0.003786  -0.041145  -0.011545   0.069606
    4  C  1  Y   -0.000899   0.003653  -0.017056   0.039365  -0.070178
    5  C  1  Z    0.002425   0.005752   0.045104   0.004349   0.037121
    6  C  1  S    0.003017  -0.221566   0.000404  -0.062802   0.019709
    7  C  1  X   -0.004088  -0.078314  -0.053676   0.235838  -0.087656
    8  C  1  Y    0.000422  -0.179771  -0.023101   0.514235   0.185628
    9  C  1  Z    0.007659  -0.138264   0.057379   0.409703  -0.010070
   10  C  1 XX   -0.007330  -0.002827   0.002506   0.000010  -0.005853
   11  C  1 YY    0.003325  -0.001141   0.001510   0.013510   0.012671
   12  C  1 ZZ    0.004005   0.003968  -0.004017  -0.013520  -0.006818
   13  C  1 XY    0.002728   0.010580   0.002841  -0.024355  -0.006014
   14  C  1 XZ    0.002556  -0.002410   0.000453   0.036621  -0.002229
   15  C  1 YZ   -0.006061   0.007556  -0.001487   0.002562   0.002620
   16  O  2  S    0.000175  -0.012236   0.000070  -0.038696  -0.050165
   17  O  2  S   -0.000347   0.023765  -0.000135   0.076459   0.099399
   18  O  2  X    0.058502  -0.006254  -0.098226   0.038645  -0.013663
   19  O  2  Y    0.023417   0.051559  -0.040290  -0.091615   0.036050
   20  O  2  Z   -0.064162   0.011549   0.107505   0.001384   0.001023
   21  O  2  S   -0.001722   0.124175  -0.000762   0.418705   0.542902
   22  O  2  X    0.079532   0.020141  -0.133421   0.006890   0.022873
   23  O  2  Y    0.032145   0.058783  -0.054927  -0.050925   0.199612
   24  O  2  Z   -0.087966   0.037679   0.146217  -0.012115   0.096107
   25  O  2 XX    0.001879   0.006681   0.000406  -0.003671   0.004892
   26  O  2 YY   -0.004477  -0.011536   0.004417   0.003889  -0.010467
   27  O  2 ZZ    0.002598   0.004855  -0.004823  -0.000218   0.005575
   28  O  2 XY   -0.006048   0.001132   0.006251   0.004165   0.004999
   29  O  2 XZ   -0.002646  -0.000836   0.002279   0.006796   0.006512
   30  O  2 YZ    0.006640  -0.007239  -0.005734   0.009250  -0.000222
   31  O  3  S    0.000036  -0.004069   0.000046  -0.026161  -0.005031
   32  O  3  S   -0.000341   0.027280  -0.000085   0.045404   0.010639
   33  O  3  X    0.000709   0.027635  -0.000517   0.034802  -0.022700
   34  O  3  Y    0.000166   0.012636  -0.000568   0.147798   0.036421
   35  O  3  Z   -0.001494   0.029831   0.000375   0.087710  -0.006983
   36  O  3  S    0.001247  -0.068756  -0.000759   0.412205   0.049953
   37  O  3  X    0.001470   0.009422   0.010355   0.084062   0.011272
   38  O  3  Y    0.001114  -0.041907   0.003539   0.335255   0.030559
   39  O  3  Z   -0.001466  -0.007612  -0.011863   0.203756   0.021889
   40  O  3 XX   -0.001171   0.003175  -0.000595  -0.003682   0.004681
[...]
                   Y-0.179673 0.801000 0.047536 0.153856-0.435057 0.010426
                   Z 0.235393 0.047536 0.471977-0.015255-0.002459-0.103217
  2   O            X-0.169788 0.153856-0.015255 0.192784-0.208792 0.061867
                   Y 0.140957-0.435057-0.002459-0.208792 0.550082 0.003440
                   Z-0.020435 0.010426-0.103217 0.061867 0.003440 0.094749
  3   O            X-0.120485-0.013668-0.054545 0.020896 0.012443 0.008648
                   Y-0.050582-0.167036-0.084348-0.006268-0.076893-0.041290
                   Z-0.068478-0.050596-0.148361 0.001612-0.024127 0.009085
  4   O            X-0.299144 0.071772-0.166316-0.022901 0.060953-0.027817
                   Y 0.085747-0.151836 0.055301 0.063507-0.026001 0.035624
                   Z-0.159887 0.042274-0.218852-0.027169 0.033675 0.020914
  5   H            X 0.011184-0.015125 0.004633 0.001751-0.004081-0.004687
                   Y 0.022609-0.041843 0.004894-0.003990-0.001310-0.006254
                   Z 0.018791-0.029715 0.005927-0.004885-0.006215-0.001339
  6   NA           X 0.006983-0.017061-0.003939-0.022745-0.001469-0.017576
                   Y-0.019071-0.005282-0.020956 0.001662-0.010758-0.001943
                   Z-0.005386-0.019885-0.007463-0.016198-0.004262-0.020196

                                   3                          4
                               O                          O         
                          X        Y        Z        X        Y        Z
  3   O            X 0.287811-0.159697 0.171254-0.025324-0.027540-0.058847
                   Y-0.159697 0.578751 0.059309-0.012734 0.016240-0.015739
                   Z 0.171254 0.059309 0.214119-0.053089-0.029502-0.032347
  4   O            X-0.025324-0.012734-0.053089 0.359066-0.126318 0.248370
                   Y-0.027540 0.016240-0.029502-0.126318 0.188215-0.059561
                   Z-0.058847-0.015739-0.032347 0.248370-0.059561 0.241268
  5   H            X-0.162536 0.226847-0.051253-0.004843 0.000350-0.000448
                   Y 0.186165-0.352343 0.042264 0.002986 0.006533 0.006958
                   Z-0.066608 0.079527-0.043931 0.000582 0.004669-0.002267
  6   NA           X-0.000409 0.002414-0.000092-0.006756 0.004199-0.001948
                   Y 0.002293 0.001272 0.002645 0.003382-0.033164-0.007573
                   Z 0.000051 0.002507 0.001378-0.001664-0.006570-0.008668

                                   5                          6
                               H                          NA        
                          X        Y        Z        X        Y        Z
  5   H            X 0.154272-0.207794 0.051968 0.000204-0.000197-0.000199
                   Y-0.207794 0.389771-0.047449-0.000006-0.000798-0.000429
                   Z 0.051968-0.047449 0.041451 0.000162-0.000815 0.000169
  6   NA           X 0.000204-0.000006 0.000162 0.022722 0.011923 0.023390
                   Y-0.000197-0.000798-0.000815 0.011923 0.048730 0.028638
                   Z-0.000199-0.000429 0.000169 0.023390 0.028638 0.034774

          ------------------------          ----------------
          DIPOLE DERIVATIVE TENSOR          (DEBYE/ANGSTROM)
          ------------------------          ----------------

        ATOM                 MU-X           MU-Y           MU-Z
     C          D/DX     6.294465059   -1.508409009    3.936939767
                D/DY    -1.970532533    9.666591784    1.336762471
                D/DZ     3.763115574    1.761223964    5.476605150
     O          D/DX    -3.452356636    1.397336074   -0.385212166
                D/DY     1.643687828   -6.821905102   -0.146456747
                D/DZ    -0.292806833   -0.374400720   -2.864158596
     O          D/DX    -2.418190514   -1.488118570   -1.181804915
                D/DY    -1.244194965   -4.288393121   -2.102401336
                D/DZ    -1.089325816   -2.326672691   -3.617528669
     O          D/DX    -5.301740829    0.786927181   -2.250026412
                D/DY     0.877605412   -3.728482593    0.344205810
                D/DZ    -2.217367675    0.260473897   -4.444838698
     H          D/DX     1.262932025    0.432008615   -0.170443703
                D/DY     0.349072336    1.324862866    0.204798204
                D/DZ    -0.204068128    0.286019283    1.547929934
     NA         D/DX     3.617730781    0.372547257    0.052355691
                D/DY     0.344631840    3.847700600    0.364140763
                D/DZ     0.041717612    0.390001627    3.899281054

          --------------------------------------------------------
          NORMAL COORDINATE ANALYSIS IN THE HARMONIC APPROXIMATION
          --------------------------------------------------------

          ATOMIC WEIGHTS (AMU)

    1     C                12.00000
    2     O                15.99491
    3     O                15.99491
    4     O                15.99491
    5     H                 1.00782
    6     NA               22.98980

 MODES 1 TO 6 ARE TAKEN AS ROTATIONS AND TRANSLATIONS.

 ANALYZING SYMMETRY OF NORMAL MODES...

     FREQUENCIES IN CM**-1, IR INTENSITIES IN DEBYE**2/AMU-ANGSTROM**2,
     REDUCED MASSES IN AMU.

                          1           2           3           4           5
       FREQUENCY:         9.00        4.53        2.12        0.16        0.02  
        SYMMETRY:         A           A           A           A           A   
    REDUCED MASS:     13.04394    11.85091    11.61378    13.95603    13.98926
    IR INTENSITY:      0.06707     0.19072     0.21931     0.00002     0.00001

  1   C            X -0.00417446 -0.03360255  0.02530524  0.08445256 -0.06971144
                   Y -0.00108864  0.02711825  0.01443120  0.01669445  0.02327778
                   Z  0.00374000 -0.00726855 -0.03625273  0.06731426  0.08091350
  2   O            X -0.10756067  0.03968215 -0.00045737  0.08402301 -0.07028974
                   Y -0.04340483  0.06012804  0.00432262  0.01650401  0.02302753
                   Z  0.12909742  0.04000190  0.01627716  0.06721324  0.08150188
  3   O            X -0.02102738 -0.10820407  0.08425348  0.08535764 -0.07001113
                   Y  0.00297699  0.08896189  0.05682875  0.01669102  0.02311221
                   Z  0.01005285 -0.02710526 -0.12039968  0.06677956  0.08129296
  4   O            X  0.11240369 -0.04366485  0.00112535  0.08408786 -0.06886343
                   Y  0.03914254 -0.05749829 -0.01126744  0.01693704  0.02365840
                   Z -0.12807252 -0.03760670 -0.01790798  0.06786470  0.08000844
  5   H            X  0.06618000 -0.15514470  0.09602322  0.08549715 -0.06944953
                   Y  0.03675146  0.05244919  0.05833411  0.01682010  0.02334922
                   Z -0.09722547 -0.06505321 -0.15074267  0.06693345  0.08071913
  6   NA           X  0.01272119  0.10413782 -0.08019156  0.08276774 -0.06921862
                   Y -0.00163087 -0.07853094 -0.06039883  0.01675143  0.02357955
                   Z -0.00654307  0.02501276  0.11383916  0.06834057  0.08026631

 TRANS. SAYVETZ    X  0.05019447  0.04010080 -0.08483910  7.05661665 -5.84341668
                   Y -0.03407641  0.03786820 -0.35870310  1.40425503  1.96136927
                   Z -0.02634252  0.02701829  0.07831747  5.67505681  6.78123566
               TOTAL  0.06614087  0.06141712  0.37682783  9.16373508  9.16393174

   ROT. SAYVETZ    X  4.85738105 13.40512528 18.27619987  0.05621609 -0.04297794
                   Y  9.96634059  8.95189775-13.30714241 -0.17526032  0.11280040
                   Z  5.49330411-20.25488398  4.77282503  0.14524907  0.02242457
               TOTAL 12.37329728 25.88617743 23.10582999  0.23446475  0.12277580

                          6           7           8           9          10
       FREQUENCY:         0.07      109.90      269.22      351.29      576.78  
        SYMMETRY:         A           A           A           A           A   
    REDUCED MASS:     13.76257    12.11189    12.31401    17.96976     5.41614
    IR INTENSITY:      0.00034     0.80281     0.39672     1.25361     0.31763

  1   C            X  0.00321489  0.03550857 -0.04705751 -0.02544333 -0.05246156
                   Y  0.10585313  0.01532430  0.04550065 -0.04500697  0.04816917
                   Z -0.03009417 -0.03818982 -0.02617681 -0.04152871 -0.02982615
  2   O            X  0.00165755  0.07732870 -0.09612501 -0.01673748  0.03135936
                   Y  0.10521343  0.03279662  0.01531827 -0.04484063  0.10345767
                   Z -0.02780434 -0.08304270 -0.07644997 -0.03307113  0.06792291
  3   O            X  0.00577040 -0.08708045  0.04774171 -0.03202877  0.07693615
                   Y  0.10735531 -0.03352017 -0.05535238 -0.06039477 -0.08524028
                   Z -0.03338776  0.09360020  0.02486474 -0.05076314  0.03855410
  4   O            X  0.00259345  0.07797962 -0.03320560 -0.02852834 -0.06883685
                   Y  0.10520549  0.03066160  0.12178480 -0.03142256 -0.07416212
                   Z -0.02962683 -0.08554331  0.00839789 -0.03902118 -0.09117883
  5   H            X  0.00662569 -0.10439127  0.12238106 -0.02697891  0.25173509
                   Y  0.10761981 -0.04102506  0.00569645 -0.05639152  0.06222904
                   Z -0.03477124  0.11062979  0.10040337 -0.04647973  0.24824123
  6   NA           X -0.00144846 -0.06146917  0.07600340  0.06822404 -0.01108100
                   Y  0.10318112 -0.02707468 -0.08087778  0.12103960  0.01105699
                   Z -0.02418679  0.06723564  0.03930467  0.10917595 -0.00595043

 TRANS. SAYVETZ    X  0.17224799 -0.00097046  0.00094432 -0.00037288  0.00055379
                   Y  8.83358302 -0.00103943 -0.00002025 -0.00007195  0.00011306
                   Z -2.40486370 -0.00043984 -0.00010401 -0.00031656  0.00016378
               TOTAL  9.15670398  0.00148851  0.00095025  0.00049439  0.00058847

   ROT. SAYVETZ    X  0.70403404  0.16134139  0.20557344 -0.06743968  0.01077062
                   Y -0.53747191  0.01765001  0.27363609 -0.05328554  0.01155798
                   Z  0.27372478 -0.31242339  0.08269030  0.11333672  0.00319823
               TOTAL  0.92707348  0.35206667  0.35210060  0.14224160  0.01611899

                         11          12          13          14          15
       FREQUENCY:       581.43      702.52      817.33     1028.33     1237.63  
        SYMMETRY:         A           A           A           A           A   
    REDUCED MASS:      1.10218    12.81641    12.34922    13.47283     1.33902
    IR INTENSITY:      2.46096     0.28442     0.79402     0.61334     3.80012

  1   C            X  0.01601538 -0.01999579 -0.16630938  0.03064026 -0.03323909
                   Y  0.00756552 -0.03640070 -0.06867647  0.06189923  0.02459339
                   Z -0.01856515 -0.03642658  0.18147746  0.04950899 -0.02093777
  2   O            X -0.02339159  0.10448683  0.04640333 -0.06777624  0.01894204
                   Y -0.00876282  0.01119575  0.01969168  0.11960385 -0.05832276
                   Z  0.02467133  0.10049441 -0.04903075 -0.01597652 -0.00469702
  3   O            X  0.04036938 -0.04890217  0.03576007 -0.05120089 -0.06619633
                   Y  0.01593630 -0.09629811  0.01322852 -0.09786324  0.01713582
                   Z -0.04353276 -0.07993145 -0.04144352 -0.08360918 -0.05415086
  4   O            X  0.00893136 -0.02560375  0.04718047  0.09888380  0.04472174
                   Y  0.00421705  0.13454415  0.02067290 -0.05983426 -0.00509657
                   Z -0.01086232  0.02813278 -0.05094478  0.06871543  0.03886299
  5   H            X -0.61619847 -0.04234325 -0.03183878 -0.02647533  0.45351196
                   Y -0.25449281 -0.09322293 -0.01463144 -0.08168445  0.43414921
                   Z  0.67597430 -0.07353913  0.03264516 -0.05653802  0.57929385
  6   NA           X  0.00061090 -0.00856603 -0.00178540 -0.00081887 -0.00075047
                   Y -0.00071973 -0.01131156 -0.00079853 -0.00221297  0.00033569
                   Z  0.00074239 -0.01164138  0.00223323 -0.00184861 -0.00055206

 TRANS. SAYVETZ    X -0.00037641 -0.00001329 -0.00000287  0.00078375  0.00043054
                   Y -0.00005391  0.00000584 -0.00000470  0.00028701  0.00008397
                   Z  0.00012068  0.00001755 -0.00001336  0.00086119  0.00022538
               TOTAL  0.00039894  0.00002278  0.00001445  0.00119929  0.00049316

   ROT. SAYVETZ    X  0.03954230 -0.02709287  0.00587147  0.01239490  0.00296694
                   Y  0.03247793 -0.02156779  0.00429879  0.00944003  0.00350038
                   Z -0.05127410  0.04050810 -0.00225828 -0.01941816  0.00240768
               TOTAL  0.07243923  0.05329259  0.00761929  0.02489604  0.00518192

                         16          17          18
       FREQUENCY:      1438.86     1690.68     3801.07  
        SYMMETRY:         A           A           A   
    REDUCED MASS:     12.94683     6.71749     1.06447
    IR INTENSITY:     12.18457    13.09085     1.01543

  1   C            X  0.11371180 -0.13920350  0.00159202
                   Y  0.13832369  0.18448827 -0.00275423
                   Z  0.15619133 -0.05761433  0.00041030
  2   O            X  0.01742610  0.04488840 -0.00039767
                   Y -0.07410302 -0.08553532  0.00090599
                   Z -0.01196649  0.00866932 -0.00003851
  3   O            X -0.02449431  0.02136607  0.02971594
                   Y -0.03911423 -0.01518217 -0.05094012
                   Z -0.03719615  0.01382603  0.00796616
  4   O            X -0.07807403  0.05086098  0.00043391
                   Y  0.01420633 -0.03202420  0.00036339
                   Z -0.06592673  0.03449101  0.00055451
  5   H            X  0.01912953 -0.14909302 -0.49085611
                   Y  0.00030356 -0.13810263  0.82198036
                   Z  0.01735297 -0.18903267 -0.13889482
  6   NA           X -0.00096076 -0.00227153 -0.00001611
                   Y -0.00334166  0.00210590 -0.00003773
                   Z -0.00221635 -0.00128606 -0.00002844

 TRANS. SAYVETZ    X -0.00010927  0.00032738 -0.00007961
                   Y -0.00030463 -0.00010107  0.00001512
                   Z -0.00001287  0.00004160 -0.00004052
               TOTAL  0.00032389  0.00034514  0.00009060

   ROT. SAYVETZ    X  0.00421868 -0.00048867 -0.00054109
                   Y  0.00354092 -0.00136902 -0.00068137
                   Z -0.00695372  0.00048777 -0.00047342
               TOTAL  0.00887072  0.00153327  0.00099054

 REFERENCE ON SAYVETZ CONDITIONS - A. SAYVETZ, J.CHEM.PHYS., 7, 383-389(1939).

 NOTE - THE MODES J,K ARE ORTHONORMALIZED ACCORDING TO
 SUM ON I   M(I) * (X(I,J)*X(I,K) + Y(I,J)*Y(I,K) + Z(I,J)*Z(I,K)) = DELTA(J,K)

     -------------------------------
     THERMOCHEMISTRY AT T=  298.15 K
     -------------------------------

 USING IDEAL GAS, RIGID ROTOR, HARMONIC NORMAL MODE APPROXIMATIONS.
 P=  1.01325E+05 PASCAL.
 ALL FREQUENCIES ARE SCALED BY   1.00000
 THE MOMENTS OF INERTIA ARE (IN AMU*BOHR**2)
    148.62156   530.51803   679.13926
 THE ROTATIONAL SYMMETRY NUMBER IS  1.0
 THE ROTATIONAL CONSTANTS ARE (IN GHZ)
     12.13208     3.39873     2.65496
 THE HARMONIC ZERO POINT ENERGY IS (SCALED BY   1.000)
        0.028716 HARTREE/MOLECULE     6302.520934 CM**-1/MOLECULE 
       18.019830 KCAL/MOL               75.394967 KJ/MOL

               Q               LN Q
 ELEC.     1.00000E+00       0.000000
 TRANS.    3.02507E+07      17.225031
 ROT.      8.28346E+04      11.324601
 VIB.      4.95225E+00       1.599841
 TOT.      1.24094E+13      30.149473

              E         H         G         CV        CP        S
           KJ/MOL    KJ/MOL    KJ/MOL   J/MOL-K   J/MOL-K   J/MOL-K
 ELEC.      0.000     0.000     0.000     0.000     0.000     0.000
 TRANS.     3.718     6.197   -42.700    12.472    20.786   164.002
 ROT.       3.718     3.718   -28.073    12.472    12.472   106.629
 VIB.      80.963    80.963    71.429    39.760    39.760    31.975
 TOTAL     88.399    90.878     0.656    64.703    73.017   302.606
 VIB. THERMAL CORRECTION E(T)-E(0) = H(T)-H(0) =  5567.537 J/MOL

              E         H         G         CV        CP        S
         KCAL/MOL  KCAL/MOL  KCAL/MOL CAL/MOL-K CAL/MOL-K CAL/MOL-K
 ELEC.      0.000     0.000     0.000     0.000     0.000     0.000
 TRANS.     0.889     1.481   -10.206     2.981     4.968    39.197
 ROT.       0.889     0.889    -6.710     2.981     2.981    25.485
 VIB.      19.351    19.351    17.072     9.503     9.503     7.642
 TOTAL     21.128    21.720     0.157    15.464    17.452    72.325
 VIB. THERMAL CORRECTION E(T)-E(0) = H(T)-H(0) =  1330.673 CAL/MOL
 ......END OF NORMAL COORDINATE ANALYSIS......
 CPU     0: STEP CPU TIME=     0.00 TOTAL CPU TIME=      236.4 (    3.9 MIN)
 TOTAL WALL CLOCK TIME=      238.8 SECONDS, CPU UTILIZATION IS  98.99%

 AN INPUT FILE FOR -PLTORB- HAS BEEN PUNCHED.
               1104104  WORDS OF DYNAMIC MEMORY USED
 EXECUTION OF GAMESS TERMINATED NORMALLY Wed Jun 19 09:16:30 2013
 DDI: 263624 bytes (0.3 MB / 0 MWords) used by master data server.

 ----------------------------------------
 CPU timing information for all processes
 ========================================
 0: 235.702 + 0.912 = 236.614
 1: 238.38 + 0.560 = 238.598
 2: 237.846 + 0.580 = 238.426
 3: 237.734 + 0.572 = 238.306
 4: 237.842 + 0.632 = 238.474
 5: 238.86 + 0.568 = 238.654
 6: 237.914 + 0.736 = 238.650
 7: 237.786 + 0.568 = 238.354
 8: 237.754 + 0.772 = 238.526
 9: 239.994 + 0.160 = 240.155
 10: 239.990 + 0.160 = 240.151
 11: 239.994 + 0.164 = 240.159
 12: 239.918 + 0.160 = 240.79
 13: 239.994 + 0.168 = 240.163
 14: 239.998 + 0.164 = 240.163
 15: 240.06 + 0.156 = 240.163
 16: 240.02 + 0.156 = 240.159
 17: 240.02 + 0.156 = 240.159
 ----------------------------------------
----- accounting info -----
Files used on the master node cherax were:
-rw------- 1 war391 ces  185336 2013-06-19 09:16 /data/flush/batch/war391.119768.cherax.hpsc.csiro.au/BicarbNa1B3LYP-B2Vib.dat
-rw------- 1 war391 ces     657 2013-06-19 09:12 /data/flush/batch/war391.119768.cherax.hpsc.csiro.au/BicarbNa1B3LYP-B2Vib.F05
-rw------- 1 war391 ces 2323120 2013-06-19 09:16 /data/flush/batch/war391.119768.cherax.hpsc.csiro.au/BicarbNa1B3LYP-B2Vib.F10
-rw------- 1 war391 ces 4186144 2013-06-19 09:16 /data/flush/batch/war391.119768.cherax.hpsc.csiro.au/BicarbNa1B3LYP-B2Vib.F22
-rw------- 1 war391 ces 4186144 2013-06-19 09:16 /data/flush/batch/war391.119768.cherax.hpsc.csiro.au/BicarbNa1B3LYP-B2Vib.F22.001
-rw------- 1 war391 ces 4186144 2013-06-19 09:16 /data/flush/batch/war391.119768.cherax.hpsc.csiro.au/BicarbNa1B3LYP-B2Vib.F22.002
-rw------- 1 war391 ces 4186144 2013-06-19 09:16 /data/flush/batch/war391.119768.cherax.hpsc.csiro.au/BicarbNa1B3LYP-B2Vib.F22.003
-rw------- 1 war391 ces 4186144 2013-06-19 09:16 /data/flush/batch/war391.119768.cherax.hpsc.csiro.au/BicarbNa1B3LYP-B2Vib.F22.004
-rw------- 1 war391 ces 4186144 2013-06-19 09:16 /data/flush/batch/war391.119768.cherax.hpsc.csiro.au/BicarbNa1B3LYP-B2Vib.F22.005
-rw------- 1 war391 ces 4186144 2013-06-19 09:16 /data/flush/batch/war391.119768.cherax.hpsc.csiro.au/BicarbNa1B3LYP-B2Vib.F22.006
-rw------- 1 war391 ces 4186144 2013-06-19 09:16 /data/flush/batch/war391.119768.cherax.hpsc.csiro.au/BicarbNa1B3LYP-B2Vib.F22.007
-rw------- 1 war391 ces 4186144 2013-06-19 09:16 /data/flush/batch/war391.119768.cherax.hpsc.csiro.au/BicarbNa1B3LYP-B2Vib.F22.008
-rw------- 1 war391 ces   15167 2013-06-19 09:16 /data/flush/batch/war391.119768.cherax.hpsc.csiro.au/BicarbNa1B3LYP-B2Vib.rst
Wed Jun 19 09:16:36 EST 2013
0.172u 0.132s 4:05.95 0.1%	0+0k 96+1512io 0pf+0w

Begin Torque Epilogue Wed Jun 19 09:16:39 EST 2013
Job ID:     119768.cherax.hpsc.csiro.au
Username:   war391
Group:      ces
Job Name:   ScriptBicarbNa1B3LYP-B2Vib
Session:    1216207
Limits:     neednodes=3:ppn=6,nodes=3:ppn=6,vmem=192gb,walltime=02:00:00
Resources:  cput=01:11:27,mem=501924kb,vmem=127440728kb,walltime=00:04:07
Queue:      batch
Account:    
Exitcode:   0
End Torque Epilogue Wed Jun 19 09:16:39 EST 2013
