----- GAMESS execution script 'rungms' -----
This job is running on host fwnc7111
under operating system Linux at Thu Nov 29 23:39:18 CET 2012
Available scratch disk space (Kbyte units) at beginning of the job is
Filesystem           1K-blocks      Used Available Use% Mounted on
/dev/mapper/vg1-home 309637120 241773772  64718708  79% /home
GAMESS temporary binary files will be written to /home/kml
GAMESS supplementary output files will be written to /home/kml
Copying input file dvb_sp.inp to your run's scratch directory...

 Distributed Data Interface kickoff program.
 Initiating 1 compute processes on 1 nodes to run the following command:
 /usr/local/src/gamess-2012.05.01.r1/gamess.fwnc7111.x dvb_sp 

          ******************************************************
          *         GAMESS VERSION =  1 MAY 2012 (R1)          *
          *             FROM IOWA STATE UNIVERSITY             *
          * M.W.SCHMIDT, K.K.BALDRIDGE, J.A.BOATZ, S.T.ELBERT, *
          *   M.S.GORDON, J.H.JENSEN, S.KOSEKI, N.MATSUNAGA,   *
          *          K.A.NGUYEN, S.J.SU, T.L.WINDUS,           *
          *       TOGETHER WITH M.DUPUIS, J.A.MONTGOMERY       *
          *         J.COMPUT.CHEM.  14, 1347-1363(1993)        *
          **************** 64 BIT LINUX VERSION ****************

  SINCE 1993, STUDENTS AND POSTDOCS WORKING AT IOWA STATE UNIVERSITY
  AND ALSO IN THEIR VARIOUS JOBS AFTER LEAVING ISU HAVE MADE IMPORTANT
  CONTRIBUTIONS TO THE CODE:
     IVANA ADAMOVIC, CHRISTINE AIKENS, YURI ALEXEEV, POOJA ARORA,
     ANDREY ASADCHEV, ROB BELL, PRADIPTA BANDYOPADHYAY, JONATHAN BENTZ,
     BRETT BODE, GALINA CHABAN, WEI CHEN, CHEOL HO CHOI, PAUL DAY,
     ALBERT DEFUSCO, TIM DUDLEY, DMITRI FEDOROV, GRAHAM FLETCHER,
     MARK FREITAG, KURT GLAESEMANN, DAN KEMP, GRANT MERRILL,
     NORIYUKI MINEZAWA, JONATHAN MULLIN, TAKESHI NAGATA,
     SEAN NEDD, HEATHER NETZLOFF, BOSILJKA NJEGIC, RYAN OLSON, MIKE PAK,
     JIM SHOEMAKER, LYUDMILA SLIPCHENKO, SAROM SOK, JIE SONG,
     TETSUYA TAKETSUGU, SIMON WEBB, SOOHAENG YOO, FEDERICO ZAHARIEV

  ADDITIONAL CODE HAS BEEN PROVIDED BY COLLABORATORS IN OTHER GROUPS:
     IOWA STATE UNIVERSITY:
          JOE IVANIC, LAIMUTIS BYTAUTAS, KLAUS RUEDENBERG
     UNIVERSITY OF TOKYO: KIMIHIKO HIRAO, TAKAHITO NAKAJIMA,
          TAKAO TSUNEDA, MUNEAKI KAMIYA, SUSUMU YANAGISAWA,
          KIYOSHI YAGI, MAHITO CHIBA, SEIKEN TOKURA, NAOAKI KAWAKAMI
     UNIVERSITY OF AARHUS: FRANK JENSEN
     UNIVERSITY OF IOWA: VISVALDAS KAIRYS, HUI LI
     NATIONAL INST. OF STANDARDS AND TECHNOLOGY: WALT STEVENS, DAVID GARMER
     UNIVERSITY OF PISA: BENEDETTA MENNUCCI, JACOPO TOMASI
     UNIVERSITY OF MEMPHIS: HENRY KURTZ, PRAKASHAN KORAMBATH
     UNIVERSITY OF ALBERTA: TOBY ZENG, MARIUSZ KLOBUKOWSKI
     UNIVERSITY OF NEW ENGLAND: MARK SPACKMAN
     MIE UNIVERSITY: HIROAKI UMEDA
     MICHIGAN STATE UNIVERSITY:
          KAROL KOWALSKI, MARTA WLOCH, JEFFREY GOUR, JESSE LUTZ, PIOTR PIECUCH
     UNIVERSITY OF SILESIA: MONIKA MUSIAL, STANISLAW KUCHARSKI
     FACULTES UNIVERSITAIRES NOTRE-DAME DE LA PAIX:
          OLIVIER QUINET, BENOIT CHAMPAGNE
     UNIVERSITY OF CALIFORNIA - SANTA BARBARA: BERNARD KIRTMAN
     INSTITUTE FOR MOLECULAR SCIENCE:
          KAZUYA ISHIMURA, MICHIO KATOUDA, AND SHIGERU NAGASE
     UNIVERSITY OF NOTRE DAME: DAN CHIPMAN
     KYUSHU UNIVERSITY:
          HARUYUKI NAKANO,
          FENG LONG GU, JACEK KORCHOWIEC, MARCIN MAKOWSKI, AND YURIKO AOKI,
          HIROTOSHI MORI AND EISAKU MIYOSHI
     PENNSYLVANIA STATE UNIVERSITY:
          TZVETELIN IORDANOV, CHET SWALINA, JONATHAN SKONE,
          SHARON HAMMES-SCHIFFER
     WASEDA UNIVERSITY:
          MASATO KOBAYASHI, TOMOKO AKAMA, TSUGUKI TOUMA,
          TAKESHI YOSHIKAWA, YASUHIRO IKABATA, HIROMI NAKAI
     UNIVERSITY OF NEBRASKA:
          PEIFENG SU, DEJUN SI, NANDUN THELLAMUREGE, YALI WANG, HUI LI
     UNIVERSITY OF ZURICH:
          ROBERTO PEVERATI, KIM BALDRIDGE
     N. COPERNICUS UNIVERSITY AND JACKSON STATE UNIVERSITY:
          MARIA BARYSZ

 EXECUTION OF GAMESS BEGUN Thu Nov 29 23:39:18 2012

            ECHO OF THE FIRST FEW INPUT CARDS -
 INPUT CARD> $CONTRL COORD=PRINAXIS UNITS=ANGS NPRINT=3                                     
 INPUT CARD>         RUNTYP=ENERGY SCFTYP=RHF DFTTYP=B3LYP $END                             
 INPUT CARD> $BASIS  GBASIS=STO NGAUSS=3 $END                                               
 INPUT CARD> $GUESS  GUESS=HUCKEL $END                                                      
 INPUT CARD> $DATA                                                                          
 INPUT CARD>divinylbenzene                                                                  
 INPUT CARD>cnh  2                                                                          
 INPUT CARD>                                                                                
 INPUT CARD> C           6.0  -1.4152533224   0.2302217854   0.0000000000                   
 INPUT CARD> C           6.0   1.4152533224  -0.2302217854   0.0000000000                   
 INPUT CARD> C           6.0  -0.4951331558   1.3144608674   0.0000000000                   
 INPUT CARD> C           6.0   0.4951331558  -1.3144608674   0.0000000000                   
 INPUT CARD> C           6.0   0.8894090436   1.0909493743   0.0000000000                   
 INPUT CARD> C           6.0  -0.8894090436  -1.0909493743   0.0000000000                   
 INPUT CARD> H           1.0  -0.8795511985   2.3437343748   0.0000000000                   
 INPUT CARD> H           1.0   0.8795511985  -2.3437343748   0.0000000000                   
 INPUT CARD> H           1.0   1.5779041557   1.9450061275   0.0000000000                   
 INPUT CARD> H           1.0  -1.5779041557  -1.9450061275   0.0000000000                   
 INPUT CARD> C           6.0   2.8845844962  -0.5210893778   0.0000000000                   
 INPUT CARD> C           6.0  -2.8845844962   0.5210893778   0.0000000000                   
 INPUT CARD> H           1.0   3.1403356810  -1.5919605685   0.0000000000                   
 INPUT CARD> H           1.0  -3.1403356810   1.5919605685   0.0000000000                   
 INPUT CARD> C           6.0   3.8800428103   0.3822535424   0.0000000000                   
 INPUT CARD> C           6.0  -3.8800428103  -0.3822535424   0.0000000000                   
 INPUT CARD> H           1.0   3.6946765858   1.4624389570   0.0000000000                   
 INPUT CARD> H           1.0  -3.6946765858  -1.4624389570   0.0000000000                   
 INPUT CARD> H           1.0   4.9316453546   0.0711049543   0.0000000000                   
 INPUT CARD> H           1.0  -4.9316453546  -0.0711049543   0.0000000000                   
 INPUT CARD> $END                                                                           
    1000000 WORDS OF MEMORY AVAILABLE

     BASIS OPTIONS
     -------------
     GBASIS=STO          IGAUSS=       3      POLAR=NONE    
     NDFUNC=       0     NFFUNC=       0     DIFFSP=       F
     NPFUNC=       0      DIFFS=       F     BASNAM=        


     RUN TITLE
     ---------
 divinylbenzene                                                                  

 THE POINT GROUP OF THE MOLECULE IS CNH     
 THE ORDER OF THE PRINCIPAL AXIS IS     2

 THE MOMENTS OF INERTIA ARE (AMU-ANGSTROM**2)
 IXX=   109.440   IYY=   736.960   IZZ=   846.400

 ATOM      ATOMIC                      COORDINATES (BOHR)
           CHARGE         X                   Y                   Z
 C           6.0     2.6723873767       -0.4474975755        0.0000000000
 C           6.0    -2.6723873767        0.4474975755        0.0000000000
 C           6.0     0.9240960654       -2.4882983238        0.0000000000
 C           6.0    -0.9240960654        2.4882983238        0.0000000000
 C           6.0    -1.6903153450       -2.0537513083        0.0000000000
 C           6.0     1.6903153450        2.0537513083        0.0000000000
 H           1.0     1.6414811999       -4.4367028535        0.0000000000
 H           1.0    -1.6414811999        4.4367028535        0.0000000000
 H           1.0    -2.9988792133       -3.6616122240        0.0000000000
 H           1.0     2.9988792133        3.6616122240        0.0000000000
 C           6.0    -5.4464326291        1.0100734457        0.0000000000
 C           6.0     5.4464326291       -1.0100734457        0.0000000000
 H           1.0    -5.9203094679        3.0359538093        0.0000000000
 H           1.0     5.9203094679       -3.0359538093        0.0000000000
 C           6.0    -7.3354999945       -0.6882242783        0.0000000000
 C           6.0     7.3354999945        0.6882242783        0.0000000000
 H           1.0    -6.9947119163       -2.7310867941        0.0000000000
 H           1.0     6.9947119163        2.7310867941        0.0000000000
 H           1.0    -9.3199827904       -0.0909969393        0.0000000000
 H           1.0     9.3199827904        0.0909969393        0.0000000000

          INTERNUCLEAR DISTANCES (ANGS.)
          ------------------------------

                1 C          2 C          3 C          4 C          5 C     

   1 C       0.0000000    2.8677127 *  1.4220392 *  2.4567501 *  2.4601465 *
   2 C       2.8677127 *  0.0000000    2.4567501 *  1.4220392 *  1.4219724 *
   3 C       1.4220392 *  2.4567501 *  0.0000000    2.8092449 *  1.4024673 *
   4 C       2.4567501 *  1.4220392 *  2.8092449 *  0.0000000    2.4375094 *
   5 C       2.4601465 *  1.4219724 *  1.4024673 *  2.4375094 *  0.0000000  
   6 C       1.4219724 *  2.4601465 *  2.4375094 *  1.4024673 *  2.8151156 *
   7 H       2.1803468 *  3.4483878    1.0987180 *  3.9079598    2.1676463 *
   8 H       3.4483878    2.1803468 *  3.9079598    1.0987180 *  3.4346979  
   9 H       3.4495619    2.1813005 *  2.1668113 *  3.4346060    1.0970134 *
  10 H       2.1813005 *  3.4495619    3.4346060    2.1668113 *  3.9121171  
  11 C       4.3649827    1.4978445 *  3.8460026    2.5177204 *  2.5650329 *
  12 C       1.4978445 *  4.3649827    2.5177204 *  3.8460026    3.8167745  
  13 H       4.9064997    2.1977811 *  4.6544515    2.6597185 *  3.5020960  
  14 H       2.1977811 *  4.9064997    2.6597185 *  4.6544515    4.0607702  
  15 C       5.2974782    2.5397467 *  4.4733852    3.7863509    3.0734574  
  16 C       2.5397467 *  5.2974782    3.7863509    4.4733852    4.9917930  
  17 H       5.2564002    2.8391673 *  4.1924221    4.2365376    2.8297580 *
  18 H       2.8391673 *  5.2564002    4.2365376    4.1924221    5.2472500  
  19 H       6.3488929    3.5292791    5.5673925    4.6478418    4.1689036  
  20 H       3.5292791    6.3488929    4.6478418    5.5673925    5.9359114  

                6 C          7 H          8 H          9 H         10 H     

   1 C       1.4219724 *  2.1803468 *  3.4483878    3.4495619    2.1813005 *
   2 C       2.4601465 *  3.4483878    2.1803468 *  2.1813005 *  3.4495619  
   3 C       2.4375094 *  1.0987180 *  3.9079598    2.1668113 *  3.4346060  
   4 C       1.4024673 *  3.9079598    1.0987180 *  3.4346060    2.1668113 *
   5 C       2.8151156 *  2.1676463 *  3.4346979    1.0970134 *  3.9121171  
   6 C       0.0000000    3.4346979    2.1676463 *  3.9121171    1.0970134 *
   7 H       3.4346979    0.0000000    5.0066760    2.4895925 *  4.3452263  
   8 H       2.1676463 *  5.0066760    0.0000000    4.3452263    2.4895925 *
   9 H       3.9121171    2.4895925 *  4.3452263    0.0000000    5.0091238  
  10 H       1.0970134 *  4.3452263    2.4895925 *  5.0091238    0.0000000  
  11 C       3.8167745    4.7303206    2.7096482 *  2.7908853 *  4.6841588  
  12 C       2.5650329 *  2.7096482 *  4.7303206    4.6841588    2.7908853 *
  13 H       4.0607702    5.6257609    2.3825009 *  3.8666944    4.7314298  
  14 H       3.5020960    2.3825009 *  5.6257609    4.7314298    3.8666944  
  15 C       4.9917930    5.1479260    4.0538821    2.7824518 *  5.9334073  
  16 C       3.0734574    4.0538821    5.1479260    5.9334073    2.7824518 *
  17 H       5.2472500    4.6583518    4.7341194    2.1710819 *  6.2778013  
  18 H       2.8297580 *  4.7341194    4.6583518    6.2778013    2.1710819 *
  19 H       5.9359114    6.2397796    4.7170877    3.8417555    6.8146121  
  20 H       4.1689036    4.7170877    6.2397796    6.8146121    3.8417555  

               11 C         12 C         13 H         14 H         15 C     

   1 C       4.3649827    1.4978445 *  4.9064997    2.1977811 *  5.2974782  
   2 C       1.4978445 *  4.3649827    2.1977811 *  4.9064997    2.5397467 *
   3 C       3.8460026    2.5177204 *  4.6544515    2.6597185 *  4.4733852  
   4 C       2.5177204 *  3.8460026    2.6597185 *  4.6544515    3.7863509  
   5 C       2.5650329 *  3.8167745    3.5020960    4.0607702    3.0734574  
   6 C       3.8167745    2.5650329 *  4.0607702    3.5020960    4.9917930  
   7 H       4.7303206    2.7096482 *  5.6257609    2.3825009 *  5.1479260  
   8 H       2.7096482 *  4.7303206    2.3825009 *  5.6257609    4.0538821  
   9 H       2.7908853 *  4.6841588    3.8666944    4.7314298    2.7824518 *
  10 H       4.6841588    2.7908853 *  4.7314298    3.8666944    5.9334073  
  11 C       0.0000000    5.8625462    1.1009876 *  6.3847195    1.3442342 *
  12 C       5.8625462    0.0000000    6.3847195    1.1009876 *  6.7660519  
  13 H       1.1009876 *  6.3847195    0.0000000    7.0416040    2.1082429 *
  14 H       6.3847195    1.1009876 *  7.0416040    0.0000000    7.1238406  
  15 C       1.3442342 *  6.7660519    2.1082429 *  7.1238406    0.0000000  
  16 C       6.7660519    1.3442342 *  7.1238406    2.1082429 *  7.7976535  
  17 H       2.1425765 *  6.6462633    3.1042955    6.8362394    1.0959750 *
  18 H       6.6462633    2.1425765 *  6.8362394    3.1042955    7.7961057  
  19 H       2.1309980 *  7.8291721    2.4442948 *  8.2140051    1.0966683 *
  20 H       7.8291721    2.1309980 *  8.2140051    2.4442948 *  8.8233430  

               16 C         17 H         18 H         19 H         20 H     

   1 C       2.5397467 *  5.2564002    2.8391673 *  6.3488929    3.5292791  
   2 C       5.2974782    2.8391673 *  5.2564002    3.5292791    6.3488929  
   3 C       3.7863509    4.1924221    4.2365376    5.5673925    4.6478418  
   4 C       4.4733852    4.2365376    4.1924221    4.6478418    5.5673925  
   5 C       4.9917930    2.8297580 *  5.2472500    4.1689036    5.9359114  
   6 C       3.0734574    5.2472500    2.8297580 *  5.9359114    4.1689036  
   7 H       4.0538821    4.6583518    4.7341194    6.2397796    4.7170877  
   8 H       5.1479260    4.7341194    4.6583518    4.7170877    6.2397796  
   9 H       5.9334073    2.1710819 *  6.2778013    3.8417555    6.8146121  
  10 H       2.7824518 *  6.2778013    2.1710819 *  6.8146121    3.8417555  
  11 C       6.7660519    2.1425765 *  6.6462633    2.1309980 *  7.8291721  
  12 C       1.3442342 *  6.6462633    2.1425765 *  7.8291721    2.1309980 *
  13 H       7.1238406    3.1042955    6.8362394    2.4442948 *  8.2140051  
  14 H       2.1082429 *  6.8362394    3.1042955    8.2140051    2.4442948 *
  15 C       7.7976535    1.0959750 *  7.7961057    1.0966683 *  8.8233430  
  16 C       0.0000000    7.7961057    1.0959750 *  8.8233430    1.0966683 *
  17 H       7.7961057    0.0000000    7.9471662    1.8616933 *  8.7615745  
  18 H       1.0959750 *  7.9471662    0.0000000    8.7615745    1.8616933 *
  19 H       8.8233430    1.8616933 *  8.7615745    0.0000000    9.8643159  
  20 H       1.0966683 *  8.7615745    1.8616933 *  9.8643159    0.0000000  

  * ... LESS THAN  3.000


     ATOMIC BASIS SET
     ----------------
 THE CONTRACTED PRIMITIVE FUNCTIONS HAVE BEEN UNNORMALIZED
 THE CONTRACTED BASIS FUNCTIONS ARE NOW NORMALIZED TO UNITY

  SHELL TYPE  PRIMITIVE        EXPONENT          CONTRACTION COEFFICIENT(S)

 C         

      3   S       1            71.6168373    0.154328967295
      3   S       2            13.0450963    0.535328142282
      3   S       3             3.5305122    0.444634542185

      4   L       4             2.9412494   -0.099967229187    0.155916274999
      4   L       5             0.6834831    0.399512826089    0.607683718598
      4   L       6             0.2222899    0.700115468880    0.391957393099

 C         

      7   S       7            71.6168373    0.154328967295
      7   S       8            13.0450963    0.535328142282
      7   S       9             3.5305122    0.444634542185

      8   L      10             2.9412494   -0.099967229187    0.155916274999
      8   L      11             0.6834831    0.399512826089    0.607683718598
      8   L      12             0.2222899    0.700115468880    0.391957393099

 C         

     11   S      13            71.6168373    0.154328967295
     11   S      14            13.0450963    0.535328142282
     11   S      15             3.5305122    0.444634542185

     12   L      16             2.9412494   -0.099967229187    0.155916274999
     12   L      17             0.6834831    0.399512826089    0.607683718598
     12   L      18             0.2222899    0.700115468880    0.391957393099

 H         

     14   S      19             3.4252509    0.154328967295
     14   S      20             0.6239137    0.535328142282
     14   S      21             0.1688554    0.444634542185

 H         

     16   S      22             3.4252509    0.154328967295
     16   S      23             0.6239137    0.535328142282
     16   S      24             0.1688554    0.444634542185

 C         

     19   S      25            71.6168373    0.154328967295
     19   S      26            13.0450963    0.535328142282
     19   S      27             3.5305122    0.444634542185

     20   L      28             2.9412494   -0.099967229187    0.155916274999
     20   L      29             0.6834831    0.399512826089    0.607683718598
     20   L      30             0.2222899    0.700115468880    0.391957393099

 H         

     22   S      31             3.4252509    0.154328967295
     22   S      32             0.6239137    0.535328142282
     22   S      33             0.1688554    0.444634542185

 C         

     25   S      34            71.6168373    0.154328967295
     25   S      35            13.0450963    0.535328142282
     25   S      36             3.5305122    0.444634542185

     26   L      37             2.9412494   -0.099967229187    0.155916274999
     26   L      38             0.6834831    0.399512826089    0.607683718598
     26   L      39             0.2222899    0.700115468880    0.391957393099

 H         

     28   S      40             3.4252509    0.154328967295
     28   S      41             0.6239137    0.535328142282
     28   S      42             0.1688554    0.444634542185

 H         

     30   S      43             3.4252509    0.154328967295
     30   S      44             0.6239137    0.535328142282
     30   S      45             0.1688554    0.444634542185

 TOTAL NUMBER OF BASIS SET SHELLS             =   30
 NUMBER OF CARTESIAN GAUSSIAN BASIS FUNCTIONS =   60
 NUMBER OF ELECTRONS                          =   70
 CHARGE OF MOLECULE                           =    0
 SPIN MULTIPLICITY                            =    1
 NUMBER OF OCCUPIED ORBITALS (ALPHA)          =   35
 NUMBER OF OCCUPIED ORBITALS (BETA )          =   35
 TOTAL NUMBER OF ATOMS                        =   20
 THE NUCLEAR REPULSION ENERGY IS      445.9370123699

     LEBEDEV GRID-BASED DFT OPTIONS
     ------------------------------
     DFTTYP=B3LYP   
     NRAD  =      96     NLEB  =     302
     NRAD0 =      24     NLEB0 =     110
     SWOFF =    5.00E-03 (PURE SCF -> DFT)
     SWITCH=    3.00E-04 (COARSE -> TIGHT GRID)
     THRESH=    0.00E+00 GTHRE=    1.00E+00

 GRIMME'S EMPIRICAL DISPERSION CORRECTION= F

     $CONTRL OPTIONS
     ---------------
 SCFTYP=RHF          RUNTYP=ENERGY       EXETYP=RUN     
 MPLEVL=       0     CITYP =NONE         CCTYP =NONE         VBTYP =NONE    
 DFTTYP=B3LYP        TDDFT =NONE    
 MULT  =       1     ICHARG=       0     NZVAR =       0     COORD =PRINAXIS
 PP    =NONE         RELWFN=NONE         LOCAL =NONE         NUMGRD=       F
 ISPHER=      -1     NOSYM =       0     MAXIT =      30     UNITS =ANGS    
 PLTORB=       F     MOLPLT=       F     AIMPAC=       F     FRIEND=        
 NPRINT=       3     IREST =       0     GEOM  =INPUT   
 NORMF =       0     NORMP =       0     ITOL  =      20     ICUT  =       9
 INTTYP=BEST         GRDTYP=BEST         QMTTOL= 1.0E-06

     $SYSTEM OPTIONS
     ---------------
  REPLICATED MEMORY=     1000000 WORDS (ON EVERY NODE).
 DISTRIBUTED MEMDDI=           0 MILLION WORDS IN AGGREGATE,
 MEMDDI DISTRIBUTED OVER   1 PROCESSORS IS           0 WORDS/PROCESSOR.
 TOTAL MEMORY REQUESTED ON EACH PROCESSOR=     1000000 WORDS.
 TIMLIM=      525600.00 MINUTES, OR     365.0 DAYS.
 PARALL= F  BALTYP=  DLB     KDIAG=    0  COREFL= F
 MXSEQ2=     300 MXSEQ3=     150

          ----------------
          PROPERTIES INPUT
          ----------------

     MOMENTS            FIELD           POTENTIAL          DENSITY
 IEMOM =       1   IEFLD =       0   IEPOT =       0   IEDEN =       0
 WHERE =COMASS     WHERE =NUCLEI     WHERE =NUCLEI     WHERE =NUCLEI  
 OUTPUT=BOTH       OUTPUT=BOTH       OUTPUT=BOTH       OUTPUT=BOTH    
 IEMINT=       0   IEFINT=       0                     IEDINT=       0
                                                       MORB  =       0
          EXTRAPOLATION IN EFFECT
          DIIS IN EFFECT
 ORBITAL PRINTING OPTION: NPREO=     1    60     2     1

     -------------------------------
     INTEGRAL TRANSFORMATION OPTIONS
     -------------------------------
     NWORD  =            0
     CUTOFF = 1.0E-09     MPTRAN =       0
     DIRTRF =       F     AOINTS =DUP     

          ----------------------
          INTEGRAL INPUT OPTIONS
          ----------------------
 NOPK  =       1 NORDER=       0 SCHWRZ=       T

     ------------------------------------------
     THE POINT GROUP IS CNH, NAXIS= 2, ORDER= 4
     ------------------------------------------

     DIMENSIONS OF THE SYMMETRY SUBSPACES ARE
 AG  =   25     AU  =    5     BU  =   25     BG  =    5

 ..... DONE SETTING UP THE RUN .....
 STEP CPU TIME =     0.00 TOTAL CPU TIME =        0.0 (    0.0 MIN)
 TOTAL WALL CLOCK TIME=        0.0 SECONDS, CPU UTILIZATION IS   0.00%

          ********************
          1 ELECTRON INTEGRALS
          ********************
 OVERLAP MATRIX

                      1          2          3          4          5

    1  C  1  S    1.000000
    2  C  1  S    0.248362   1.000000
    3  C  1  X    0.000000   0.000000   1.000000
    4  C  1  Y    0.000000  -0.000000   0.000000   1.000000
    5  C  1  Z    0.000000   0.000000   0.000000   0.000000   1.000000
    6  C  2  S    0.000000   0.000303  -0.000814   0.000136   0.000000
    7  C  2  S    0.000303   0.021870  -0.035244   0.005902   0.000000
    8  C  2  X    0.000814   0.035244  -0.052682   0.010215   0.000000
    9  C  2  Y   -0.000136  -0.005902   0.010215   0.006607   0.000000
   10  C  2  Z    0.000000   0.000000   0.000000   0.000000   0.008318
   11  C  3  S    0.000001   0.035571  -0.038393  -0.044817   0.000000
   12  C  3  S    0.035571   0.353710  -0.247141  -0.288491   0.000000
   13  C  3  X    0.038393   0.247141  -0.020320  -0.262610   0.000000
   14  C  3  Y    0.044817   0.288491  -0.262610  -0.101898   0.000000
   15  C  3  Z    0.000000   0.000000   0.000000   0.000000   0.204650
   16  C  4  S    0.000000   0.001586  -0.002876   0.002347   0.000000
   17  C  4  S    0.001586   0.056188  -0.064682   0.052800   0.000000
   18  C  4  X    0.002876   0.064682  -0.058660   0.066910   0.000000
   19  C  4  Y   -0.002347  -0.052800   0.066910  -0.031311   0.000000
   20  C  4  Z    0.000000   0.000000   0.000000   0.000000   0.023307
   21  C  5  S    0.000000   0.001566  -0.003444  -0.001268   0.000000
   22  C  5  S    0.001566   0.055779  -0.077848  -0.028662   0.000000
   23  C  5  X    0.003444   0.077848  -0.096456  -0.044025   0.000000
   24  C  5  Y    0.001268   0.028662  -0.044025   0.006910   0.000000
   25  C  5  Z    0.000000   0.000000   0.000000   0.000000   0.023119
   26  C  6  S    0.000001   0.035577  -0.021571   0.054940   0.000000
   27  C  6  S    0.035577   0.353743  -0.138843   0.353620   0.000000
   28  C  6  X    0.021571   0.138843   0.133677   0.180827   0.000000
   29  C  6  Y   -0.054940  -0.353620   0.180827  -0.255874   0.000000
   30  C  6  Z    0.000000   0.000000   0.000000   0.000000   0.204675
   31  H  7  S    0.005093   0.093008  -0.030196  -0.116846   0.000000
   32  H  8  S    0.000080   0.005902  -0.006517   0.007378   0.000000
   33  H  9  S    0.000079   0.005884  -0.008541  -0.004840   0.000000
   34  H 10  S    0.005080   0.092845   0.009544   0.120122   0.000000
   35  C 11  S    0.000000   0.000000  -0.000000   0.000000   0.000000
   36  C 11  S    0.000000   0.000260  -0.000566   0.000102   0.000000
   37  C 11  X    0.000000   0.000566  -0.001167   0.000224   0.000000
   38  C 11  Y   -0.000000  -0.000102   0.000224   0.000043   0.000000
   39  C 11  Z    0.000000   0.000000   0.000000   0.000000   0.000083
   40  C 12  S    0.000000   0.029550   0.048306  -0.009796   0.000000
   41  C 12  S    0.029550   0.317606   0.344966  -0.069959   0.000000
   42  C 12  X   -0.048306  -0.344966  -0.300232   0.096966   0.000000
   43  C 12  Y    0.009796   0.069959   0.096966   0.158241   0.000000
   44  C 12  Z    0.000000   0.000000   0.000000   0.000000   0.177906
   45  H 13  S    0.000000   0.000082  -0.000163   0.000066   0.000000
   46  H 14  S    0.004869   0.090067   0.091769  -0.073136   0.000000
   47  C 15  S    0.000000   0.000000  -0.000000  -0.000000   0.000000
   48  C 15  S    0.000000   0.000007  -0.000019  -0.000000   0.000000
   49  C 15  X    0.000000   0.000019  -0.000048  -0.000001   0.000000
   50  C 15  Y    0.000000   0.000000  -0.000001   0.000002   0.000000
   51  C 15  Z    0.000000   0.000000   0.000000   0.000000   0.000002
   52  C 16  S    0.000000   0.001159   0.002722   0.000663   0.000000
   53  C 16  S    0.001159   0.046884   0.069070   0.016822   0.000000
   54  C 16  X   -0.002722  -0.069070  -0.092295  -0.027126   0.000000
   55  C 16  Y   -0.000663  -0.016822  -0.027126   0.012475   0.000000
   56  C 16  Z    0.000000   0.000000   0.000000   0.000000   0.019082
   57  H 17  S    0.000000   0.000024  -0.000053  -0.000013   0.000000
   58  H 18  S    0.000741   0.024680   0.029719   0.021855   0.000000
   59  H 19  S    0.000000   0.000000  -0.000001   0.000000   0.000000
   60  H 20  S    0.000058   0.004808   0.008106   0.000657   0.000000

                      6          7          8          9         10

    6  C  2  S    1.000000
    7  C  2  S    0.248362   1.000000
    8  C  2  X   -0.000000   0.000000   1.000000
    9  C  2  Y   -0.000000   0.000000   0.000000   1.000000
   10  C  2  Z    0.000000   0.000000   0.000000   0.000000   1.000000
   11  C  3  S    0.000000   0.001586   0.002876  -0.002347   0.000000
   12  C  3  S    0.001586   0.056188   0.064682  -0.052800   0.000000
   13  C  3  X   -0.002876  -0.064682  -0.058660   0.066910   0.000000
   14  C  3  Y    0.002347   0.052800   0.066910  -0.031311   0.000000
   15  C  3  Z    0.000000   0.000000   0.000000   0.000000   0.023307
   16  C  4  S    0.000001   0.035571   0.038393   0.044817   0.000000
   17  C  4  S    0.035571   0.353710   0.247141   0.288491   0.000000
   18  C  4  X   -0.038393  -0.247141  -0.020320  -0.262610   0.000000
   19  C  4  Y   -0.044817  -0.288491  -0.262610  -0.101898   0.000000
   20  C  4  Z    0.000000   0.000000   0.000000   0.000000   0.204650
   21  C  5  S    0.000001   0.035577   0.021571  -0.054940   0.000000
   22  C  5  S    0.035577   0.353743   0.138843  -0.353620   0.000000
   23  C  5  X   -0.021571  -0.138843   0.133677   0.180827   0.000000
   24  C  5  Y    0.054940   0.353620   0.180827  -0.255874   0.000000
   25  C  5  Z    0.000000   0.000000   0.000000   0.000000   0.204675
   26  C  6  S    0.000000   0.001566   0.003444   0.001268   0.000000
   27  C  6  S    0.001566   0.055779   0.077848   0.028662   0.000000
   28  C  6  X   -0.003444  -0.077848  -0.096456  -0.044025   0.000000
   29  C  6  Y   -0.001268  -0.028662  -0.044025   0.006910   0.000000
   30  C  6  Z    0.000000   0.000000   0.000000   0.000000   0.023119
   31  H  7  S    0.000080   0.005902   0.006517  -0.007378   0.000000
   32  H  8  S    0.005093   0.093008   0.030196   0.116846   0.000000
   33  H  9  S    0.005080   0.092845  -0.009544  -0.120122   0.000000
   34  H 10  S    0.000079   0.005884   0.008541   0.004840   0.000000
   35  C 11  S    0.000000   0.029550  -0.048306   0.009796   0.000000
   36  C 11  S    0.029550   0.317606  -0.344966   0.069959   0.000000
   37  C 11  X    0.048306   0.344966  -0.300232   0.096966   0.000000
   38  C 11  Y   -0.009796  -0.069959   0.096966   0.158241   0.000000
   39  C 11  Z    0.000000   0.000000   0.000000   0.000000   0.177906
   40  C 12  S    0.000000   0.000000   0.000000  -0.000000   0.000000
   41  C 12  S    0.000000   0.000260   0.000566  -0.000102   0.000000
   42  C 12  X   -0.000000  -0.000566  -0.001167   0.000224   0.000000
   43  C 12  Y    0.000000   0.000102   0.000224   0.000043   0.000000
   44  C 12  Z    0.000000   0.000000   0.000000   0.000000   0.000083
   45  H 13  S    0.004869   0.090067  -0.091769   0.073136   0.000000
   46  H 14  S    0.000000   0.000082   0.000163  -0.000066   0.000000
   47  C 15  S    0.000000   0.001159  -0.002722  -0.000663   0.000000
   48  C 15  S    0.001159   0.046884  -0.069070  -0.016822   0.000000
   49  C 15  X    0.002722   0.069070  -0.092295  -0.027126   0.000000
   50  C 15  Y    0.000663   0.016822  -0.027126   0.012475   0.000000
   51  C 15  Z    0.000000   0.000000   0.000000   0.000000   0.019082
   52  C 16  S    0.000000   0.000000   0.000000   0.000000   0.000000
   53  C 16  S    0.000000   0.000007   0.000019   0.000000   0.000000
   54  C 16  X   -0.000000  -0.000019  -0.000048  -0.000001   0.000000
   55  C 16  Y   -0.000000  -0.000000  -0.000001   0.000002   0.000000
   56  C 16  Z    0.000000   0.000000   0.000000   0.000000   0.000002
   57  H 17  S    0.000741   0.024680  -0.029719  -0.021855   0.000000
   58  H 18  S    0.000000   0.000024   0.000053   0.000013   0.000000
   59  H 19  S    0.000058   0.004808  -0.008106  -0.000657   0.000000
   60  H 20  S    0.000000   0.000000   0.000001  -0.000000   0.000000

                     11         12         13         14         15

   11  C  3  S    1.000000
   12  C  3  S    0.248362   1.000000
   13  C  3  X    0.000000   0.000000   1.000000
   14  C  3  Y   -0.000000   0.000000   0.000000   1.000000
   15  C  3  Z    0.000000   0.000000   0.000000   0.000000   1.000000
   16  C  4  S    0.000000   0.000389  -0.000362   0.000975   0.000000
   17  C  4  S    0.000389   0.025192  -0.014148   0.038096   0.000000
   18  C  4  X    0.000362   0.014148   0.001130   0.023050   0.000000
   19  C  4  Y   -0.000975  -0.038096   0.023050  -0.052376   0.000000
   20  C  4  Z    0.000000   0.000000   0.000000   0.000000   0.009690
   21  C  5  S    0.000001   0.037289  -0.060992   0.010138   0.000000
   22  C  5  S    0.037289   0.363411  -0.381760   0.063453   0.000000
   23  C  5  X    0.060992   0.381760  -0.313316   0.087326   0.000000
   24  C  5  Y   -0.010138  -0.063453   0.087326   0.197560   0.000000
   25  C  5  Z    0.000000   0.000000   0.000000   0.000000   0.212075
   26  C  6  S    0.000000   0.001704   0.000658   0.003901   0.000000
   27  C  6  S    0.001704   0.058556   0.014406   0.085395   0.000000
   28  C  6  X   -0.000658  -0.014406   0.020493  -0.023159   0.000000
   29  C  6  Y   -0.003901  -0.085395  -0.023159  -0.112885   0.000000
   30  C  6  Z    0.000000   0.000000   0.000000   0.000000   0.024399
   31  H  7  S    0.061021   0.485749   0.160411  -0.435673   0.000000
   32  H  8  S    0.000011   0.001755  -0.001100   0.002970   0.000000
   33  H  9  S    0.005272   0.095346  -0.118154  -0.035339   0.000000
   34  H 10  S    0.000084   0.006109   0.003250   0.009633   0.000000
   35  C 11  S    0.000000   0.000002  -0.000007   0.000004   0.000000
   36  C 11  S    0.000002   0.001445  -0.002529   0.001389   0.000000
   37  C 11  X    0.000007   0.002529  -0.004068   0.002498   0.000000
   38  C 11  Y   -0.000004  -0.001389   0.002498  -0.000891   0.000000
   39  C 11  Z    0.000000   0.000000   0.000000   0.000000   0.000480
   40  C 12  S    0.000000   0.001261   0.002873   0.000939   0.000000
   41  C 12  S    0.001261   0.049214   0.070555   0.023063   0.000000
   42  C 12  X   -0.002873  -0.070555  -0.090747  -0.036243   0.000000
   43  C 12  Y   -0.000939  -0.023063  -0.036243   0.008284   0.000000
   44  C 12  Z    0.000000   0.000000   0.000000   0.000000   0.020131
   45  H 13  S    0.000000   0.000188  -0.000301   0.000243   0.000000
   46  H 14  S    0.001315   0.036238   0.051956  -0.005695   0.000000
   47  C 15  S    0.000000   0.000000  -0.000000   0.000000   0.000000
   48  C 15  S    0.000000   0.000177  -0.000391   0.000085   0.000000
   49  C 15  X    0.000000   0.000391  -0.000818   0.000191   0.000000
   50  C 15  Y   -0.000000  -0.000085   0.000191   0.000015   0.000000
   51  C 15  Z    0.000000   0.000000   0.000000   0.000000   0.000057
   52  C 16  S    0.000000   0.000003   0.000010   0.000005   0.000000
   53  C 16  S    0.000003   0.001738   0.003073   0.001523   0.000000
   54  C 16  X   -0.000010  -0.003073  -0.005014  -0.002772   0.000000
   55  C 16  Y   -0.000005  -0.001523  -0.002772  -0.000793   0.000000
   56  C 16  Z    0.000000   0.000000   0.000000   0.000000   0.000581
   57  H 17  S    0.000003   0.000779  -0.001477  -0.000045   0.000000
   58  H 18  S    0.000002   0.000684   0.000992   0.000853   0.000000
   59  H 19  S    0.000000   0.000008  -0.000018   0.000004   0.000000
   60  H 20  S    0.000000   0.000192   0.000377   0.000116   0.000000

                     16         17         18         19         20

   16  C  4  S    1.000000
   17  C  4  S    0.248362   1.000000
   18  C  4  X    0.000000   0.000000   1.000000
   19  C  4  Y    0.000000   0.000000   0.000000   1.000000
   20  C  4  Z    0.000000   0.000000   0.000000   0.000000   1.000000
   21  C  5  S    0.000000   0.001704  -0.000658  -0.003901   0.000000
   22  C  5  S    0.001704   0.058556  -0.014406  -0.085395   0.000000
   23  C  5  X    0.000658   0.014406   0.020493  -0.023159   0.000000
   24  C  5  Y    0.003901   0.085395  -0.023159  -0.112885   0.000000
   25  C  5  Z    0.000000   0.000000   0.000000   0.000000   0.024399
   26  C  6  S    0.000001   0.037289   0.060992  -0.010138   0.000000
   27  C  6  S    0.037289   0.363411   0.381760  -0.063453   0.000000
   28  C  6  X   -0.060992  -0.381760  -0.313316   0.087326   0.000000
   29  C  6  Y    0.010138   0.063453   0.087326   0.197560   0.000000
   30  C  6  Z    0.000000   0.000000   0.000000   0.000000   0.212075
   31  H  7  S    0.000011   0.001755   0.001100  -0.002970   0.000000
   32  H  8  S    0.061021   0.485749  -0.160411   0.435673   0.000000
   33  H  9  S    0.000084   0.006109  -0.003250  -0.009633   0.000000
   34  H 10  S    0.005272   0.095346   0.118154   0.035339   0.000000
   35  C 11  S    0.000000   0.001261  -0.002873  -0.000939   0.000000
   36  C 11  S    0.001261   0.049214  -0.070555  -0.023063   0.000000
   37  C 11  X    0.002873   0.070555  -0.090747  -0.036243   0.000000
   38  C 11  Y    0.000939   0.023063  -0.036243   0.008284   0.000000
   39  C 11  Z    0.000000   0.000000   0.000000   0.000000   0.020131
   40  C 12  S    0.000000   0.000002   0.000007  -0.000004   0.000000
   41  C 12  S    0.000002   0.001445   0.002529  -0.001389   0.000000
   42  C 12  X   -0.000007  -0.002529  -0.004068   0.002498   0.000000
   43  C 12  Y    0.000004   0.001389   0.002498  -0.000891   0.000000
   44  C 12  Z    0.000000   0.000000   0.000000   0.000000   0.000480
   45  H 13  S    0.001315   0.036238  -0.051956   0.005695   0.000000
   46  H 14  S    0.000000   0.000188   0.000301  -0.000243   0.000000
   47  C 15  S    0.000000   0.000003  -0.000010  -0.000005   0.000000
   48  C 15  S    0.000003   0.001738  -0.003073  -0.001523   0.000000
   49  C 15  X    0.000010   0.003073  -0.005014  -0.002772   0.000000
   50  C 15  Y    0.000005   0.001523  -0.002772  -0.000793   0.000000
   51  C 15  Z    0.000000   0.000000   0.000000   0.000000   0.000581
   52  C 16  S    0.000000   0.000000   0.000000  -0.000000   0.000000
   53  C 16  S    0.000000   0.000177   0.000391  -0.000085   0.000000
   54  C 16  X   -0.000000  -0.000391  -0.000818   0.000191   0.000000
   55  C 16  Y    0.000000   0.000085   0.000191   0.000015   0.000000
   56  C 16  Z    0.000000   0.000000   0.000000   0.000000   0.000057
   57  H 17  S    0.000002   0.000684  -0.000992  -0.000853   0.000000
   58  H 18  S    0.000003   0.000779   0.001477   0.000045   0.000000
   59  H 19  S    0.000000   0.000192  -0.000377  -0.000116   0.000000
   60  H 20  S    0.000000   0.000008   0.000018  -0.000004   0.000000

                     21         22         23         24         25

   21  C  5  S    1.000000
   22  C  5  S    0.248362   1.000000
   23  C  5  X    0.000000   0.000000   1.000000
   24  C  5  Y    0.000000   0.000000   0.000000   1.000000
   25  C  5  Z    0.000000   0.000000   0.000000   0.000000   1.000000
   26  C  6  S    0.000000   0.000380   0.000646   0.000785   0.000000
   27  C  6  S    0.000380   0.024839   0.025497   0.030979   0.000000
   28  C  6  X   -0.000646  -0.025497  -0.018643  -0.034247   0.000000
   29  C  6  Y   -0.000785  -0.030979  -0.034247  -0.032067   0.000000
   30  C  6  Z    0.000000   0.000000   0.000000   0.000000   0.009544
   31  H  7  S    0.005261   0.095200   0.100177  -0.071648   0.000000
   32  H  8  S    0.000084   0.006108   0.000076   0.010164   0.000000
   33  H  9  S    0.061264   0.486726  -0.293429  -0.360542   0.000000
   34  H 10  S    0.000011   0.001735   0.001988   0.002422   0.000000
   35  C 11  S    0.000000   0.001051  -0.001988   0.001622   0.000000
   36  C 11  S    0.001051   0.044325  -0.052396   0.042739   0.000000
   37  C 11  X    0.001988   0.052396  -0.049742   0.055207   0.000000
   38  C 11  Y   -0.001622  -0.042739   0.055207  -0.027093   0.000000
   39  C 11  Z    0.000000   0.000000   0.000000   0.000000   0.017940
   40  C 12  S    0.000000   0.000003   0.000009   0.000001   0.000000
   41  C 12  S    0.000003   0.001582   0.003108   0.000455   0.000000
   42  C 12  X   -0.000009  -0.003108  -0.005753  -0.000918   0.000000
   43  C 12  Y   -0.000001  -0.000455  -0.000918   0.000393   0.000000
   44  C 12  Z    0.000000   0.000000   0.000000   0.000000   0.000527
   45  H 13  S    0.000064   0.005153  -0.005545   0.006672   0.000000
   46  H 14  S    0.000006   0.001141   0.002098  -0.000271   0.000000
   47  C 15  S    0.000000   0.000120  -0.000341   0.000082   0.000000
   48  C 15  S    0.000120   0.013048  -0.021653   0.005238   0.000000
   49  C 15  X    0.000341   0.021653  -0.033403   0.009237   0.000000
   50  C 15  Y   -0.000082  -0.005238   0.009237   0.002549   0.000000
   51  C 15  Z    0.000000   0.000000   0.000000   0.000000   0.004783
   52  C 16  S    0.000000   0.000000   0.000000   0.000000   0.000000
   53  C 16  S    0.000000   0.000025   0.000060   0.000018   0.000000
   54  C 16  X   -0.000000  -0.000060  -0.000136  -0.000044   0.000000
   55  C 16  Y   -0.000000  -0.000018  -0.000044  -0.000005   0.000000
   56  C 16  Z    0.000000   0.000000   0.000000   0.000000   0.000008
   57  H 17  S    0.000764   0.025192  -0.037285  -0.004761   0.000000
   58  H 18  S    0.000000   0.000025   0.000050   0.000027   0.000000
   59  H 19  S    0.000003   0.000835  -0.001527   0.000393   0.000000
   60  H 20  S    0.000000   0.000002   0.000004   0.000001   0.000000

                     26         27         28         29         30

   26  C  6  S    1.000000
   27  C  6  S    0.248362   1.000000
   28  C  6  X    0.000000   0.000000   1.000000
   29  C  6  Y   -0.000000   0.000000   0.000000   1.000000
   30  C  6  Z    0.000000   0.000000   0.000000   0.000000   1.000000
   31  H  7  S    0.000084   0.006108  -0.000076  -0.010164   0.000000
   32  H  8  S    0.005261   0.095200  -0.100177   0.071648   0.000000
   33  H  9  S    0.000011   0.001735  -0.001988  -0.002422   0.000000
   34  H 10  S    0.061264   0.486726   0.293429   0.360542   0.000000
   35  C 11  S    0.000000   0.000003  -0.000009  -0.000001   0.000000
   36  C 11  S    0.000003   0.001582  -0.003108  -0.000455   0.000000
   37  C 11  X    0.000009   0.003108  -0.005753  -0.000918   0.000000
   38  C 11  Y    0.000001   0.000455  -0.000918   0.000393   0.000000
   39  C 11  Z    0.000000   0.000000   0.000000   0.000000   0.000527
   40  C 12  S    0.000000   0.001051   0.001988  -0.001622   0.000000
   41  C 12  S    0.001051   0.044325   0.052396  -0.042739   0.000000
   42  C 12  X   -0.001988  -0.052396  -0.049742   0.055207   0.000000
   43  C 12  Y    0.001622   0.042739   0.055207  -0.027093   0.000000
   44  C 12  Z    0.000000   0.000000   0.000000   0.000000   0.017940
   45  H 13  S    0.000006   0.001141  -0.002098   0.000271   0.000000
   46  H 14  S    0.000064   0.005153   0.005545  -0.006672   0.000000
   47  C 15  S    0.000000   0.000000  -0.000000  -0.000000   0.000000
   48  C 15  S    0.000000   0.000025  -0.000060  -0.000018   0.000000
   49  C 15  X    0.000000   0.000060  -0.000136  -0.000044   0.000000
   50  C 15  Y    0.000000   0.000018  -0.000044  -0.000005   0.000000
   51  C 15  Z    0.000000   0.000000   0.000000   0.000000   0.000008
   52  C 16  S    0.000000   0.000120   0.000341  -0.000082   0.000000
   53  C 16  S    0.000120   0.013048   0.021653  -0.005238   0.000000
   54  C 16  X   -0.000341  -0.021653  -0.033403   0.009237   0.000000
   55  C 16  Y    0.000082   0.005238   0.009237   0.002549   0.000000
   56  C 16  Z    0.000000   0.000000   0.000000   0.000000   0.004783
   57  H 17  S    0.000000   0.000025  -0.000050  -0.000027   0.000000
   58  H 18  S    0.000764   0.025192   0.037285   0.004761   0.000000
   59  H 19  S    0.000000   0.000002  -0.000004  -0.000001   0.000000
   60  H 20  S    0.000003   0.000835   0.001527  -0.000393   0.000000

                     31         32         33         34         35

   31  H  7  S    1.000000
   32  H  8  S    0.000106   1.000000
   33  H  9  S    0.050494   0.000712   1.000000
   34  H 10  S    0.000712   0.050494   0.000105   1.000000
   35  C 11  S    0.000000   0.001125   0.000868   0.000000   1.000000
   36  C 11  S    0.000147   0.032620   0.027412   0.000170   0.248362
   37  C 11  X    0.000243   0.035318   0.018838   0.000337   0.000000
   38  C 11  Y   -0.000186   0.031806  -0.035956   0.000106   0.000000
   39  C 11  Z    0.000000   0.000000   0.000000   0.000000   0.000000
   40  C 12  S    0.001125   0.000000   0.000000   0.000868   0.000000
   41  C 12  S    0.032620   0.000147   0.000170   0.027412   0.000000
   42  C 12  X   -0.035318  -0.000243  -0.000337  -0.018838  -0.000000
   43  C 12  Y   -0.031806   0.000186  -0.000106   0.035956   0.000000
   44  C 12  Z    0.000000   0.000000   0.000000   0.000000   0.000000
   45  H 13  S    0.000014   0.061526   0.002479   0.000240   0.060698
   46  H 14  S    0.061526   0.000014   0.000240   0.002479   0.000000
   47  C 15  S    0.000000   0.000006   0.000892   0.000000   0.000002
   48  C 15  S    0.000035   0.001164   0.027916   0.000002   0.042836
   49  C 15  X    0.000073   0.001602   0.034037   0.000004   0.052826
   50  C 15  Y   -0.000031   0.001442  -0.023337   0.000002   0.047492
   51  C 15  Z    0.000000   0.000000   0.000000   0.000000   0.000000
   52  C 16  S    0.000006   0.000000   0.000000   0.000892   0.000000
   53  C 16  S    0.001164   0.000035   0.000002   0.027916   0.000000
   54  C 16  X   -0.001602  -0.000073  -0.000004  -0.034037  -0.000000
   55  C 16  Y   -0.001442   0.000031  -0.000002   0.023337   0.000000
   56  C 16  Z    0.000000   0.000000   0.000000   0.000000   0.000000
   57  H 17  S    0.000297   0.000238   0.089436   0.000001   0.005606
   58  H 18  S    0.000238   0.000297   0.000001   0.089436   0.000000
   59  H 19  S    0.000002   0.000251   0.002637   0.000000   0.005772
   60  H 20  S    0.000251   0.000002   0.000000   0.002637   0.000000

                     36         37         38         39         40

   36  C 11  S    1.000000
   37  C 11  X    0.000000   1.000000
   38  C 11  Y    0.000000   0.000000   1.000000
   39  C 11  Z    0.000000   0.000000   0.000000   1.000000
   40  C 12  S    0.000000   0.000000  -0.000000   0.000000   1.000000
   41  C 12  S    0.000001   0.000002  -0.000000   0.000000   0.248362
   42  C 12  X   -0.000002  -0.000005   0.000001   0.000000  -0.000000
   43  C 12  Y    0.000000   0.000001   0.000000   0.000000  -0.000000
   44  C 12  Z    0.000000   0.000000   0.000000   0.000000   0.000000
   45  H 13  S    0.484450  -0.105563   0.451294   0.000000   0.000000
   46  H 14  S    0.000000   0.000001  -0.000000   0.000000   0.060698
   47  C 15  S    0.042836  -0.052826  -0.047492   0.000000   0.000000
   48  C 15  S    0.393154  -0.303283  -0.272656   0.000000   0.000000
   49  C 15  X    0.303283  -0.076287  -0.280289   0.000000   0.000000
   50  C 15  Y    0.272656  -0.280289  -0.016497   0.000000  -0.000000
   51  C 15  Z    0.000000   0.000000   0.000000   0.235487   0.000000
   52  C 16  S    0.000000   0.000000  -0.000000   0.000000   0.000002
   53  C 16  S    0.000000   0.000000  -0.000000   0.000000   0.042836
   54  C 16  X   -0.000000  -0.000000   0.000000   0.000000  -0.052826
   55  C 16  Y    0.000000   0.000000   0.000000   0.000000  -0.047492
   56  C 16  Z    0.000000   0.000000   0.000000   0.000000   0.000000
   57  H 17  S    0.099656  -0.049010  -0.118424   0.000000   0.000000
   58  H 18  S    0.000000   0.000000   0.000000   0.000000   0.005606
   59  H 19  S    0.101772  -0.125554  -0.035689   0.000000   0.000000
   60  H 20  S    0.000000   0.000000  -0.000000   0.000000   0.005772

                     41         42         43         44         45

   41  C 12  S    1.000000
   42  C 12  X   -0.000000   1.000000
   43  C 12  Y    0.000000   0.000000   1.000000
   44  C 12  Z    0.000000   0.000000   0.000000   1.000000
   45  H 13  S    0.000000  -0.000001   0.000000   0.000000   1.000000
   46  H 14  S    0.484450   0.105563  -0.451294   0.000000   0.000000
   47  C 15  S    0.000000  -0.000000   0.000000   0.000000   0.006110
   48  C 15  S    0.000000  -0.000000   0.000000   0.000000   0.106040
   49  C 15  X    0.000000  -0.000000   0.000000   0.000000   0.048049
   50  C 15  Y   -0.000000   0.000000   0.000000   0.000000   0.126445
   51  C 15  Z    0.000000   0.000000   0.000000   0.000000   0.000000
   52  C 16  S    0.042836   0.052826   0.047492   0.000000   0.000000
   53  C 16  S    0.393154   0.303283   0.272656   0.000000   0.000000
   54  C 16  X   -0.303283  -0.076287  -0.280289   0.000000  -0.000000
   55  C 16  Y   -0.272656  -0.280289  -0.016497   0.000000   0.000000
   56  C 16  Z    0.000000   0.000000   0.000000   0.235487   0.000000
   57  H 17  S    0.000000  -0.000000  -0.000000   0.000000   0.014616
   58  H 18  S    0.099656   0.049010   0.118424   0.000000   0.000000
   59  H 19  S    0.000000  -0.000000   0.000000   0.000000   0.054933
   60  H 20  S    0.101772   0.125554   0.035689   0.000000   0.000000

                     46         47         48         49         50

   46  H 14  S    1.000000
   47  C 15  S    0.000000   1.000000
   48  C 15  S    0.000000   0.248362   1.000000
   49  C 15  X    0.000000  -0.000000   0.000000   1.000000
   50  C 15  Y   -0.000000   0.000000   0.000000  -0.000000   1.000000
   51  C 15  Z    0.000000   0.000000   0.000000   0.000000   0.000000
   52  C 16  S    0.006110   0.000000   0.000000   0.000000   0.000000
   53  C 16  S    0.106040   0.000000   0.000000   0.000000   0.000000
   54  C 16  X   -0.048049  -0.000000  -0.000000  -0.000000  -0.000000
   55  C 16  Y   -0.126445  -0.000000  -0.000000  -0.000000   0.000000
   56  C 16  Z    0.000000   0.000000   0.000000   0.000000   0.000000
   57  H 17  S    0.000000   0.061413   0.487322   0.076549  -0.458875
   58  H 18  S    0.014616   0.000000   0.000000   0.000000   0.000000
   59  H 19  S    0.000000   0.061313   0.486924  -0.445250   0.133997
   60  H 20  S    0.054933   0.000000   0.000000   0.000000   0.000000

                     51         52         53         54         55

   51  C 15  Z    1.000000
   52  C 16  S    0.000000   1.000000
   53  C 16  S    0.000000   0.248362   1.000000
   54  C 16  X    0.000000   0.000000  -0.000000   1.000000
   55  C 16  Y    0.000000   0.000000   0.000000   0.000000   1.000000
   56  C 16  Z    0.000000   0.000000   0.000000   0.000000   0.000000
   57  H 17  S    0.000000   0.000000   0.000000  -0.000000  -0.000000
   58  H 18  S    0.000000   0.061413   0.487322  -0.076549   0.458875
   59  H 19  S    0.000000   0.000000   0.000000  -0.000000  -0.000000
   60  H 20  S    0.000000   0.061313   0.486924   0.445250  -0.133997

                     56         57         58         59         60

   56  C 16  Z    1.000000
   57  H 17  S    0.000000   1.000000
   58  H 18  S    0.000000   0.000000   1.000000
   59  H 19  S    0.000000   0.148966   0.000000   1.000000
   60  H 20  S    0.000000   0.000000   0.148966   0.000000   1.000000
 BARE NUCLEUS HAMILTONIAN INTEGRALS (H=T+V)

                      1          2          3          4          5

    1  C  1  S  -32.275182
    2  C  1  S   -7.882742 -19.197697
    3  C  1  X    0.047389   0.544072 -18.515179
    4  C  1  Y   -0.012896  -0.149512   0.014416 -18.330552
    5  C  1  Z    0.000000   0.000000   0.000000   0.000000 -17.590216
    6  C  2  S    0.000000  -0.009813   0.026302  -0.004403   0.000000
    7  C  2  S   -0.009813  -0.423291   0.678764  -0.113715   0.000000
    8  C  2  X   -0.026302  -0.678764   1.006757  -0.196278   0.000000
    9  C  2  Y    0.004403   0.113715  -0.196278  -0.130910   0.000000
   10  C  2  Z    0.000000   0.000000   0.000000   0.000000  -0.145320
   11  C  3  S   -0.000035  -1.109053   1.198356   1.394769   0.000000
   12  C  3  S   -1.136956  -6.733941   4.820755   5.304597   0.000000
   13  C  3  X   -1.225330  -4.576045   0.465839   4.633224   0.000000
   14  C  3  Y   -1.432707  -5.700177   5.104286   2.061108   0.000000
   15  C  3  Z    0.000000   0.000000   0.000000   0.000000  -3.522530
   16  C  4  S   -0.000000  -0.049933   0.090262  -0.073589   0.000000
   17  C  4  S   -0.051135  -1.090547   1.245936  -1.022713   0.000000
   18  C  4  X   -0.092416  -1.257157   1.132916  -1.294412   0.000000
   19  C  4  Y    0.075470   1.022636  -1.282425   0.613409   0.000000
   20  C  4  Z    0.000000   0.000000   0.000000   0.000000  -0.403719
   21  C  5  S   -0.000000  -0.049451   0.108413   0.039839   0.000000
   22  C  5  S   -0.050473  -1.081103   1.500706   0.555063   0.000000
   23  C  5  X   -0.110663  -1.508558   1.858973   0.851062   0.000000
   24  C  5  Y   -0.040779  -0.554176   0.844443  -0.123226   0.000000
   25  C  5  Z    0.000000   0.000000   0.000000   0.000000  -0.399949
   26  C  6  S   -0.000035  -1.113346   0.676897  -1.717395   0.000000
   27  C  6  S   -1.137676  -6.770314   2.808847  -6.647768   0.000000
   28  C  6  X   -0.688157  -2.489443  -2.397656  -3.145385   0.000000
   29  C  6  Y    1.756396   6.906386  -3.562175   4.940718   0.000000
   30  C  6  Z    0.000000   0.000000   0.000000   0.000000  -3.541827
   31  H  7  S   -0.162723  -1.632197   0.597784   1.952585   0.000000
   32  H  8  S   -0.002582  -0.113254   0.125067  -0.139029   0.000000
   33  H  9  S   -0.002568  -0.112743   0.163103   0.090181   0.000000
   34  H 10  S   -0.162426  -1.650267  -0.082039  -2.069964   0.000000
   35  C 11  S    0.000000  -0.000003   0.000011  -0.000002   0.000000
   36  C 11  S   -0.000003  -0.005319   0.011539  -0.002065   0.000000
   37  C 11  X   -0.000012  -0.011455   0.023514  -0.004514   0.000000
   38  C 11  Y    0.000002   0.002064  -0.004545  -0.000865   0.000000
   39  C 11  Z    0.000000   0.000000   0.000000   0.000000  -0.001492
   40  C 12  S   -0.000009  -0.879020  -1.436250   0.290297   0.000000
   41  C 12  S   -0.940791  -5.718015  -6.048041   1.186338   0.000000
   42  C 12  X    1.537472   6.330447   5.294350  -1.656010   0.000000
   43  C 12  Y   -0.311907  -1.342848  -1.763361  -2.625892   0.000000
   44  C 12  Z    0.000000   0.000000   0.000000   0.000000  -2.895991
   45  H 13  S   -0.000002  -0.001639   0.003246  -0.001305   0.000000
   46  H 14  S   -0.155169  -1.519986  -1.506339   1.144985   0.000000
   47  C 15  S    0.000000  -0.000000   0.000000   0.000000   0.000000
   48  C 15  S   -0.000000  -0.000150   0.000392   0.000007   0.000000
   49  C 15  X   -0.000000  -0.000397   0.000992   0.000020   0.000000
   50  C 15  Y   -0.000000  -0.000012   0.000032  -0.000045   0.000000
   51  C 15  Z    0.000000   0.000000   0.000000   0.000000  -0.000041
   52  C 16  S   -0.000000  -0.032662  -0.076407  -0.018586   0.000000
   53  C 16  S   -0.037074  -0.809998  -1.176800  -0.263845   0.000000
   54  C 16  X    0.086911   1.202081   1.581781   0.431282   0.000000
   55  C 16  Y    0.021150   0.319229   0.503982  -0.197920   0.000000
   56  C 16  Z    0.000000   0.000000   0.000000   0.000000  -0.293357
   57  H 17  S   -0.000000  -0.000481   0.001057   0.000241   0.000000
   58  H 18  S   -0.023679  -0.405552  -0.473428  -0.337638   0.000000
   59  H 19  S   -0.000000  -0.000006   0.000017  -0.000001   0.000000
   60  H 20  S   -0.001845  -0.082289  -0.136151  -0.010207   0.000000

                      6          7          8          9         10

    6  C  2  S  -32.275182
    7  C  2  S   -7.882742 -19.197697
    8  C  2  X   -0.047389  -0.544072 -18.515179
    9  C  2  Y    0.012896   0.149512   0.014416 -18.330552
   10  C  2  Z    0.000000   0.000000   0.000000   0.000000 -17.590216
   11  C  3  S   -0.000000  -0.049933  -0.090262   0.073589   0.000000
   12  C  3  S   -0.051135  -1.090547  -1.245936   1.022713   0.000000
   13  C  3  X    0.092416   1.257157   1.132916  -1.294412   0.000000
   14  C  3  Y   -0.075470  -1.022636  -1.282425   0.613409   0.000000
   15  C  3  Z    0.000000   0.000000   0.000000   0.000000  -0.403719
   16  C  4  S   -0.000035  -1.109053  -1.198356  -1.394769   0.000000
   17  C  4  S   -1.136956  -6.733941  -4.820755  -5.304597   0.000000
   18  C  4  X    1.225330   4.576045   0.465839   4.633224   0.000000
   19  C  4  Y    1.432707   5.700177   5.104286   2.061108   0.000000
   20  C  4  Z    0.000000   0.000000   0.000000   0.000000  -3.522530
   21  C  5  S   -0.000035  -1.113346  -0.676897   1.717395   0.000000
   22  C  5  S   -1.137676  -6.770314  -2.808847   6.647768   0.000000
   23  C  5  X    0.688157   2.489443  -2.397656  -3.145385   0.000000
   24  C  5  Y   -1.756396  -6.906386  -3.562175   4.940718   0.000000
   25  C  5  Z    0.000000   0.000000   0.000000   0.000000  -3.541827
   26  C  6  S   -0.000000  -0.049451  -0.108413  -0.039839   0.000000
   27  C  6  S   -0.050473  -1.081103  -1.500706  -0.555063   0.000000
   28  C  6  X    0.110663   1.508558   1.858973   0.851062   0.000000
   29  C  6  Y    0.040779   0.554176   0.844443  -0.123226   0.000000
   30  C  6  Z    0.000000   0.000000   0.000000   0.000000  -0.399949
   31  H  7  S   -0.002582  -0.113254  -0.125067   0.139029   0.000000
   32  H  8  S   -0.162723  -1.632197  -0.597784  -1.952585   0.000000
   33  H  9  S   -0.162426  -1.650267   0.082039   2.069964   0.000000
   34  H 10  S   -0.002568  -0.112743  -0.163103  -0.090181   0.000000
   35  C 11  S   -0.000009  -0.879020   1.436250  -0.290297   0.000000
   36  C 11  S   -0.940791  -5.718015   6.048041  -1.186338   0.000000
   37  C 11  X   -1.537472  -6.330447   5.294350  -1.656010   0.000000
   38  C 11  Y    0.311907   1.342848  -1.763361  -2.625892   0.000000
   39  C 11  Z    0.000000   0.000000   0.000000   0.000000  -2.895991
   40  C 12  S    0.000000  -0.000003  -0.000011   0.000002   0.000000
   41  C 12  S   -0.000003  -0.005319  -0.011539   0.002065   0.000000
   42  C 12  X    0.000012   0.011455   0.023514  -0.004514   0.000000
   43  C 12  Y   -0.000002  -0.002064  -0.004545  -0.000865   0.000000
   44  C 12  Z    0.000000   0.000000   0.000000   0.000000  -0.001492
   45  H 13  S   -0.155169  -1.519986   1.506339  -1.144985   0.000000
   46  H 14  S   -0.000002  -0.001639  -0.003246   0.001305   0.000000
   47  C 15  S   -0.000000  -0.032662   0.076407   0.018586   0.000000
   48  C 15  S   -0.037074  -0.809998   1.176800   0.263845   0.000000
   49  C 15  X   -0.086911  -1.202081   1.581781   0.431282   0.000000
   50  C 15  Y   -0.021150  -0.319229   0.503982  -0.197920   0.000000
   51  C 15  Z    0.000000   0.000000   0.000000   0.000000  -0.293357
   52  C 16  S    0.000000  -0.000000  -0.000000  -0.000000   0.000000
   53  C 16  S   -0.000000  -0.000150  -0.000392  -0.000007   0.000000
   54  C 16  X    0.000000   0.000397   0.000992   0.000020   0.000000
   55  C 16  Y    0.000000   0.000012   0.000032  -0.000045   0.000000
   56  C 16  Z    0.000000   0.000000   0.000000   0.000000  -0.000041
   57  H 17  S   -0.023679  -0.405552   0.473428   0.337638   0.000000
   58  H 18  S   -0.000000  -0.000481  -0.001057  -0.000241   0.000000
   59  H 19  S   -0.001845  -0.082289   0.136151   0.010207   0.000000
   60  H 20  S   -0.000000  -0.000006  -0.000017   0.000001   0.000000

                     11         12         13         14         15

   11  C  3  S  -31.406452
   12  C  3  S   -7.666982 -18.322458
   13  C  3  X    0.022740   0.262780 -17.651068
   14  C  3  Y   -0.104673  -1.221382  -0.076594 -17.372067
   15  C  3  Z    0.000000   0.000000   0.000000   0.000000 -16.791588
   16  C  4  S    0.000000  -0.012335   0.011433  -0.030774   0.000000
   17  C  4  S   -0.012335  -0.486422   0.271542  -0.731808   0.000000
   18  C  4  X   -0.011433  -0.271542  -0.028365  -0.441145   0.000000
   19  C  4  Y    0.030774   0.731808  -0.441145   0.999282   0.000000
   20  C  4  Z    0.000000   0.000000   0.000000   0.000000  -0.168690
   21  C  5  S   -0.000048  -1.164525   1.903124  -0.319653   0.000000
   22  C  5  S   -1.160782  -6.764619   7.065935  -1.509751   0.000000
   23  C  5  X   -1.898082  -7.156275   5.807746  -1.929682   0.000000
   24  C  5  Y    0.312078   0.855649  -1.232913  -3.427111   0.000000
   25  C  5  Z    0.000000   0.000000   0.000000   0.000000  -3.570090
   26  C  6  S   -0.000000  -0.053864  -0.020702  -0.122926   0.000000
   27  C  6  S   -0.053685  -1.142916  -0.293188  -1.660537   0.000000
   28  C  6  X    0.020708   0.267119  -0.394529   0.429369   0.000000
   29  C  6  Y    0.122498   1.663329   0.468224   2.195212   0.000000
   30  C  6  Z    0.000000   0.000000   0.000000   0.000000  -0.424744
   31  H  7  S   -1.881685  -7.796957  -2.375378   6.206842   0.000000
   32  H  8  S   -0.000356  -0.034235   0.021420  -0.057688   0.000000
   33  H  9  S   -0.163809  -1.622157   1.991859   0.454242   0.000000
   34  H 10  S   -0.002668  -0.119409  -0.063038  -0.187047   0.000000
   35  C 11  S    0.000000  -0.000065   0.000208  -0.000114   0.000000
   36  C 11  S   -0.000068  -0.028730   0.049429  -0.027884   0.000000
   37  C 11  X   -0.000217  -0.050457   0.080322  -0.050056   0.000000
   38  C 11  Y    0.000119   0.026882  -0.047350   0.017578   0.000000
   39  C 11  Z    0.000000   0.000000   0.000000   0.000000  -0.008272
   40  C 12  S   -0.000000  -0.037730  -0.085670  -0.028079   0.000000
   41  C 12  S   -0.039447  -0.874870  -1.222597  -0.464171   0.000000
   42  C 12  X    0.089667   1.275722   1.597155   0.729241   0.000000
   43  C 12  Y    0.029199   0.354938   0.549359  -0.135270   0.000000
   44  C 12  Z    0.000000   0.000000   0.000000   0.000000  -0.320626
   45  H 13  S   -0.000009  -0.003765   0.005965  -0.004852   0.000000
   46  H 14  S   -0.040858  -0.576080  -0.799894   0.040959   0.000000
   47  C 15  S    0.000000  -0.000001   0.000005  -0.000001   0.000000
   48  C 15  S   -0.000001  -0.003249   0.006963  -0.001686   0.000000
   49  C 15  X   -0.000006  -0.007271   0.014740  -0.003794   0.000000
   50  C 15  Y    0.000001   0.001415  -0.003050  -0.000265   0.000000
   51  C 15  Z    0.000000   0.000000   0.000000   0.000000  -0.000921
   52  C 16  S    0.000000  -0.000087  -0.000277  -0.000137   0.000000
   53  C 16  S   -0.000095  -0.032307  -0.055972  -0.028825   0.000000
   54  C 16  X    0.000306   0.057401   0.091686   0.052882   0.000000
   55  C 16  Y    0.000151   0.027529   0.049354   0.015579   0.000000
   56  C 16  Z    0.000000   0.000000   0.000000   0.000000  -0.009368
   57  H 17  S   -0.000093  -0.013442   0.024784  -0.000169   0.000000
   58  H 18  S   -0.000075  -0.012919  -0.018192  -0.015975   0.000000
   59  H 19  S   -0.000000  -0.000138   0.000314  -0.000081   0.000000
   60  H 20  S   -0.000009  -0.003413  -0.006575  -0.002207   0.000000

                     16         17         18         19         20

   16  C  4  S  -31.406452
   17  C  4  S   -7.666982 -18.322458
   18  C  4  X   -0.022740  -0.262780 -17.651068
   19  C  4  Y    0.104673   1.221382  -0.076594 -17.372067
   20  C  4  Z    0.000000   0.000000   0.000000   0.000000 -16.791588
   21  C  5  S   -0.000000  -0.053864   0.020702   0.122926   0.000000
   22  C  5  S   -0.053685  -1.142916   0.293188   1.660537   0.000000
   23  C  5  X   -0.020708  -0.267119  -0.394529   0.429369   0.000000
   24  C  5  Y   -0.122498  -1.663329   0.468224   2.195212   0.000000
   25  C  5  Z    0.000000   0.000000   0.000000   0.000000  -0.424744
   26  C  6  S   -0.000048  -1.164525  -1.903124   0.319653   0.000000
   27  C  6  S   -1.160782  -6.764619  -7.065935   1.509751   0.000000
   28  C  6  X    1.898082   7.156275   5.807746  -1.929682   0.000000
   29  C  6  Y   -0.312078  -0.855649  -1.232913  -3.427111   0.000000
   30  C  6  Z    0.000000   0.000000   0.000000   0.000000  -3.570090
   31  H  7  S   -0.000356  -0.034235  -0.021420   0.057688   0.000000
   32  H  8  S   -1.881685  -7.796957   2.375378  -6.206842   0.000000
   33  H  9  S   -0.002668  -0.119409   0.063038   0.187047   0.000000
   34  H 10  S   -0.163809  -1.622157  -1.991859  -0.454242   0.000000
   35  C 11  S   -0.000000  -0.037730   0.085670   0.028079   0.000000
   36  C 11  S   -0.039447  -0.874870   1.222597   0.464171   0.000000
   37  C 11  X   -0.089667  -1.275722   1.597155   0.729241   0.000000
   38  C 11  Y   -0.029199  -0.354938   0.549359  -0.135270   0.000000
   39  C 11  Z    0.000000   0.000000   0.000000   0.000000  -0.320626
   40  C 12  S    0.000000  -0.000065  -0.000208   0.000114   0.000000
   41  C 12  S   -0.000068  -0.028730  -0.049429   0.027884   0.000000
   42  C 12  X    0.000217   0.050457   0.080322  -0.050056   0.000000
   43  C 12  Y   -0.000119  -0.026882  -0.047350   0.017578   0.000000
   44  C 12  Z    0.000000   0.000000   0.000000   0.000000  -0.008272
   45  H 13  S   -0.040858  -0.576080   0.799894  -0.040959   0.000000
   46  H 14  S   -0.000009  -0.003765  -0.005965   0.004852   0.000000
   47  C 15  S    0.000000  -0.000087   0.000277   0.000137   0.000000
   48  C 15  S   -0.000095  -0.032307   0.055972   0.028825   0.000000
   49  C 15  X   -0.000306  -0.057401   0.091686   0.052882   0.000000
   50  C 15  Y   -0.000151  -0.027529   0.049354   0.015579   0.000000
   51  C 15  Z    0.000000   0.000000   0.000000   0.000000  -0.009368
   52  C 16  S    0.000000  -0.000001  -0.000005   0.000001   0.000000
   53  C 16  S   -0.000001  -0.003249  -0.006963   0.001686   0.000000
   54  C 16  X    0.000006   0.007271   0.014740  -0.003794   0.000000
   55  C 16  Y   -0.000001  -0.001415  -0.003050  -0.000265   0.000000
   56  C 16  Z    0.000000   0.000000   0.000000   0.000000  -0.000921
   57  H 17  S   -0.000075  -0.012919   0.018192   0.015975   0.000000
   58  H 18  S   -0.000093  -0.013442  -0.024784   0.000169   0.000000
   59  H 19  S   -0.000009  -0.003413   0.006575   0.002207   0.000000
   60  H 20  S   -0.000000  -0.000138  -0.000314   0.000081   0.000000

                     21         22         23         24         25

   21  C  5  S  -31.519443
   22  C  5  S   -7.695045 -18.435325
   23  C  5  X   -0.048227  -0.560331 -17.704551
   24  C  5  Y   -0.090216  -1.053621   0.133080 -17.548855
   25  C  5  Z    0.000000   0.000000   0.000000   0.000000 -16.899935
   26  C  6  S    0.000000  -0.012068  -0.020457  -0.024848   0.000000
   27  C  6  S   -0.012068  -0.479777  -0.489704  -0.595435   0.000000
   28  C  6  X    0.020457   0.489704   0.350451   0.656523   0.000000
   29  C  6  Y    0.024848   0.595435   0.656523   0.610778   0.000000
   30  C  6  Z    0.000000   0.000000   0.000000   0.000000  -0.166236
   31  H  7  S   -0.164002  -1.614985  -1.722930   1.069509   0.000000
   32  H  8  S   -0.002676  -0.119142  -0.001568  -0.196622   0.000000
   33  H  9  S   -1.896753  -7.916055   4.373532   5.185297   0.000000
   34  H 10  S   -0.000351  -0.033860  -0.038689  -0.047072   0.000000
   35  C 11  S   -0.000000  -0.031584   0.059537  -0.048571   0.000000
   36  C 11  S   -0.033043  -0.804156   0.912479  -0.805184   0.000000
   37  C 11  X   -0.062388  -0.979127   0.890327  -1.059797   0.000000
   38  C 11  Y    0.050783   0.743327  -0.924100   0.500700   0.000000
   39  C 11  Z    0.000000   0.000000   0.000000   0.000000  -0.290774
   40  C 12  S    0.000000  -0.000077  -0.000274  -0.000040   0.000000
   41  C 12  S   -0.000081  -0.031145  -0.060310  -0.009705   0.000000
   42  C 12  X    0.000289   0.061184   0.112036   0.019204   0.000000
   43  C 12  Y    0.000042   0.007962   0.015554  -0.007277   0.000000
   44  C 12  Z    0.000000   0.000000   0.000000   0.000000  -0.008993
   45  H 13  S   -0.002030  -0.095838   0.099208  -0.125106   0.000000
   46  H 14  S   -0.000175  -0.020907  -0.037770   0.003741   0.000000
   47  C 15  S    0.000000  -0.003407   0.009630  -0.002337   0.000000
   48  C 15  S   -0.003780  -0.211539   0.342444  -0.096505   0.000000
   49  C 15  X   -0.010703  -0.355447   0.532900  -0.170681   0.000000
   50  C 15  Y    0.002579   0.072444  -0.125523  -0.041509   0.000000
   51  C 15  Z    0.000000   0.000000   0.000000   0.000000  -0.070920
   52  C 16  S    0.000000  -0.000000  -0.000000  -0.000000   0.000000
   53  C 16  S   -0.000000  -0.000516  -0.001213  -0.000379   0.000000
   54  C 16  X    0.000000   0.001235   0.002759   0.000909   0.000000
   55  C 16  Y    0.000000   0.000365   0.000862   0.000119   0.000000
   56  C 16  Z    0.000000   0.000000   0.000000   0.000000  -0.000140
   57  H 17  S   -0.023789  -0.380985   0.542237   0.045969   0.000000
   58  H 18  S   -0.000000  -0.000506  -0.001000  -0.000550   0.000000
   59  H 19  S   -0.000104  -0.013605   0.024390  -0.007183   0.000000
   60  H 20  S   -0.000000  -0.000035  -0.000087  -0.000018   0.000000

                     26         27         28         29         30

   26  C  6  S  -31.519443
   27  C  6  S   -7.695045 -18.435325
   28  C  6  X    0.048227   0.560331 -17.704551
   29  C  6  Y    0.090216   1.053621   0.133080 -17.548855
   30  C  6  Z    0.000000   0.000000   0.000000   0.000000 -16.899935
   31  H  7  S   -0.002676  -0.119142   0.001568   0.196622   0.000000
   32  H  8  S   -0.164002  -1.614985   1.722930  -1.069509   0.000000
   33  H  9  S   -0.000351  -0.033860   0.038689   0.047072   0.000000
   34  H 10  S   -1.896753  -7.916055  -4.373532  -5.185297   0.000000
   35  C 11  S    0.000000  -0.000077   0.000274   0.000040   0.000000
   36  C 11  S   -0.000081  -0.031145   0.060310   0.009705   0.000000
   37  C 11  X   -0.000289  -0.061184   0.112036   0.019204   0.000000
   38  C 11  Y   -0.000042  -0.007962   0.015554  -0.007277   0.000000
   39  C 11  Z    0.000000   0.000000   0.000000   0.000000  -0.008993
   40  C 12  S   -0.000000  -0.031584  -0.059537   0.048571   0.000000
   41  C 12  S   -0.033043  -0.804156  -0.912479   0.805184   0.000000
   42  C 12  X    0.062388   0.979127   0.890327  -1.059797   0.000000
   43  C 12  Y   -0.050783  -0.743327  -0.924100   0.500700   0.000000
   44  C 12  Z    0.000000   0.000000   0.000000   0.000000  -0.290774
   45  H 13  S   -0.000175  -0.020907   0.037770  -0.003741   0.000000
   46  H 14  S   -0.002030  -0.095838  -0.099208   0.125106   0.000000
   47  C 15  S    0.000000  -0.000000   0.000000   0.000000   0.000000
   48  C 15  S   -0.000000  -0.000516   0.001213   0.000379   0.000000
   49  C 15  X   -0.000000  -0.001235   0.002759   0.000909   0.000000
   50  C 15  Y   -0.000000  -0.000365   0.000862   0.000119   0.000000
   51  C 15  Z    0.000000   0.000000   0.000000   0.000000  -0.000140
   52  C 16  S    0.000000  -0.003407  -0.009630   0.002337   0.000000
   53  C 16  S   -0.003780  -0.211539  -0.342444   0.096505   0.000000
   54  C 16  X    0.010703   0.355447   0.532900  -0.170681   0.000000
   55  C 16  Y   -0.002579  -0.072444  -0.125523  -0.041509   0.000000
   56  C 16  Z    0.000000   0.000000   0.000000   0.000000  -0.070920
   57  H 17  S   -0.000000  -0.000506   0.001000   0.000550   0.000000
   58  H 18  S   -0.023789  -0.380985  -0.542237  -0.045969   0.000000
   59  H 19  S   -0.000000  -0.000035   0.000087   0.000018   0.000000
   60  H 20  S   -0.000104  -0.013605  -0.024390   0.007183   0.000000

                     31         32         33         34         35

   31  H  7  S  -13.295826
   32  H  8  S   -0.002070 -13.295826
   33  H  9  S   -0.737411  -0.013703 -13.600845
   34  H 10  S   -0.013703  -0.737411  -0.002055 -13.600845
   35  C 11  S   -0.000006  -0.033447  -0.025946  -0.000007 -29.953716
   36  C 11  S   -0.002823  -0.513195  -0.451201  -0.003226  -7.306177
   37  C 11  X   -0.004732  -0.572363  -0.326848  -0.006406  -0.059404
   38  C 11  Y    0.003468  -0.455874   0.566430  -0.001821   0.055551
   39  C 11  Z    0.000000   0.000000   0.000000   0.000000   0.000000
   40  C 12  S   -0.033447  -0.000006  -0.000007  -0.025946   0.000000
   41  C 12  S   -0.513195  -0.002823  -0.003226  -0.451201  -0.000000
   42  C 12  X    0.572363   0.004732   0.006406   0.326848   0.000000
   43  C 12  Y    0.455874  -0.003468   0.001821  -0.566430  -0.000000
   44  C 12  Z    0.000000   0.000000   0.000000   0.000000   0.000000
   45  H 13  S   -0.000282  -0.821355  -0.042544  -0.003982  -1.787647
   46  H 14  S   -0.821355  -0.000282  -0.003982  -0.042544  -0.000000
   47  C 15  S   -0.000000  -0.000163  -0.024881  -0.000000  -0.000119
   48  C 15  S   -0.000596  -0.019901  -0.403287  -0.000036  -1.267231
   49  C 15  X   -0.001255  -0.027829  -0.500633  -0.000084  -1.563711
   50  C 15  Y    0.000475  -0.023520   0.306350  -0.000034  -1.401559
   51  C 15  Z    0.000000   0.000000   0.000000   0.000000   0.000000
   52  C 16  S   -0.000163  -0.000000  -0.000000  -0.024881   0.000000
   53  C 16  S   -0.019901  -0.000596  -0.000036  -0.403287  -0.000000
   54  C 16  X    0.027829   0.001255   0.000084   0.500633   0.000000
   55  C 16  Y    0.023520  -0.000475   0.000034  -0.306350  -0.000000
   56  C 16  Z    0.000000   0.000000   0.000000   0.000000   0.000000
   57  H 17  S   -0.004435  -0.004243  -1.144468  -0.000028  -0.166418
   58  H 18  S   -0.004243  -0.004435  -0.000028  -1.144468  -0.000000
   59  H 19  S   -0.000026  -0.003853  -0.037806  -0.000003  -0.170567
   60  H 20  S   -0.003853  -0.000026  -0.000003  -0.037806  -0.000000

                     36         37         38         39         40

   36  C 11  S  -16.868769
   37  C 11  X   -0.711005 -16.251045
   38  C 11  Y    0.643274  -0.131776 -15.818247
   39  C 11  Z    0.000000   0.000000   0.000000 -15.384858
   40  C 12  S   -0.000000  -0.000000   0.000000   0.000000 -29.953716
   41  C 12  S   -0.000013  -0.000036   0.000007   0.000000  -7.306177
   42  C 12  X    0.000036   0.000098  -0.000019   0.000000   0.059404
   43  C 12  Y   -0.000007  -0.000019  -0.000000   0.000000  -0.055551
   44  C 12  Z    0.000000   0.000000   0.000000  -0.000004   0.000000
   45  H 13  S   -7.288013   1.210531  -6.179899   0.000000  -0.000000
   46  H 14  S   -0.000006  -0.000014   0.000005   0.000000  -1.787647
   47  C 15  S   -1.192249   1.468115   1.322025   0.000000   0.000000
   48  C 15  S   -6.382442   4.646476   4.491856   0.000000  -0.000000
   49  C 15  X   -5.218457   1.341131   4.636810   0.000000  -0.000000
   50  C 15  Y   -4.416238   4.185086   0.505652   0.000000   0.000000
   51  C 15  Z    0.000000   0.000000   0.000000  -3.428636   0.000000
   52  C 16  S   -0.000000  -0.000000   0.000000   0.000000  -0.000119
   53  C 16  S   -0.000000  -0.000000   0.000000   0.000000  -1.267231
   54  C 16  X    0.000000   0.000002  -0.000000   0.000000   1.563711
   55  C 16  Y   -0.000000  -0.000000  -0.000000   0.000000   1.401559
   56  C 16  Z    0.000000   0.000000   0.000000  -0.000000   0.000000
   57  H 17  S   -1.568009   0.739133   1.803891   0.000000  -0.000000
   58  H 18  S   -0.000002  -0.000005  -0.000001   0.000000  -0.166418
   59  H 19  S   -1.496187   1.731545   0.593381   0.000000  -0.000000
   60  H 20  S   -0.000000  -0.000000   0.000000   0.000000  -0.170567

                     41         42         43         44         45

   41  C 12  S  -16.868769
   42  C 12  X    0.711005 -16.251045
   43  C 12  Y   -0.643274  -0.131776 -15.818247
   44  C 12  Z    0.000000   0.000000   0.000000 -15.384858
   45  H 13  S   -0.000006   0.000014  -0.000005   0.000000 -12.564365
   46  H 14  S   -7.288013  -1.210531   6.179899   0.000000  -0.000001
   47  C 15  S   -0.000000   0.000000  -0.000000   0.000000  -0.169973
   48  C 15  S   -0.000000   0.000000  -0.000000   0.000000  -1.601226
   49  C 15  X   -0.000000   0.000002  -0.000000   0.000000  -0.855007
   50  C 15  Y    0.000000  -0.000000  -0.000000   0.000000  -1.837470
   51  C 15  Z    0.000000   0.000000   0.000000  -0.000000   0.000000
   52  C 16  S   -1.192249  -1.468115  -1.322025   0.000000  -0.000000
   53  C 16  S   -6.382442  -4.646476  -4.491856   0.000000  -0.000000
   54  C 16  X    5.218457   1.341131   4.636810   0.000000   0.000001
   55  C 16  Y    4.416238   4.185086   0.505652   0.000000  -0.000000
   56  C 16  Z    0.000000   0.000000   0.000000  -3.428636   0.000000
   57  H 17  S   -0.000002   0.000005   0.000001   0.000000  -0.228887
   58  H 18  S   -1.568009  -0.739133  -1.803891   0.000000  -0.000003
   59  H 19  S   -0.000000   0.000000  -0.000000   0.000000  -0.703203
   60  H 20  S   -1.496187  -1.731545  -0.593381   0.000000  -0.000000

                     46         47         48         49         50

   46  H 14  S  -12.564365
   47  C 15  S   -0.000000 -27.998201
   48  C 15  S   -0.000000  -6.820501 -14.907780
   49  C 15  X   -0.000001  -0.100880  -1.168935 -14.119605
   50  C 15  Y    0.000000  -0.042006  -0.482313  -0.210025 -13.923452
   51  C 15  Z    0.000000   0.000000   0.000000   0.000000   0.000000
   52  C 16  S   -0.169973   0.000000  -0.000000  -0.000000  -0.000000
   53  C 16  S   -1.601226  -0.000000  -0.000000  -0.000000  -0.000000
   54  C 16  X    0.855007   0.000000   0.000000   0.000000   0.000000
   55  C 16  Y    1.837470   0.000000   0.000000   0.000000  -0.000000
   56  C 16  Z    0.000000   0.000000   0.000000   0.000000   0.000000
   57  H 17  S   -0.000003  -1.693426  -6.703100  -1.403378   5.767591
   58  H 18  S   -0.228887  -0.000000  -0.000000  -0.000000  -0.000000
   59  H 19  S   -0.000000  -1.684213  -6.333022   5.062770  -1.758662
   60  H 20  S   -0.703203  -0.000000  -0.000000  -0.000000  -0.000000

                     51         52         53         54         55

   51  C 15  Z  -13.532783
   52  C 16  S    0.000000 -27.998201
   53  C 16  S    0.000000  -6.820501 -14.907780
   54  C 16  X    0.000000   0.100880   1.168935 -14.119605
   55  C 16  Y    0.000000   0.042006   0.482313  -0.210025 -13.923452
   56  C 16  Z   -0.000000   0.000000   0.000000   0.000000   0.000000
   57  H 17  S    0.000000  -0.000000  -0.000000   0.000000   0.000000
   58  H 18  S    0.000000  -1.693426  -6.703100   1.403378  -5.767591
   59  H 19  S    0.000000  -0.000000  -0.000000   0.000000   0.000000
   60  H 20  S    0.000000  -1.684213  -6.333022  -5.062770   1.758662

                     56         57         58         59         60

   56  C 16  Z  -13.532783
   57  H 17  S    0.000000 -11.837702
   58  H 18  S    0.000000  -0.000000 -11.837702
   59  H 19  S    0.000000  -1.881825  -0.000000 -10.597039
   60  H 20  S    0.000000  -0.000000  -1.881825  -0.000000 -10.597039
 KINETIC ENERGY INTEGRALS

                      1          2          3          4          5

    1  C  1  S   15.891122
    2  C  1  S   -0.085890   0.472250
    3  C  1  X   -0.000000  -0.000000   1.477728
    4  C  1  Y    0.000000  -0.000000   0.000000   1.477728
    5  C  1  Z    0.000000   0.000000   0.000000   0.000000   1.477728
    6  C  2  S    0.000000  -0.000606   0.001287  -0.000216   0.000000
    7  C  2  S   -0.000606  -0.010891   0.011837  -0.001982   0.000000
    8  C  2  X   -0.001287  -0.011837   0.007917  -0.001844   0.000000
    9  C  2  Y    0.000216   0.001982  -0.001844  -0.002783   0.000000
   10  C  2  Z    0.000000   0.000000   0.000000   0.000000  -0.003092
   11  C  3  S   -0.000023  -0.008409   0.007739   0.009034   0.000000
   12  C  3  S   -0.008409   0.040743  -0.091019  -0.106247   0.000000
   13  C  3  X   -0.007739   0.091019  -0.084839  -0.178198   0.000000
   14  C  3  Y   -0.009034   0.106247  -0.178198  -0.140195   0.000000
   15  C  3  Z    0.000000   0.000000   0.000000   0.000000   0.067818
   16  C  4  S   -0.000000  -0.002072   0.002574  -0.002101   0.000000
   17  C  4  S   -0.002072  -0.017095   0.008641  -0.007053   0.000000
   18  C  4  X   -0.002574  -0.008641  -0.006267   0.001876   0.000000
   19  C  4  Y    0.002101   0.007053   0.001876  -0.005500   0.000000
   20  C  4  Z    0.000000   0.000000   0.000000   0.000000  -0.003969
   21  C  5  S   -0.000000  -0.002054   0.003101   0.001142   0.000000
   22  C  5  S   -0.002054  -0.017056   0.010525   0.003875   0.000000
   23  C  5  X   -0.003101  -0.010525  -0.007131  -0.001162   0.000000
   24  C  5  Y   -0.001142  -0.003875  -0.001162  -0.004402   0.000000
   25  C  5  Z    0.000000   0.000000   0.000000   0.000000  -0.003974
   26  C  6  S   -0.000023  -0.008409   0.004348  -0.011073   0.000000
   27  C  6  S   -0.008409   0.040756  -0.051139   0.130247   0.000000
   28  C  6  X   -0.004348   0.051139   0.019653   0.122716   0.000000
   29  C  6  Y    0.011073  -0.130247   0.122716  -0.244711   0.000000
   30  C  6  Z    0.000000   0.000000   0.000000   0.000000   0.067835
   31  H  7  S   -0.002270  -0.015017   0.000381   0.001475   0.000000
   32  H  8  S   -0.000141  -0.003558   0.003095  -0.003505   0.000000
   33  H  9  S   -0.000140  -0.003550   0.004061   0.002301   0.000000
   34  H 10  S   -0.002267  -0.015019  -0.000124  -0.001554   0.000000
   35  C 11  S    0.000000  -0.000000   0.000002  -0.000000   0.000000
   36  C 11  S   -0.000000  -0.000359   0.000675  -0.000121   0.000000
   37  C 11  X   -0.000002  -0.000675   0.001170  -0.000228   0.000000
   38  C 11  Y    0.000000   0.000121  -0.000228  -0.000060   0.000000
   39  C 11  Z    0.000000   0.000000   0.000000   0.000000  -0.000101
   40  C 12  S   -0.000006  -0.008187  -0.011221   0.002276   0.000000
   41  C 12  S   -0.008187   0.027372   0.111976  -0.022709   0.000000
   42  C 12  X    0.011221  -0.111976  -0.236458   0.058238   0.000000
   43  C 12  Y   -0.002276   0.022709   0.058238   0.038899   0.000000
   44  C 12  Z    0.000000   0.000000   0.000000   0.000000   0.050710
[...]
   50  C 15  Y   -0.000017  -0.001258   0.001871   0.000432   0.000000
   51  C 15  Z    0.000000   0.000000   0.000000   0.000000  -0.000495
   52  C 16  S    0.000000  -0.000000  -0.000001   0.000000   0.000000
   53  C 16  S   -0.000000  -0.000259  -0.000496   0.000108   0.000000
   54  C 16  X    0.000001   0.000496   0.000879  -0.000207   0.000000
   55  C 16  Y   -0.000000  -0.000108  -0.000207  -0.000027   0.000000
   56  C 16  Z    0.000000   0.000000   0.000000   0.000000  -0.000073
   57  H 17  S   -0.000007  -0.000650   0.000799   0.000687   0.000000
   58  H 18  S   -0.000008  -0.000723  -0.001160  -0.000036   0.000000
   59  H 19  S   -0.000001  -0.000224   0.000381   0.000117   0.000000
   60  H 20  S   -0.000000  -0.000013  -0.000028   0.000007   0.000000

                     21         22         23         24         25

   21  C  5  S   15.891122
   22  C  5  S   -0.085890   0.472250
   23  C  5  X   -0.000000   0.000000   1.477728
   24  C  5  Y   -0.000000  -0.000000  -0.000000   1.477728
   25  C  5  Z    0.000000   0.000000   0.000000   0.000000   1.477728
   26  C  6  S    0.000000  -0.000724  -0.000960  -0.001166   0.000000
   27  C  6  S   -0.000724  -0.011731  -0.007887  -0.009583   0.000000
   28  C  6  X    0.000960   0.007887   0.001008   0.005229   0.000000
   29  C  6  Y    0.001166   0.009583   0.005229   0.003058   0.000000
   30  C  6  Z    0.000000   0.000000   0.000000   0.000000  -0.003296
   31  H  7  S   -0.002300  -0.014982  -0.000843   0.000603   0.000000
   32  H  8  S   -0.000147  -0.003649  -0.000036  -0.004774   0.000000
   33  H  9  S   -0.010761   0.104587  -0.162145  -0.199232   0.000000
   34  H 10  S   -0.000026  -0.001381  -0.001315  -0.001602   0.000000
   35  C 11  S   -0.000000  -0.001554   0.002112  -0.001722   0.000000
   36  C 11  S   -0.001554  -0.015677   0.009727  -0.007934   0.000000
   37  C 11  X   -0.002112  -0.009727  -0.002310  -0.001366   0.000000
   38  C 11  Y    0.001722   0.007934  -0.001366  -0.002870   0.000000
   39  C 11  Z    0.000000   0.000000   0.000000   0.000000  -0.003984
   40  C 12  S    0.000000  -0.000010  -0.000032  -0.000005   0.000000
   41  C 12  S   -0.000010  -0.001610  -0.002624  -0.000384   0.000000
   42  C 12  X    0.000032   0.002624   0.003886   0.000635   0.000000
   43  C 12  Y    0.000005   0.000384   0.000635  -0.000365   0.000000
   44  C 12  Z    0.000000   0.000000   0.000000   0.000000  -0.000458
   45  H 13  S   -0.000118  -0.003215   0.002749  -0.003308   0.000000
   46  H 14  S   -0.000015  -0.000987  -0.001523   0.000196   0.000000
   47  C 15  S    0.000000  -0.000287   0.000672  -0.000163   0.000000
   48  C 15  S   -0.000287  -0.007844   0.009546  -0.002309   0.000000
   49  C 15  X   -0.000672  -0.009546   0.008823  -0.002685   0.000000
   50  C 15  Y    0.000163   0.002309  -0.002685  -0.001627   0.000000
   51  C 15  Z    0.000000   0.000000   0.000000   0.000000  -0.002276
   52  C 16  S    0.000000  -0.000000  -0.000000  -0.000000   0.000000
   53  C 16  S   -0.000000  -0.000047  -0.000100  -0.000030   0.000000
   54  C 16  X    0.000000   0.000100   0.000198   0.000064   0.000000
   55  C 16  Y    0.000000   0.000030   0.000064   0.000006   0.000000
   56  C 16  Z    0.000000   0.000000   0.000000   0.000000  -0.000013
   57  H 17  S   -0.000787  -0.009513   0.008955   0.001144   0.000000
   58  H 18  S   -0.000000  -0.000038  -0.000068  -0.000037   0.000000
   59  H 19  S   -0.000009  -0.000765   0.001182  -0.000304   0.000000
   60  H 20  S   -0.000000  -0.000004  -0.000008  -0.000002   0.000000

                     26         27         28         29         30

   26  C  6  S   15.891122
   27  C  6  S   -0.085890   0.472250
   28  C  6  X   -0.000000  -0.000000   1.477728
   29  C  6  Y    0.000000   0.000000   0.000000   1.477728
   30  C  6  Z    0.000000   0.000000   0.000000   0.000000   1.477728
   31  H  7  S   -0.000147  -0.003649   0.000036   0.004774   0.000000
   32  H  8  S   -0.002300  -0.014982   0.000843  -0.000603   0.000000
   33  H  9  S   -0.000026  -0.001381   0.001315   0.001602   0.000000
   34  H 10  S   -0.010761   0.104587   0.162145   0.199232   0.000000
   35  C 11  S    0.000000  -0.000010   0.000032   0.000005   0.000000
   36  C 11  S   -0.000010  -0.001610   0.002624   0.000384   0.000000
   37  C 11  X   -0.000032  -0.002624   0.003886   0.000635   0.000000
   38  C 11  Y   -0.000005  -0.000384   0.000635  -0.000365   0.000000
   39  C 11  Z    0.000000   0.000000   0.000000   0.000000  -0.000458
   40  C 12  S   -0.000000  -0.001554  -0.002112   0.001722   0.000000
   41  C 12  S   -0.001554  -0.015677  -0.009727   0.007934   0.000000
   42  C 12  X    0.002112   0.009727  -0.002310  -0.001366   0.000000
   43  C 12  Y   -0.001722  -0.007934  -0.001366  -0.002870   0.000000
   44  C 12  Z    0.000000   0.000000   0.000000   0.000000  -0.003984
   45  H 13  S   -0.000015  -0.000987   0.001523  -0.000196   0.000000
   46  H 14  S   -0.000118  -0.003215  -0.002749   0.003308   0.000000
   47  C 15  S    0.000000  -0.000000   0.000000   0.000000   0.000000
   48  C 15  S   -0.000000  -0.000047   0.000100   0.000030   0.000000
   49  C 15  X   -0.000000  -0.000100   0.000198   0.000064   0.000000
   50  C 15  Y   -0.000000  -0.000030   0.000064   0.000006   0.000000
   51  C 15  Z    0.000000   0.000000   0.000000   0.000000  -0.000013
   52  C 16  S    0.000000  -0.000287  -0.000672   0.000163   0.000000
   53  C 16  S   -0.000287  -0.007844  -0.009546   0.002309   0.000000
   54  C 16  X    0.000672   0.009546   0.008823  -0.002685   0.000000
   55  C 16  Y   -0.000163  -0.002309  -0.002685  -0.001627   0.000000
   56  C 16  Z    0.000000   0.000000   0.000000   0.000000  -0.002276
   57  H 17  S   -0.000000  -0.000038   0.000068   0.000037   0.000000
   58  H 18  S   -0.000787  -0.009513  -0.008955  -0.001144   0.000000
   59  H 19  S   -0.000000  -0.000004   0.000008   0.000002   0.000000
   60  H 20  S   -0.000009  -0.000765  -0.001182   0.000304   0.000000

                     31         32         33         34         35

   31  H  7  S    0.760032
   32  H  8  S   -0.000112   0.760032
   33  H  9  S   -0.010724  -0.000564   0.760032
   34  H 10  S   -0.000564  -0.010724  -0.000112   0.760032
   35  C 11  S   -0.000001  -0.001018  -0.000858  -0.000001  15.891122
   36  C 11  S   -0.000179  -0.010973  -0.009984  -0.000203  -0.085890
   37  C 11  X   -0.000256  -0.006919  -0.004253  -0.000347  -0.000000
   38  C 11  Y    0.000197  -0.006231   0.008118  -0.000109  -0.000000
   39  C 11  Z    0.000000   0.000000   0.000000   0.000000   0.000000
   40  C 12  S   -0.001018  -0.000001  -0.000001  -0.000858   0.000000
   41  C 12  S   -0.010973  -0.000179  -0.000203  -0.009984  -0.000000
   42  C 12  X    0.006919   0.000256   0.000347   0.004253   0.000000
   43  C 12  Y    0.006231  -0.000197   0.000109  -0.008118  -0.000000
   44  C 12  Z    0.000000   0.000000   0.000000   0.000000   0.000000
   45  H 13  S   -0.000020  -0.011233  -0.001558  -0.000226  -0.010886
   46  H 14  S   -0.011233  -0.000020  -0.000226  -0.001558  -0.000000
   47  C 15  S   -0.000000  -0.000015  -0.000874  -0.000000  -0.000079
   48  C 15  S   -0.000052  -0.001003  -0.010086  -0.000004  -0.008342
   49  C 15  X   -0.000095  -0.001158  -0.007579  -0.000008  -0.007586
   50  C 15  Y    0.000040  -0.001042   0.005196  -0.000003  -0.006820
   51  C 15  Z    0.000000   0.000000   0.000000   0.000000   0.000000
   52  C 16  S   -0.000015  -0.000000  -0.000000  -0.000874   0.000000
   53  C 16  S   -0.001003  -0.000052  -0.000004  -0.010086  -0.000000
   54  C 16  X    0.001158   0.000095   0.000008   0.007579   0.000000
   55  C 16  Y    0.001042  -0.000040   0.000003  -0.005196  -0.000000
   56  C 16  Z    0.000000   0.000000   0.000000   0.000000   0.000000
   57  H 17  S   -0.000271  -0.000225  -0.011346  -0.000002  -0.002361
   58  H 18  S   -0.000225  -0.000271  -0.000002  -0.011346  -0.000000
   59  H 19  S   -0.000003  -0.000235  -0.001637  -0.000000  -0.002390
   60  H 20  S   -0.000235  -0.000003  -0.000000  -0.001637  -0.000000

                     36         37         38         39         40

   36  C 11  S    0.472250
   37  C 11  X    0.000000   1.477728
   38  C 11  Y   -0.000000   0.000000   1.477728
   39  C 11  Z    0.000000   0.000000   0.000000   1.477728
   40  C 12  S   -0.000000  -0.000000   0.000000   0.000000  15.891122
   41  C 12  S   -0.000002  -0.000004   0.000001   0.000000  -0.085890
   42  C 12  X    0.000004   0.000011  -0.000002   0.000000   0.000000
   43  C 12  Y   -0.000001  -0.000002  -0.000000   0.000000   0.000000
   44  C 12  Z    0.000000   0.000000   0.000000  -0.000000   0.000000
   45  H 13  S    0.103311  -0.057955   0.247766   0.000000  -0.000000
   46  H 14  S   -0.000001  -0.000002   0.000001   0.000000  -0.010886
   47  C 15  S   -0.008342   0.007586   0.006820   0.000000   0.000000
   48  C 15  S    0.056966  -0.125907  -0.113192   0.000000  -0.000000
   49  C 15  X    0.125907  -0.148864  -0.214836   0.000000  -0.000000
   50  C 15  Y    0.113192  -0.214836  -0.103036   0.000000   0.000000
   51  C 15  Z    0.000000   0.000000   0.000000   0.090104   0.000000
   52  C 16  S   -0.000000  -0.000000   0.000000   0.000000  -0.000079
   53  C 16  S   -0.000000  -0.000000   0.000000   0.000000  -0.008342
   54  C 16  X    0.000000   0.000000  -0.000000   0.000000   0.007586
   55  C 16  Y   -0.000000  -0.000000  -0.000000   0.000000   0.006820
   56  C 16  Z    0.000000   0.000000   0.000000  -0.000000   0.000000
   57  H 17  S   -0.014881   0.000005   0.000013   0.000000  -0.000000
   58  H 18  S   -0.000000  -0.000001  -0.000000   0.000000  -0.002361
   59  H 19  S   -0.014820  -0.000468  -0.000133   0.000000  -0.000000
   60  H 20  S   -0.000000  -0.000000   0.000000   0.000000  -0.002390

                     41         42         43         44         45

   41  C 12  S    0.472250
   42  C 12  X   -0.000000   1.477728
   43  C 12  Y   -0.000000   0.000000   1.477728
   44  C 12  Z    0.000000   0.000000   0.000000   1.477728
   45  H 13  S   -0.000001   0.000002  -0.000001   0.000000   0.760032
   46  H 14  S    0.103311   0.057955  -0.247766   0.000000  -0.000000
   47  C 15  S   -0.000000   0.000000  -0.000000   0.000000  -0.002446
   48  C 15  S   -0.000000   0.000000  -0.000000   0.000000  -0.014668
   49  C 15  X   -0.000000   0.000000  -0.000000   0.000000   0.000542
   50  C 15  Y    0.000000  -0.000000  -0.000000   0.000000   0.001427
   51  C 15  Z    0.000000   0.000000   0.000000  -0.000000   0.000000
   52  C 16  S   -0.008342  -0.007586  -0.006820   0.000000  -0.000000
   53  C 16  S    0.056966   0.125907   0.113192   0.000000  -0.000000
   54  C 16  X   -0.125907  -0.148864  -0.214836   0.000000   0.000000
   55  C 16  Y   -0.113192  -0.214836  -0.103036   0.000000  -0.000000
   56  C 16  Z    0.000000   0.000000   0.000000   0.090104   0.000000
   57  H 17  S   -0.000000   0.000001   0.000000   0.000000  -0.005772
   58  H 18  S   -0.014881  -0.000005  -0.000013   0.000000  -0.000000
   59  H 19  S   -0.000000   0.000000  -0.000000   0.000000  -0.010967
   60  H 20  S   -0.014820   0.000468   0.000133   0.000000  -0.000000

                     46         47         48         49         50

   46  H 14  S    0.760032
   47  C 15  S   -0.000000  15.891122
   48  C 15  S   -0.000000  -0.085890   0.472250
   49  C 15  X   -0.000000   0.000000  -0.000000   1.477728
   50  C 15  Y    0.000000  -0.000000  -0.000000   0.000000   1.477728
   51  C 15  Z    0.000000   0.000000   0.000000   0.000000   0.000000
   52  C 16  S   -0.002446   0.000000  -0.000000  -0.000000  -0.000000
   53  C 16  S   -0.014668  -0.000000  -0.000000  -0.000000  -0.000000
   54  C 16  X   -0.000542   0.000000   0.000000   0.000000   0.000000
   55  C 16  Y   -0.001427   0.000000   0.000000   0.000000  -0.000000
   56  C 16  Z    0.000000   0.000000   0.000000   0.000000   0.000000
   57  H 17  S   -0.000000  -0.010728   0.104922   0.042372  -0.253999
   58  H 18  S   -0.005772  -0.000000  -0.000000  -0.000000  -0.000000
   59  H 19  S   -0.000000  -0.010750   0.104698  -0.246178   0.074087
   60  H 20  S   -0.010967  -0.000000  -0.000000  -0.000000  -0.000000

                     51         52         53         54         55

   51  C 15  Z    1.477728
   52  C 16  S    0.000000  15.891122
   53  C 16  S    0.000000  -0.085890   0.472250
   54  C 16  X    0.000000  -0.000000   0.000000   1.477728
   55  C 16  Y    0.000000  -0.000000  -0.000000  -0.000000   1.477728
   56  C 16  Z   -0.000000   0.000000   0.000000   0.000000   0.000000
   57  H 17  S    0.000000  -0.000000  -0.000000   0.000000   0.000000
   58  H 18  S    0.000000  -0.010728   0.104922  -0.042372   0.253999
   59  H 19  S    0.000000  -0.000000  -0.000000   0.000000   0.000000
   60  H 20  S    0.000000  -0.010750   0.104698   0.246178  -0.074087

                     56         57         58         59         60

   56  C 16  Z    1.477728
   57  H 17  S    0.000000   0.760032
   58  H 18  S    0.000000  -0.000000   0.760032
   59  H 19  S    0.000000  -0.007762  -0.000000   0.760032
   60  H 20  S    0.000000  -0.000000  -0.007762  -0.000000   0.760032
 ...... END OF ONE-ELECTRON INTEGRALS ......
 STEP CPU TIME =     0.02 TOTAL CPU TIME =        0.0 (    0.0 MIN)
 TOTAL WALL CLOCK TIME=        0.0 SECONDS, CPU UTILIZATION IS  50.00%

          -------------
          GUESS OPTIONS
          -------------
          GUESS =HUCKEL            NORB  =       0          NORDER=       0
          MIX   =       F          PRTMO =       F          PUNMO =       F
          TOLZ  = 1.0E-08          TOLE  = 1.0E-05
          SYMDEN=       F          PURIFY=       F

 INITIAL GUESS ORBITALS GENERATED BY HUCKEL   ROUTINE.
 HUCKEL GUESS REQUIRES     53480 WORDS.

 SYMMETRIES FOR INITIAL GUESS ORBITALS FOLLOW.   BOTH SET(S).
    35 ORBITALS ARE OCCUPIED (   10 CORE ORBITALS).
    11=AG      12=BU      13=AG      14=BU      15=BU      16=AG      17=AG  
    18=AG      19=BU      20=AG      21=BU      22=AU      23=BU      24=BU  
    25=AG      26=BG      27=BU      28=AG      29=AU      30=BU      31=BU  
    32=BG      33=AG      34=BG      35=AG      36=AU      37=AU      38=BG  
    39=AU      40=BG      41=AG      42=AG      43=AG      44=AG      45=AG  
 ...... END OF INITIAL ORBITAL SELECTION ......
 STEP CPU TIME =     0.04 TOTAL CPU TIME =        0.1 (    0.0 MIN)
 TOTAL WALL CLOCK TIME=        0.1 SECONDS, CPU UTILIZATION IS  85.71%

                    ----------------------
                    AO INTEGRAL TECHNOLOGY
                    ----------------------
     S,P,L SHELL ROTATED AXIS INTEGRALS, REPROGRAMMED BY
        KAZUYA ISHIMURA (IMS) AND JOSE SIERRA (SYNSTAR).
     S,P,D,L SHELL ROTATED AXIS INTEGRALS PROGRAMMED BY
        KAZUYA ISHIMURA (INSTITUTE FOR MOLECULAR SCIENCE).
     S,P,D,F,G SHELL TO TOTAL QUARTET ANGULAR MOMENTUM SUM 5,
        ERIC PROGRAM BY GRAHAM FLETCHER (ELORET AND NASA ADVANCED
        SUPERCOMPUTING DIVISION, AMES RESEARCH CENTER).
     S,P,D,F,G,L SHELL GENERAL RYS QUADRATURE PROGRAMMED BY
        MICHEL DUPUIS (PACIFIC NORTHWEST NATIONAL LABORATORY).

          --------------------
          2 ELECTRON INTEGRALS
          --------------------

 THE -PK- OPTION IS OFF, THE INTEGRALS ARE NOT IN SUPERMATRIX FORM.
 STORING   15000 INTEGRALS/RECORD ON DISK, USING 12 BYTES/INTEGRAL.
 TWO ELECTRON INTEGRAL EVALUATION REQUIRES   89821 WORDS OF MEMORY.
 SCHWARZ INEQUALITY OVERHEAD:      1783 INTEGRALS, T=        0.00
 II,JST,KST,LST =  1  1  1  1 NREC =         1 INTLOC =    1
 II,JST,KST,LST =  2  1  1  1 NREC =         1 INTLOC =    1
 II,JST,KST,LST =  3  1  1  1 NREC =         1 INTLOC =    1
 II,JST,KST,LST =  4  1  1  1 NREC =         1 INTLOC =    3
 II,JST,KST,LST =  5  1  1  1 NREC =         1 INTLOC =  473
 II,JST,KST,LST =  6  1  1  1 NREC =         1 INTLOC =  473
 II,JST,KST,LST =  7  1  1  1 NREC =         1 INTLOC =  473
 II,JST,KST,LST =  8  1  1  1 NREC =         1 INTLOC =  877
 II,JST,KST,LST =  9  1  1  1 NREC =         1 INTLOC = 6372
 II,JST,KST,LST = 10  1  1  1 NREC =         1 INTLOC = 6372
 II,JST,KST,LST = 11  1  1  1 NREC =         1 INTLOC = 6372
 II,JST,KST,LST = 12  1  1  1 NREC =         1 INTLOC = 8941
 II,JST,KST,LST = 13  1  1  1 NREC =         3 INTLOC =  203
 II,JST,KST,LST = 14  1  1  1 NREC =         3 INTLOC =  203
 II,JST,KST,LST = 15  1  1  1 NREC =         3 INTLOC = 9729
 II,JST,KST,LST = 16  1  1  1 NREC =         3 INTLOC = 9729
 II,JST,KST,LST = 17  1  1  1 NREC =         4 INTLOC = 6449
 II,JST,KST,LST = 18  1  1  1 NREC =         4 INTLOC = 6449
 II,JST,KST,LST = 19  1  1  1 NREC =         4 INTLOC = 6449
 II,JST,KST,LST = 20  1  1  1 NREC =         5 INTLOC =  997
 II,JST,KST,LST = 21  1  1  1 NREC =         9 INTLOC = 8406
 II,JST,KST,LST = 22  1  1  1 NREC =         9 INTLOC = 8406
 II,JST,KST,LST = 23  1  1  1 NREC =        11 INTLOC = 3665
 II,JST,KST,LST = 24  1  1  1 NREC =        11 INTLOC = 3665
 II,JST,KST,LST = 25  1  1  1 NREC =        11 INTLOC = 3665
 II,JST,KST,LST = 26  1  1  1 NREC =        12 INTLOC = 1746
 II,JST,KST,LST = 27  1  1  1 NREC =        19 INTLOC = 2907
 II,JST,KST,LST = 28  1  1  1 NREC =        19 INTLOC = 2907
 II,JST,KST,LST = 29  1  1  1 NREC =        21 INTLOC =12224
 II,JST,KST,LST = 30  1  1  1 NREC =        21 INTLOC =12224
 SCHWARZ INEQUALITY TEST SKIPPED       22124 INTEGRAL BLOCKS.
 TOTAL NUMBER OF NONZERO TWO-ELECTRON INTEGRALS =              347845
         24 INTEGRAL RECORDS WERE STORED ON DISK FILE  8.
  ...... END OF TWO-ELECTRON INTEGRALS .....
 STEP CPU TIME =     0.21 TOTAL CPU TIME =        0.3 (    0.0 MIN)
 TOTAL WALL CLOCK TIME=        0.3 SECONDS, CPU UTILIZATION IS  93.10%

          --------------------------
             R-B3LYP SCF CALCULATION
          --------------------------

     NUCLEAR ENERGY =       445.9370123699
     MAXIT =   30     NPUNCH=    2
     EXTRAP=T  DAMP=F  SHIFT=F  RSTRCT=F  DIIS=T  DEM=F  SOSCF=F
         DENSITY MATRIX CONVERGENCE THRESHOLD=  1.00E-05
     COARSE -> FINE DFT GRID SWITCH THRESHOLD=  3.00E-04 (SWITCH IN $DFT)
                   HF -> DFT SWITCH THRESHOLD=  5.00E-03 (SWOFF IN $DFT)
     MEMORY REQUIRED FOR RHF ITERS=    708542 WORDS.

 DFT CODE IS SWITCHING FROM THE FINE GRID NRAD= 96,  NLEB=  302
                      TO THE COARSE GRID NRAD0= 24, NLEB0=  110

     EXCHANGE FUNCTIONAL   =B88&HFX   
     CORRELATION FUNCTIONAL=LYP88&VWN5
     DFT THRESHOLD         =.690E-08
     GRID CHANGE THRESHOLD =.300E-03
 FOR AN EULER-MACLAURIN QUADRATURE USING  96 RADIAL POINTS:
 SMALLEST GAUSSIAN PRIMITIVE EXPONENT=        0.1688554040 OF TYPE -S-
 ON ATOM NUMBER   7 HAS RADIAL NORMALIZATION=  1.000000
  LARGEST GAUSSIAN PRIMITIVE EXPONENT=       71.6168373490 OF TYPE -S-
 ON ATOM NUMBER   1 HAS RADIAL NORMALIZATION=  1.000000
 DFT IS SWITCHED OFF, PERFORMING PURE SCF UNTIL SWOFF THRESHOLD IS REACHED.

 ITER EX DEM     TOTAL ENERGY        E CHANGE  DENSITY CHANGE    DIIS ERROR
   1  0  0     -379.4387732971  -379.4387732971   0.191911914   0.665502982
          * * *   INITIATING DIIS PROCEDURE   * * *
   2  1  0     -379.7614509534    -0.3226776563   0.050332246   0.036502078
   3  2  0     -379.7682857286    -0.0068347752   0.016935169   0.010715896
   4  3  0     -379.7688447701    -0.0005590416   0.006148565   0.005596005
   5  4  0     -379.7689589026    -0.0001141325   0.001361835   0.001078739
 CONVERGED TO SWOFF, SO DFT CALCULATION IS NOW SWITCHED ON.
          * * *   INITIATING DIIS PROCEDURE   * * *
   6  5  0     -382.0439700926    -2.2750111900   0.045542338   0.095737673
   7  6  0     -382.0515864677    -0.0076163751   0.014678042   0.006138862
   8  7  0     -382.0518251732    -0.0002387055   0.006628706   0.003081015
   9  8  0     -382.0519124220    -0.0000872488   0.003369664   0.001952814
  10  9  0     -382.0519243688    -0.0000119467   0.000448638   0.000326078
