

     ************************************************************************
     *************** Dalton - An Electronic Structure Program ***************
     ************************************************************************

    This is output from DALTON 2013.4
   ----------------------------------------------------------------------------
    NOTE:
     
    Dalton is an experimental code for the evaluation of molecular
    properties using (MC)SCF, DFT, CI, and CC wave functions.
    The authors accept no responsibility for the performance of
    the code or for the correctness of the results.
     
    The code (in whole or part) is provided under a licence and
    is not to be reproduced for further distribution without
    the written permission of the authors or their representatives.
     
    See the home page "http://daltonprogram.org" for further information.
     
    If results obtained with this code are published,
    the appropriate citations would be both of:
     
       K. Aidas, C. Angeli, K. L. Bak, V. Bakken, R. Bast,
       L. Boman, O. Christiansen, R. Cimiraglia, S. Coriani,
       P. Dahle, E. K. Dalskov, U. Ekstroem, T. Enevoldsen,
       J. J. Eriksen, P. Ettenhuber, B. Fernandez, L. Ferrighi,
       H. Fliegl, L. Frediani, K. Hald, A. Halkier, C. Haettig,
       H. Heiberg, T. Helgaker, A. C. Hennum, H. Hettema,
       E. Hjertenaes, S. Hoest, I.-M. Hoeyvik, M. F. Iozzi,
       B. Jansik, H. J. Aa. Jensen, D. Jonsson, P. Joergensen,
       J. Kauczor, S. Kirpekar, T. Kjaergaard, W. Klopper,
       S. Knecht, R. Kobayashi, H. Koch, J. Kongsted, A. Krapp,
       K. Kristensen, A. Ligabue, O. B. Lutnaes, J. I. Melo,
       K. V. Mikkelsen, R. H. Myhre, C. Neiss, C. B. Nielsen,
       P. Norman, J. Olsen, J. M. H. Olsen, A. Osted,
       M. J. Packer, F. Pawlowski, T. B. Pedersen, P. F. Provasi,
       S. Reine, Z. Rinkevicius, T. A. Ruden, K. Ruud, V. Rybkin,
       P. Salek, C. C. M. Samson, A. Sanchez de Meras, T. Saue,
       S. P. A. Sauer, B. Schimmelpfennig, K. Sneskov,
       A. H. Steindal, K. O. Sylvester-Hvid, P. R. Taylor,
       A. M. Teale, E. I. Tellgren, D. P. Tew, A. J. Thorvaldsen,
       L. Thoegersen, O. Vahtras, M. A. Watson, D. J. D. Wilson,
       M. Ziolkowski and H. Aagren,
       "The Dalton quantum chemistry program system",
       WIREs Comput. Mol. Sci. 2013. (doi: 10.1002/wcms.1172)
    
    and
    
       Dalton, a Molecular Electronic Structure Program,
       Release DALTON2013.4 (2014), see http://daltonprogram.org
   ----------------------------------------------------------------------------

    Authors in alphabetical order (major contribution(s) in parenthesis):

  Kestutis Aidas,           Vilnius University,           Lithuania   (QM/MM)
  Celestino Angeli,         University of Ferrara,        Italy       (NEVPT2)
  Keld L. Bak,              UNI-C,                        Denmark     (AOSOPPA, non-adiabatic coupling, magnetic properties)
  Vebjoern Bakken,          University of Oslo,           Norway      (DALTON; geometry optimizer, symmetry detection)
  Radovan Bast,             KTH Stockholm,                Sweden      (DALTON installation and execution frameworks)
  Linus Boman,              NTNU,                         Norway      (Cholesky decomposition and subsystems)
  Ove Christiansen,         Aarhus University,            Denmark     (CC module)
  Renzo Cimiraglia,         University of Ferrara,        Italy       (NEVPT2)
  Sonia Coriani,            University of Trieste,        Italy       (CC module, MCD in RESPONS)
  Paal Dahle,               University of Oslo,           Norway      (Parallelization)
  Erik K. Dalskov,          UNI-C,                        Denmark     (SOPPA)
  Thomas Enevoldsen,        Univ. of Southern Denmark,    Denmark     (SOPPA)
  Janus J. Eriksen,         Aarhus University,            Denmark     (PE-MP2/SOPPA, TDA)
  Berta Fernandez,          U. of Santiago de Compostela, Spain       (doublet spin, ESR in RESPONS)
  Lara Ferrighi,            Aarhus University,            Denmark     (PCM Cubic response)
  Heike Fliegl,             University of Oslo,           Norway      (CCSD(R12))
  Luca Frediani,            UiT The Arctic U. of Norway,  Norway      (PCM)
  Bin Gao,                  UiT The Arctic U. of Norway,  Norway      (Gen1Int library)
  Christof Haettig,         Ruhr-University Bochum,       Germany     (CC module)
  Kasper Hald,              Aarhus University,            Denmark     (CC module)
  Asger Halkier,            Aarhus University,            Denmark     (CC module)
  Hanne Heiberg,            University of Oslo,           Norway      (geometry analysis, selected one-electron integrals)
  Trygve Helgaker,          University of Oslo,           Norway      (DALTON; ABACUS, ERI, DFT modules, London, and much more)
  Alf Christian Hennum,     University of Oslo,           Norway      (Parity violation)
  Hinne Hettema,            University of Auckland,       New Zealand (quadratic response in RESPONS; SIRIUS supersymmetry)
  Eirik Hjertenaes,         NTNU,                         Norway      (Cholesky decomposition)
  Maria Francesca Iozzi,    University of Oslo,           Norway      (RPA)
  Brano Jansik              Technical Univ. of Ostrava    Czech Rep.  (DFT cubic response)
  Hans Joergen Aa. Jensen,  Univ. of Southern Denmark,    Denmark     (DALTON; SIRIUS, RESPONS, ABACUS modules, London, and much more)
  Dan Jonsson,              UiT The Arctic U. of Norway,  Norway      (cubic response in RESPONS module)
  Poul Joergensen,          Aarhus University,            Denmark     (RESPONS, ABACUS, and CC modules)
  Joanna Kauczor,           Linkoeping University,        Sweden      (Complex polarization propagator (CPP) module)
  Sheela Kirpekar,          Univ. of Southern Denmark,    Denmark     (Mass-velocity & Darwin integrals)
  Wim Klopper,              KIT Karlsruhe,                Germany     (R12 code in CC, SIRIUS, and ABACUS modules)
  Stefan Knecht,            ETH Zurich,                   Switzerland (Parallel CI and MCSCF)
  Rika Kobayashi,           Australian National Univ.,    Australia   (DIIS in CC, London in MCSCF)
  Henrik Koch,              NTNU,                         Norway      (CC module, Cholesky decomposition)
  Jacob Kongsted,           Univ. of Southern Denmark,    Denmark     (Polarizable embedding, QM/MM)
  Andrea Ligabue,           University of Modena,         Italy       (CTOCD, AOSOPPA)
  Ola B. Lutnaes,           University of Oslo,           Norway      (DFT Hessian)
  Juan I. Melo,             University of Buenos Aires,   Argentina   (LRESC, Relativistic Effects on NMR Shieldings)
  Kurt V. Mikkelsen,        University of Copenhagen,     Denmark     (MC-SCRF and QM/MM)
  Rolf H. Myhre,            NTNU,                         Norway      (Cholesky, subsystems and ECC2)
  Christian Neiss,          Univ. Erlangen-Nuernberg,     Germany     (CCSD(R12))
  Christian B. Nielsen,     University of Copenhagen,     Denmark     (QM/MM)
  Patrick Norman,           Linkoeping University,        Sweden      (Cubic response and complex response in RESPONS)
  Jeppe Olsen,              Aarhus University,            Denmark     (SIRIUS CI/density modules)
  Jogvan Magnus H. Olsen,   Univ. of Southern Denmark,    Denmark     (Polarizable embedding, PE library, QM/MM)
  Anders Osted,             Copenhagen University,        Denmark     (QM/MM)
  Martin J. Packer,         University of Sheffield,      UK          (SOPPA)
  Filip Pawlowski,          Kazimierz Wielki University,  Poland      (CC3)
  Thomas B. Pedersen,       University of Oslo,           Norway      (Cholesky decomposition)
  Patricio F. Provasi,      University of Northeastern,   Argentina   (Analysis of coupling constants in localized orbitals)
  Zilvinas Rinkevicius,     KTH Stockholm,                Sweden      (open-shell DFT, ESR)
  Elias Rudberg,            KTH Stockholm,                Sweden      (DFT grid and basis info)
  Torgeir A. Ruden,         University of Oslo,           Norway      (Numerical derivatives in ABACUS)
  Kenneth Ruud,             UiT The Arctic U. of Norway,  Norway      (DALTON; ABACUS magnetic properties and  much more)
  Pawel Salek,              KTH Stockholm,                Sweden      (DALTON; DFT code)
  Claire C. M. Samson       University of Karlsruhe       Germany     (Boys localization, r12 integrals in ERI)
  Alfredo Sanchez de Meras, University of Valencia,       Spain       (CC module, Cholesky decomposition)
  Trond Saue,               Paul Sabatier University,     France      (direct Fock matrix construction)
  Stephan P. A. Sauer,      University of Copenhagen,     Denmark     (SOPPA(CCSD), SOPPA prop., AOSOPPA, vibrational g-factors)
  Bernd Schimmelpfennig,    Forschungszentrum Karlsruhe,  Germany     (AMFI module)
  Kristian Sneskov,         Aarhus University,            Denmark     (QM/MM, PE-CC)
  Arnfinn H. Steindal,      UiT The Arctic U. of Norway,  Norway      (parallel QM/MM)
  K. O. Sylvester-Hvid,     University of Copenhagen,     Denmark     (MC-SCRF)
  Peter R. Taylor,          VLSCI/Univ. of Melbourne,     Australia   (Symmetry handling ABACUS, integral transformation)
  Andrew M. Teale,          University of Nottingham,     England     (DFT-AC, DFT-D)
  David P. Tew,             University of Bristol,        England     (CCSD(R12))
  Olav Vahtras,             KTH Stockholm,                Sweden      (triplet response, spin-orbit, ESR, TDDFT, open-shell DFT)
  David J. Wilson,          La Trobe University,          Australia   (DFT Hessian and DFT magnetizabilities)
  Hans Agren,               KTH Stockholm,                Sweden      (SIRIUS module, RESPONS, MC-SCRF solvation model)
 --------------------------------------------------------------------------------

     Date and time (Linux)  : Mon Apr 27 14:31:55 2015
     Host name              : copper                                  

 * Work memory size             :    64000000 =  488.28 megabytes.

 * Directories for basis set searches:
   1) /home/eric/development/cclib_berquist/data/DALTON/basicDALTON-2013
   2) /home/eric/opt/apps/dalton/2013/build_omp/basis


Compilation information
-----------------------

 Who compiled             | eric
 Host                     | copper
 System                   | Linux-3.13.0-34-generic
 CMake generator          | Unix Makefiles
 Processor                | x86_64
 64-bit integers          | OFF
 MPI                      | OFF
 Fortran compiler         | /home/eric/opt/apps/intel/2013_sp1_update1/compose
                          | r_xe_2013_sp1.1.106/bin/intel64/ifort
 Fortran compiler version | ifort (IFORT) 14.0.1 20131008
 C compiler               | /home/eric/opt/apps/intel/2013_sp1_update1/compose
                          | r_xe_2013_sp1.1.106/bin/intel64/icc
 C compiler version       | icc (ICC) 14.0.1 20131008
 C++ compiler             | /home/eric/opt/apps/intel/2013_sp1_update1/compose
                          | r_xe_2013_sp1.1.106/bin/intel64/icpc
 C++ compiler version     | icpc (ICC) 14.0.1 20131008
 Static linking           | OFF
 Last Git revision        | 7abef2ada27562fe5e02849d6caeaa67c961732f
 Configuration time       | 2014-11-15 15:24:50.248793


   Content of the .dal input file
 ----------------------------------

BASIS                                             
STO-3G                                            
divinylbenzene                                    
Generated by Open Babel                           
AtomTypes=6 Angstrom                              
Charge=6.0 Atoms=6                                
C            -1.4152533224    0.2302217854    0.00
C             1.4152533224   -0.2302217854    0.00
C            -0.4951331558    1.3144608674    0.00
C             0.4951331558   -1.3144608674    0.00
C             0.8894090436    1.0909493743    0.00
C            -0.8894090436   -1.0909493743    0.00
Charge=1.0 Atoms=4                                
H            -0.8795511985    2.3437343748    0.00
H             0.8795511985   -2.3437343748    0.00
H             1.5779041557    1.9450061275    0.00
H            -1.5779041557   -1.9450061275    0.00
Charge=6.0 Atoms=2                                
C             2.8845844962   -0.5210893778    0.00
C            -2.8845844962    0.5210893778    0.00
Charge=1.0 Atoms=2                                
H             3.1403356810   -1.5919605685    0.00
H            -3.1403356810    1.5919605685    0.00
Charge=6.0 Atoms=2                                
C             3.8800428103    0.3822535424    0.00
C            -3.8800428103   -0.3822535424    0.00
Charge=1.0 Atoms=4                                
H             3.6946765858    1.4624389570    0.00
H            -3.6946765858   -1.4624389570    0.00
H             4.9316453546    0.0711049543    0.00
H            -4.9316453546   -0.0711049543    0.00
                                                  
**DALTON                                          
.RUN RESPONSE                                     
**WAVE FUNCTIONS                                  
.DFT                                              
B3LYP                                             
**RESPONSE                                        
*LINEAR                                           
.SINGLE RESIDUE                                   
.DIPLEN                                           
.ROOTS                                            
 5 5 5 5                                          
**END OF                                          


       *******************************************************************
       *********** Output from DALTON general input processing ***********
       *******************************************************************

 --------------------------------------------------------------------------------
   Overall default print level:    0
   Print level for DALTON.STAT:    1

    HERMIT 1- and 2-electron integral sections will be executed
    "Old" integral transformation used (limited to max 255 basis functions)
    Wave function sections will be executed (SIRIUS module)
    Dynamic molecular response properties section will be executed (RESPONSE module)
 --------------------------------------------------------------------------------


   ****************************************************************************
   *************** Output of molecule and basis set information ***************
   ****************************************************************************


    The two title cards from your ".mol" input:
    ------------------------------------------------------------------------
 1: divinylbenzene                                                          
 2: Generated by Open Babel                                                 
    ------------------------------------------------------------------------

  Coordinates are entered in Angstrom and converted to atomic units.
          - Conversion factor : 1 bohr = 0.52917721 A

  Atomic type no.    1
  --------------------
  Nuclear charge:   6.00000
  Number of symmetry independent centers:    6
  Number of basis sets to read;    2
  Basis set file used for this atomic type with Z =   6 :
     "/home/eric/opt/apps/dalton/2013/build_omp/basis/STO-3G"

  Atomic type no.    2
  --------------------
  Nuclear charge:   1.00000
  Number of symmetry independent centers:    4
  Number of basis sets to read;    2
  Basis set file used for this atomic type with Z =   1 :
     "/home/eric/opt/apps/dalton/2013/build_omp/basis/STO-3G"

  Atomic type no.    3
  --------------------
  Nuclear charge:   6.00000
  Number of symmetry independent centers:    2
  Number of basis sets to read;    2
  Basis set file used for this atomic type with Z =   6 :
     "/home/eric/opt/apps/dalton/2013/build_omp/basis/STO-3G"

  Atomic type no.    4
  --------------------
  Nuclear charge:   1.00000
  Number of symmetry independent centers:    2
  Number of basis sets to read;    2
  Basis set file used for this atomic type with Z =   1 :
     "/home/eric/opt/apps/dalton/2013/build_omp/basis/STO-3G"

  Atomic type no.    5
  --------------------
  Nuclear charge:   6.00000
  Number of symmetry independent centers:    2
  Number of basis sets to read;    2
  Basis set file used for this atomic type with Z =   6 :
     "/home/eric/opt/apps/dalton/2013/build_omp/basis/STO-3G"

  Atomic type no.    6
  --------------------
  Nuclear charge:   1.00000
  Number of symmetry independent centers:    4
  Number of basis sets to read;    2
  Basis set file used for this atomic type with Z =   1 :
     "/home/eric/opt/apps/dalton/2013/build_omp/basis/STO-3G"


                      SYMADD: Requested addition of symmetry
                      --------------------------------------

 Symmetry test threshold:  5.00E-06

@   The molecule is centered at center of mass and rotated
@   so principal axes of inertia are along coordinate axes.

 Symmetry class found: C(2h)          

 Symmetry Independent Centres             
 ----------------------------
       6 :      2.65435173     0.00000000     0.00000000  Isotope  1
       6 :     -1.33679823     2.29957212     0.00000000  Isotope  1
       6 :      1.34987787     2.34941252     0.00000000  Isotope  1
       6 :      2.84302643     4.75405952     0.00000000  Isotope  1
       6 :      1.90863933     7.11620100     0.00000000  Isotope  1
       1 :      4.73061964    -0.00581865     0.00000000  Isotope  1
       1 :     -2.38850486     4.08604068     0.00000000  Isotope  1
       1 :      4.90714746     4.49299343     0.00000000  Isotope  1
       1 :     -0.12506744     7.50794221     0.00000000  Isotope  1
       1 :      3.15939030     8.76861592     0.00000000  Isotope  1

 The following elements were found:   Z  XY    


                         SYMGRP: Point group information
                         -------------------------------

@    Full point group is: C(2h)          
@    Represented as:      C2h

@  * The irrep name for each symmetry:    1: Ag     2: Au     3: Bu     4: Bg 

   * The point group was generated by:

      Reflection in the xy-plane
      Rotation about the z-axis

   * Group multiplication table

        |  E   C2z   i   Oxy
   -----+--------------------
     E  |  E   C2z   i   Oxy
    C2z | C2z   E   Oxy   i 
     i  |  i   Oxy   E   C2z
    Oxy | Oxy   i   C2z   E 

   * Character table

        |  E   C2z   i   Oxy
   -----+--------------------
    Ag  |   1    1    1    1
    Au  |   1    1   -1   -1
    Bu  |   1   -1   -1    1
    Bg  |   1   -1    1   -1

   * Direct product table

        | Ag   Au   Bu   Bg 
   -----+--------------------
    Ag  | Ag   Au   Bu   Bg 
    Au  | Au   Ag   Bg   Bu 
    Bu  | Bu   Bg   Ag   Au 
    Bg  | Bg   Bu   Au   Ag 


                                 Isotopic Masses
                                 ---------------

                           C   _1     12.000000
                           C   _2     12.000000
                           C   _1     12.000000
                           C   _2     12.000000
                           C   _1     12.000000
                           C   _2     12.000000
                           H   _1      1.007825
                           H   _2      1.007825
                           H   _1      1.007825
                           H   _2      1.007825
                           C   _1     12.000000
                           C   _2     12.000000
                           H   _1      1.007825
                           H   _2      1.007825
                           C   _1     12.000000
                           C   _2     12.000000
                           H   _1      1.007825
                           H   _2      1.007825
                           H   _1      1.007825
                           H   _2      1.007825

                       Total mass:   130.078250 amu
                       Natural abundance:  89.395 %

 Center-of-mass coordinates (a.u.):    0.000000    0.000000    0.000000


  Atoms and basis sets
  --------------------

  Number of atom types :    6
  Total number of atoms:   20

  Basis set used is "STO-3G" from the basis set library.

  label    atoms   charge   prim   cont     basis
  ----------------------------------------------------------------------
  C           6    6.0000    15     5      [6s3p|2s1p]                                        
  H           4    1.0000     3     1      [3s|1s]                                            
  C           2    6.0000    15     5      [6s3p|2s1p]                                        
  H           2    1.0000     3     1      [3s|1s]                                            
  C           2    6.0000    15     5      [6s3p|2s1p]                                        
  H           4    1.0000     3     1      [3s|1s]                                            
  ----------------------------------------------------------------------
  total:     20   70.0000   180    60
  ----------------------------------------------------------------------

  Threshold for neglecting AO integrals:  1.00D-12


  Symmetry Coordinates
  --------------------

  Number of coordinates in each symmetry:    20   10   20   10

  Max    interatomic separation is    9.8643 Angstrom (   18.6409 Bohr)
  between atoms   20 and   19, "H   _2" and "H   _1".

  Min HX interatomic separation is    1.0960 Angstrom (    2.0711 Bohr)

  Min YX interatomic separation is    1.3442 Angstrom (    2.5402 Bohr)


  Bond distances (Angstrom):
  --------------------------

                  atom 1     atom 2       distance
                  ------     ------       --------
  bond distance:  C   _1     C   _1       1.422039
  bond distance:  C   _2     C   _2       1.422039
  bond distance:  C   _1     C   _1       1.421972
  bond distance:  C   _1     C   _2       1.402467
  bond distance:  C   _2     C   _2       1.421972
  bond distance:  C   _2     C   _1       1.402467
  bond distance:  H   _1     C   _1       1.098718
  bond distance:  H   _2     C   _2       1.098718
  bond distance:  H   _1     C   _1       1.097013
  bond distance:  H   _2     C   _2       1.097013
  bond distance:  C   _1     C   _1       1.497844
  bond distance:  C   _2     C   _2       1.497844
  bond distance:  H   _1     C   _1       1.100988
  bond distance:  H   _2     C   _2       1.100988
  bond distance:  C   _1     C   _1       1.344234
  bond distance:  C   _2     C   _2       1.344234
  bond distance:  H   _1     C   _1       1.095975
  bond distance:  H   _2     C   _2       1.095975
  bond distance:  H   _1     C   _1       1.096668
  bond distance:  H   _2     C   _2       1.096668


  Bond angles (degrees):
  ----------------------

                  atom 1     atom 2     atom 3         angle
                  ------     ------     ------         -----
  bond angle:     C   _1     C   _1     C   _1       117.978
  bond angle:     C   _1     C   _1     C   _1       119.122
  bond angle:     C   _1     C   _1     C   _1       122.901
  bond angle:     C   _2     C   _2     C   _2       117.978
  bond angle:     C   _2     C   _2     C   _2       119.122
  bond angle:     C   _2     C   _2     C   _2       122.901
  bond angle:     C   _1     C   _1     C   _2       121.149
  bond angle:     C   _1     C   _1     H   _1       119.201
  bond angle:     C   _2     C   _1     H   _1       119.650
  bond angle:     C   _2     C   _2     C   _1       121.149
  bond angle:     C   _2     C   _2     H   _2       119.201
  bond angle:     C   _1     C   _2     H   _2       119.650
  bond angle:     C   _1     C   _1     C   _2       120.874
  bond angle:     C   _1     C   _1     H   _1       119.423
  bond angle:     C   _2     C   _1     H   _1       119.704
  bond angle:     C   _2     C   _2     C   _1       120.874
  bond angle:     C   _2     C   _2     H   _2       119.423
  bond angle:     C   _1     C   _2     H   _2       119.704
  bond angle:     C   _1     C   _1     H   _1       114.630
  bond angle:     C   _1     C   _1     C   _1       126.580
  bond angle:     H   _1     C   _1     C   _1       118.791
  bond angle:     C   _2     C   _2     H   _2       114.630
  bond angle:     C   _2     C   _2     C   _2       126.580
  bond angle:     H   _2     C   _2     C   _2       118.791
  bond angle:     C   _1     C   _1     H   _1       122.485
  bond angle:     C   _1     C   _1     H   _1       121.295
  bond angle:     H   _1     C   _1     H   _1       116.220
  bond angle:     C   _2     C   _2     H   _2       122.485
  bond angle:     C   _2     C   _2     H   _2       121.295
  bond angle:     H   _2     C   _2     H   _2       116.220




 Principal moments of inertia (u*A**2) and principal axes
 --------------------------------------------------------

   IA     109.440483          0.348144    0.937441    0.000000
   IB     736.959951          0.937441   -0.348144    0.000000
   IC     846.400433          0.000000    0.000000    1.000000


 Rotational constants
 --------------------

@    The molecule is planar.

               A                   B                   C

           4617.8434            685.7618            597.0921 MHz
            0.154035            0.022875            0.019917 cm-1


@  Nuclear repulsion energy :  445.936979976608 Hartree


  Symmetry Orbitals
  -----------------

  Number of orbitals in each symmetry:          25    5   25    5


  Symmetry  Ag ( 1)

    1     C        1s         1 +    2
    2     C        1s         3 +    4
    3     C        2px        5 -    6
    4     C        2py        7 -    8
    5     C        1s        11 +   12
    6     C        1s        13 +   14
    7     C        2px       15 -   16
    8     C        2py       17 -   18
    9     C        1s        21 +   22
   10     C        1s        23 +   24
   11     C        2px       25 -   26
   12     C        2py       27 -   28
   13     H        1s        31 +   32
   14     H        1s        33 +   34
   15     C        1s        35 +   36
   16     C        1s        37 +   38
   17     C        2px       39 -   40
   18     C        2py       41 -   42
   19     H        1s        45 +   46
   20     C        1s        47 +   48
   21     C        1s        49 +   50
   22     C        2px       51 -   52
   23     C        2py       53 -   54
   24     H        1s        57 +   58
   25     H        1s        59 +   60


  Symmetry  Au ( 2)

   26     C        2pz        9 +   10
   27     C        2pz       19 +   20
   28     C        2pz       29 +   30
   29     C        2pz       43 +   44
   30     C        2pz       55 +   56


  Symmetry  Bu ( 3)

   31     C        1s         1 -    2
   32     C        1s         3 -    4
   33     C        2px        5 +    6
   34     C        2py        7 +    8
   35     C        1s        11 -   12
   36     C        1s        13 -   14
   37     C        2px       15 +   16
   38     C        2py       17 +   18
   39     C        1s        21 -   22
   40     C        1s        23 -   24
   41     C        2px       25 +   26
   42     C        2py       27 +   28
   43     H        1s        31 -   32
   44     H        1s        33 -   34
   45     C        1s        35 -   36
   46     C        1s        37 -   38
   47     C        2px       39 +   40
   48     C        2py       41 +   42
   49     H        1s        45 -   46
   50     C        1s        47 -   48
   51     C        1s        49 -   50
   52     C        2px       51 +   52
   53     C        2py       53 +   54
   54     H        1s        57 -   58
   55     H        1s        59 -   60


  Symmetry  Bg ( 4)

   56     C        2pz        9 -   10
   57     C        2pz       19 -   20
   58     C        2pz       29 -   30
   59     C        2pz       43 -   44
   60     C        2pz       55 -   56

  Symmetries of electric field:  Bu (3)  Bu (3)  Au (2)

  Symmetries of magnetic field:  Bg (4)  Bg (4)  Ag (1)


                     .---------------------------------------.
                     | Starting in Integral Section (HERMIT) |
                     `---------------------------------------'



 ***************************************************************************************
 ****************** Output from **INTEGRALS input processing (HERMIT) ******************
 ***************************************************************************************


 - Using defaults, no **INTEGRALS input found

 Default print level:        1

 * Nuclear model: Point charge

 Calculation of one- and two-electron Hamiltonian integrals.

 Center of mass  (bohr):      0.000000000000      0.000000000000      0.000000000000
 Operator center (bohr):      0.000000000000      0.000000000000      0.000000000000
 Gauge origin    (bohr):      0.000000000000      0.000000000000      0.000000000000
 Dipole origin   (bohr):      0.000000000000      0.000000000000      0.000000000000


     ************************************************************************
     ************************** Output from HERINT **************************
     ************************************************************************

 >>>  Time used in ONEDRV     is   0.61 seconds
 >>>  Time used in HUCKEL     is   0.48 seconds
 >>>  Time used in QUADRUP    is   0.20 seconds
 >>>  Time used in KINENE     is   0.12 seconds

 Threshold for neglecting two-electron integrals:  1.00D-12
 Number of two-electron integrals written:      491917 ( 29.4% )
 Megabytes written:                              5.634

 >>>  Time used in TWOINT     is   9.08 seconds
 >>>> Total CPU  time used in HERMIT:  10.63 seconds
 >>>> Total wall time used in HERMIT:   1.35 seconds


                        .----------------------------------.
                        | End of Integral Section (HERMIT) |
                        `----------------------------------'



                   .--------------------------------------------.
                   | Starting in Wave Function Section (SIRIUS) |
                   `--------------------------------------------'


 *** Output from Huckel module :

     Using EWMO model:          F
     Using EHT  model:          T
     Number of Huckel orbitals each symmetry:   25    5   25    5

 Huckel EHT eigenvalues for symmetry :  1
          -11.412667     -11.394444     -11.380082     -11.373930     -11.366652
           -1.590572      -1.271262      -1.005483      -0.873302      -0.806759
           -0.700274      -0.549017      -0.505801      -0.412120      -0.396237
           -0.236269      -0.222264      -0.218170      -0.210043      -0.202957
           -0.184659      -0.179254      -0.174633      -0.168871      -0.162771

 Huckel EHT eigenvalues for symmetry :  2
           -0.739871      -0.491895      -0.316005      -0.289880      -0.257531

 Huckel EHT eigenvalues for symmetry :  3
          -11.404364     -11.393031     -11.385456     -11.370506     -11.360644
           -1.419628      -1.246250      -1.068443      -0.839873      -0.667467
           -0.602988      -0.536545      -0.523208      -0.446556      -0.440004
           -0.245140      -0.227990      -0.211513      -0.204377      -0.203207
           -0.182591      -0.175467      -0.166167      -0.162339      -0.160749

 Huckel EHT eigenvalues for symmetry :  4
           -0.583648      -0.460396      -0.409222      -0.286360      -0.234191

 **********************************************************************
 *SIRIUS* a direct, restricted step, second order MCSCF program       *
 **********************************************************************

 
     Date and time (Linux)  : Mon Apr 27 14:31:57 2015
     Host name              : copper                                  

 Title lines from ".mol" input file:
     divinylbenzene                                                          
     Generated by Open Babel                                                 

 Print level on unit LUPRI =   2 is   0
 Print level on unit LUW4  =   2 is   5

@    Restricted, closed shell Kohn-Sham DFT calculation.

@    Time-dependent Kohn-Sham DFT calculation (TD-DFT).

 Initial molecular orbitals are obtained according to
 ".MOSTART EHT   " input option

     Wave function specification
     ============================
@    Wave function type        >>> KS-DFT <<<
@    Number of closed shell electrons          70
@    Number of electrons in active shells       0
@    Total charge of the molecule               0

@    Spin multiplicity and 2 M_S                1         0
@    Total number of symmetries                 4 (point group: C2h)
@    Reference state symmetry                   1 (irrep name : Ag )
 
     This is a DFT calculation of type: B3LYP
 Weighted mixed functional:
               HF exchange:    0.20000
                       VWN:    0.19000
                       LYP:    0.81000
                     Becke:    0.72000
                    Slater:    0.80000

     Orbital specifications
     ======================
     Abelian symmetry species          All |    1    2    3    4
                                           |  Ag   Au   Bu   Bg 
                                       --- |  ---  ---  ---  ---
     Total number of orbitals           60 |   25    5   25    5
     Number of basis functions          60 |   25    5   25    5

      ** Automatic occupation of RKS orbitals **

      -- Initial occupation of symmetries is determined from extended Huckel guess.           
      -- Initial occupation of symmetries is :
@    Occupied SCF orbitals              35 |   15    2   15    3

     Maximum number of Fock   iterations      0
     Maximum number of DIIS   iterations     60
     Maximum number of QC-SCF iterations     60
     Threshold for SCF convergence     1.00D-05
 
     This is a DFT calculation of type: B3LYP
 Weighted mixed functional:
               HF exchange:    0.20000
                       VWN:    0.19000
                       LYP:    0.81000
                     Becke:    0.72000
                    Slater:    0.80000


 >>>>> DIIS optimization of Hartree-Fock <<<<<

 C1-DIIS algorithm; max error vectors =    8

 Automatic occupation of symmetries with  70 electrons.

 Iter     Total energy    Error norm  Delta(E)    SCF occupation
 -----------------------------------------------------------------------------
      K-S energy, electrons, error :    -46.547567739269  69.9999799123   -2.01D-05
@  1  -381.645762476       4.00D+00  -3.82D+02    15   2  15   3
      Virial theorem: -V/T =      2.008993
@      MULPOP C   _1  0.15; C   _2  0.15; C   _1  0.12; C   _2  0.12; C   _1  0.11; C   _2  0.11; H   _1 -0.15; H   _2 -0.15; H   _1 -0.14; H   _2 -0.14; 
@             C   _1  0.23; C   _2  0.23; H   _1 -0.15; H   _2 -0.15; C   _1  0.08; C   _2  0.08; H   _1 -0.12; H   _2 -0.12; H   _1 -0.13; H   _2 -0.13; 
 -----------------------------------------------------------------------------
      K-S energy, electrons, error :    -46.647598211908  69.9999810409   -1.90D-05
@  2  -381.949594869       1.05D+00  -3.04D-01    15   2  15   3
      Virial theorem: -V/T =      2.013395
@      MULPOP C   _1 -0.16; C   _2 -0.16; C   _1 -0.17; C   _2 -0.17; C   _1 -0.15; C   _2 -0.15; H   _1  0.20; H   _2  0.20; H   _1  0.20; H   _2  0.20; 
@             C   _1 -0.41; C   _2 -0.41; H   _1  0.20; H   _2  0.20; C   _1 -0.04; C   _2 -0.04; H   _1  0.15; H   _2  0.15; H   _1  0.16; H   _2  0.16; 
 -----------------------------------------------------------------------------
      K-S energy, electrons, error :    -46.503728513833  69.9999801339   -1.99D-05
@  3  -381.933297171       1.18D+00   1.63D-02    15   2  15   3
      Virial theorem: -V/T =      2.016971
@      MULPOP C   _1  0.15; C   _2  0.15; C   _1 -0.05; C   _2 -0.05; C   _1 -0.09; C   _2 -0.09; H   _1  0.02; H   _2  0.02; H   _1  0.02; H   _2  0.02; 
@             C   _1  0.35; C   _2  0.35; H   _1  0.00; H   _2  0.00; C   _1 -0.57; C   _2 -0.57; H   _1  0.09; H   _2  0.09; H   _1  0.08; H   _2  0.08; 
 -----------------------------------------------------------------------------
      K-S energy, electrons, error :    -46.507829833546  69.9999810270   -1.90D-05
@  4  -382.043792264       2.96D-01  -1.10D-01    15   2  15   3
      Virial theorem: -V/T =      2.016965
@      MULPOP C   _1 -0.01; C   _2 -0.01; C   _1 -0.06; C   _2 -0.06; C   _1 -0.05; C   _2 -0.05; H   _1  0.06; H   _2  0.06; H   _1  0.06; H   _2  0.06; 
@             C   _1 -0.16; C   _2 -0.16; H   _1  0.07; H   _2  0.07; C   _1 -0.01; C   _2 -0.01; H   _1  0.05; H   _2  0.05; H   _1  0.05; H   _2  0.05; 
 -----------------------------------------------------------------------------
      K-S energy, electrons, error :    -46.526122235374  69.9999807912   -1.92D-05
@  5  -382.050675776       2.34D-02  -6.88D-03    15   2  15   3
      Virial theorem: -V/T =      2.016522
@      MULPOP C   _1 -0.02; C   _2 -0.02; C   _1 -0.07; C   _2 -0.07; C   _1 -0.08; C   _2 -0.08; H   _1  0.08; H   _2  0.08; H   _1  0.08; H   _2  0.08; 
@             C   _1 -0.07; C   _2 -0.07; H   _1  0.08; H   _2  0.08; C   _1 -0.15; C   _2 -0.15; H   _1  0.08; H   _2  0.08; H   _1  0.08; H   _2  0.08; 
 -----------------------------------------------------------------------------
      K-S energy, electrons, error :    -46.526439000426  69.9999807981   -1.92D-05
@  6  -382.050712120       7.66D-03  -3.63D-05    15   2  15   3
      Virial theorem: -V/T =      2.016514
@      MULPOP C   _1 -0.00; C   _2 -0.00; C   _1 -0.08; C   _2 -0.08; C   _1 -0.08; C   _2 -0.08; H   _1  0.08; H   _2  0.08; H   _1  0.08; H   _2  0.08; 
@             C   _1 -0.08; C   _2 -0.08; H   _1  0.08; H   _2  0.08; C   _1 -0.15; C   _2 -0.15; H   _1  0.08; H   _2  0.08; H   _1  0.08; H   _2  0.08; 
 -----------------------------------------------------------------------------
      K-S energy, electrons, error :    -46.526347037626  69.9999807981   -1.92D-05
@  7  -382.050716431       1.58D-03  -4.31D-06    15   2  15   3
      Virial theorem: -V/T =      2.016516
@      MULPOP C   _1 -0.00; C   _2 -0.00; C   _1 -0.08; C   _2 -0.08; C   _1 -0.08; C   _2 -0.08; H   _1  0.08; H   _2  0.08; H   _1  0.08; H   _2  0.08; 
@             C   _1 -0.08; C   _2 -0.08; H   _1  0.08; H   _2  0.08; C   _1 -0.15; C   _2 -0.15; H   _1  0.08; H   _2  0.08; H   _1  0.08; H   _2  0.08; 
 -----------------------------------------------------------------------------
      K-S energy, electrons, error :    -46.526336626954  69.9999807966   -1.92D-05
@  8  -382.050716649       1.82D-04  -2.18D-07    15   2  15   3
      Virial theorem: -V/T =      2.016516
@      MULPOP C   _1 -0.00; C   _2 -0.00; C   _1 -0.08; C   _2 -0.08; C   _1 -0.08; C   _2 -0.08; H   _1  0.08; H   _2  0.08; H   _1  0.08; H   _2  0.08; 
@             C   _1 -0.08; C   _2 -0.08; H   _1  0.08; H   _2  0.08; C   _1 -0.15; C   _2 -0.15; H   _1  0.08; H   _2  0.08; H   _1  0.08; H   _2  0.08; 
 -----------------------------------------------------------------------------
      K-S energy, electrons, error :    -46.526338679826  69.9999807967   -1.92D-05
@  9  -382.050716652       1.05D-04  -2.18D-09    15   2  15   3
      Virial theorem: -V/T =      2.016516
@      MULPOP C   _1 -0.00; C   _2 -0.00; C   _1 -0.08; C   _2 -0.08; C   _1 -0.08; C   _2 -0.08; H   _1  0.08; H   _2  0.08; H   _1  0.08; H   _2  0.08; 
@             C   _1 -0.08; C   _2 -0.08; H   _1  0.08; H   _2  0.08; C   _1 -0.15; C   _2 -0.15; H   _1  0.08; H   _2  0.08; H   _1  0.08; H   _2  0.08; 
 -----------------------------------------------------------------------------
      K-S energy, electrons, error :    -46.526338756379  69.9999807967   -1.92D-05
@ 10  -382.050716652       1.38D-05  -8.56D-10    15   2  15   3
      Virial theorem: -V/T =      2.016516
@      MULPOP C   _1 -0.00; C   _2 -0.00; C   _1 -0.08; C   _2 -0.08; C   _1 -0.08; C   _2 -0.08; H   _1  0.08; H   _2  0.08; H   _1  0.08; H   _2  0.08; 
@             C   _1 -0.08; C   _2 -0.08; H   _1  0.08; H   _2  0.08; C   _1 -0.15; C   _2 -0.15; H   _1  0.08; H   _2  0.08; H   _1  0.08; H   _2  0.08; 
 -----------------------------------------------------------------------------
      K-S energy, electrons, error :    -46.526338763620  69.9999807967   -1.92D-05
@ 11  -382.050716652       5.50D-07  -1.81D-11    15   2  15   3

@ *** DIIS converged in  11 iterations !
@     Converged SCF energy, gradient:   -382.050716652386    5.50D-07
    - total time used in SIRFCK :              0.00 seconds


 *** SCF orbital energy analysis ***

 Only the five lowest virtual orbital energies printed in each symmetry.

 Number of electrons :   70
 Orbital occupations :   15    2   15    3

 Sym       Kohn-Sham orbital energies

1 Ag    -10.01616531   -10.00394276   -10.00288623   -10.00209598    -9.98818092
         -0.80583148    -0.71422411    -0.58487247    -0.55551088    -0.50630122
         -0.45396879    -0.39229805    -0.34337028    -0.28932149    -0.28384131
          0.33612238     0.38491444     0.41398347     0.44301796     0.48199509

2 Au     -0.32087848    -0.20872854     0.04114110     0.09375556     0.18584991


3 Bu    -10.01621373   -10.00394366   -10.00288426   -10.00223886    -9.98818099
         -0.75030119    -0.69628273    -0.66366796    -0.52778529    -0.43556540
         -0.40737288    -0.39404885    -0.37078905    -0.34727582    -0.30741809
          0.34427344     0.38318090     0.41486883     0.42944016     0.45736720

4 Bg     -0.25985567    -0.19155689    -0.14937781     0.11436359     0.27596150


    E(LUMO) :     0.04114110 au (symmetry 2)
  - E(HOMO) :    -0.14937781 au (symmetry 4)
  ------------------------------------------
    gap     :     0.19051891 au

 >>> Writing SIRIFC interface file <<<

 >>>> CPU and wall time for SCF :      47.147       8.919


                       .-----------------------------------.
                       | >>> Final results from SIRIUS <<< |
                       `-----------------------------------'


@    Spin multiplicity:           1
@    Spatial symmetry:            1 ( irrep  Ag  in C2h )
@    Total charge of molecule:    0

@    Final DFT energy:           -382.050716652386                 
@    Nuclear repulsion:           445.936979976608
@    Electronic energy:          -827.987696628994

@    Final gradient norm:           0.000000550478

 
     Date and time (Linux)  : Mon Apr 27 14:32:05 2015
     Host name              : copper                                  

 (Only coefficients >0.0100 are printed.)

 Molecular orbitals for symmetry species 1  (Ag )
 ------------------------------------------------

    Orbital        11       12       13       14       15       16       17
   1 C   :1s     0.0323  -0.0217   0.0251   0.0034  -0.0070   0.0682  -0.0227
   2 C   :1s    -0.1064   0.0716  -0.0903  -0.0228   0.0338  -0.4014   0.1370
   3 C   :2px   -0.0943   0.0183   0.0836   0.0292   0.3104  -0.1769   0.0708
   4 C   :2py   -0.1061   0.0041  -0.0303  -0.2972  -0.0141  -0.2262  -0.1069
   5 C   :1s     0.0134   0.0251   0.0053  -0.0027  -0.0120   0.0282   0.0644
   6 C   :1s    -0.0516  -0.0840  -0.0269   0.0088   0.0356  -0.1736  -0.3933
   7 C   :2px   -0.1775   0.0345  -0.1668  -0.0274  -0.2253  -0.3041  -0.0454
   8 C   :2py   -0.0849   0.0748  -0.0805   0.3070   0.0313   0.0558  -0.1157
   9 C   :1s    -0.0198  -0.0182  -0.0075   0.0089   0.0076   0.0465   0.0200
  10 C   :1s     0.0563   0.0680   0.0254  -0.0247  -0.0220  -0.2810  -0.1276
  11 C   :2px    0.0320   0.0128  -0.1085   0.0063  -0.2965   0.1467   0.0912
  12 C   :2py   -0.1569   0.1411  -0.1088   0.2478   0.0078  -0.1871  -0.2544
  13 H   :1s    -0.1360  -0.0061  -0.1565  -0.0202  -0.2581   0.4138   0.2915
  14 H   :1s    -0.0904   0.1141   0.0079   0.2404   0.1514   0.4238   0.2950
  15 C   :1s    -0.0402   0.0277  -0.0169   0.0199  -0.0111  -0.0500  -0.0636
  16 C   :1s     0.1277  -0.0806   0.0713  -0.0828   0.0384   0.2820   0.3822
  17 C   :2px    0.1719   0.2073   0.1654   0.1271  -0.1672  -0.3472   0.3424
  18 C   :2py    0.1331  -0.1642  -0.1547   0.2176  -0.0573  -0.2317  -0.0501
  19 H   :1s     0.1531   0.1451   0.2003   0.0664  -0.1827   0.1445  -0.5796
  20 C   :1s     0.0169   0.0045   0.0105  -0.0083  -0.0047   0.0409   0.0199
  21 C   :1s    -0.0633   0.0001  -0.0271   0.0213   0.0184  -0.2370  -0.1109
  22 C   :2px    0.2026   0.1074  -0.2936  -0.0245   0.1158  -0.1812   0.3681
  23 C   :2py   -0.0655   0.3217   0.0573  -0.1456  -0.0029  -0.0909   0.1169
  24 H   :1s    -0.1792  -0.0250   0.2681   0.0523  -0.1159  -0.1078   0.3915
  25 H   :1s     0.0214   0.2626  -0.1431  -0.1355   0.0898   0.3586  -0.2525

 Molecular orbitals for symmetry species 2  (Au )
 ------------------------------------------------

    Orbital         1        2        3        4
   1 C   :2pz    0.3376  -0.0180  -0.4426   0.0319
   2 C   :2pz    0.2980  -0.1792   0.2323  -0.5827
   3 C   :2pz    0.2972  -0.1766   0.2775   0.5532
   4 C   :2pz    0.1740   0.4138  -0.2562  -0.0038
   5 C   :2pz    0.0924   0.4180   0.4496  -0.0108

 Molecular orbitals for symmetry species 3  (Bu )
 ------------------------------------------------

    Orbital        11       12       13       14       15       16       17
   1 C   :1s     0.0695   0.0227  -0.0026   0.0032   0.0103   0.0337  -0.0583
   2 C   :1s    -0.2354  -0.0774   0.0088  -0.0117  -0.0448  -0.1981   0.3382
   3 C   :2px   -0.0851   0.2569   0.0522   0.0946  -0.1707  -0.3144   0.0687
   4 C   :2py    0.0609   0.0574  -0.1035  -0.2252  -0.1948  -0.0279   0.4668
   5 C   :1s    -0.0474   0.0013  -0.0285  -0.0176  -0.0069  -0.0059   0.0250
   6 C   :1s     0.1629  -0.0016   0.0907   0.0636   0.0212   0.0286  -0.1521
   7 C   :2px    0.1870   0.0448  -0.3389  -0.0162  -0.0751  -0.3369  -0.0423
   8 C   :2py   -0.1350   0.1121  -0.0292   0.2454  -0.0159   0.1137   0.2609
   9 C   :1s    -0.0440   0.0118   0.0197  -0.0071  -0.0137  -0.0159   0.0051
  10 C   :1s     0.1529  -0.0368  -0.0622   0.0204   0.0473   0.0966  -0.0230
  11 C   :2px   -0.0439  -0.2552  -0.0976  -0.1336   0.1382  -0.2700  -0.1376
  12 C   :2py    0.2061   0.0342   0.2774  -0.1566  -0.0429   0.0944   0.3944
  13 H   :1s     0.2267   0.0366  -0.2523   0.0075  -0.0467   0.3219   0.1157
  14 H   :1s     0.2306   0.1326   0.2182  -0.0469  -0.0539  -0.2709  -0.4057
  15 C   :1s    -0.0153  -0.0026  -0.0019  -0.0011   0.0027   0.0077   0.0934
  16 C   :1s     0.0423   0.0149   0.0046  -0.0124  -0.0066  -0.0472  -0.5459
  17 C   :2px    0.0079  -0.0229   0.0407  -0.1237   0.2625  -0.3984   0.1703
  18 C   :2py    0.1306  -0.1852   0.0562   0.2462   0.0830  -0.0831   0.2913
  19 H   :1s     0.0281   0.0124   0.0167  -0.1456   0.2591   0.4339   0.1587
  20 C   :1s     0.0122   0.0011   0.0045  -0.0205   0.0035   0.0025  -0.0509
  21 C   :1s    -0.0508   0.0075  -0.0185   0.0566  -0.0144  -0.0192   0.2976
  22 C   :2px    0.0242  -0.2481   0.0737   0.0270  -0.2347  -0.3422   0.1447
  23 C   :2py   -0.1515   0.0516  -0.0215  -0.2720  -0.0588  -0.0505   0.0983
  24 H   :1s    -0.0422   0.2155  -0.0540  -0.0514   0.2310  -0.3231   0.0107
  25 H   :1s    -0.1051  -0.0871   0.0152  -0.1579  -0.2124   0.2837  -0.3521

 Molecular orbitals for symmetry species 4  (Bg )
 ------------------------------------------------

    Orbital         1        2        3        4        5
   1 C   :2pz    0.3490  -0.0058   0.3876   0.0234  -0.5435
   2 C   :2pz    0.1316  -0.4636   0.2151  -0.2407   0.4642
   3 C   :2pz    0.1321   0.4575   0.2308  -0.2322   0.4669
   4 C   :2pz    0.3765  -0.0004  -0.2237   0.5222   0.2877
   5 C   :2pz    0.2714   0.0096  -0.3974  -0.5231  -0.1561



 >>>> Total CPU  time used in SIRIUS :     48.48 seconds
 >>>> Total wall time used in SIRIUS :      9.11 seconds

 
     Date and time (Linux)  : Mon Apr 27 14:32:06 2015
     Host name              : copper                                  


                     .---------------------------------------.
                     | End of Wave Function Section (SIRIUS) |
                     `---------------------------------------'



                 .------------------------------------------------.
                 | Starting in Dynamic Property Section (RESPONS) |
                 `------------------------------------------------'


 ------------------------------------------------------------------------------
  RESPONSE  -  an MCSCF, MC-srDFT, DFT, and SOPPA response property program
 ------------------------------------------------------------------------------


 <<<<<<<<<< OUTPUT FROM RESPONSE INPUT PROCESSING >>>>>>>>>>




  Linear Response single residue calculation
 -------------------------------------------


    3 input options by user.

 Print level                                    : IPRPP  =   2
 Maximum number of iterations for eigenval.eqs. : MAXITP =  60
 Threshold for convergence of eigenvalue eqs.   : THCPP  = 1.000D-03
 Maximum iterations in optimal orbital algorithm: MAXITO =   5

      5 Excitation energies are calculated for symmetry no.    1

      5 Excitation energies are calculated for symmetry no.    2

      1 property residues are calculated with labels:

               ZDIPLEN 

      5 Excitation energies are calculated for symmetry no.    3

      2 property residues are calculated with labels:

               XDIPLEN 
               YDIPLEN 

      5 Excitation energies are calculated for symmetry no.    4

 Integral transformation: Total CPU and WALL times (sec)       2.383       0.342


   SCF energy         :     -382.050716652385688
 -- inactive part     :     -827.987696628993717
 -- nuclear repulsion :      445.936979976608029


                    *****************************************
                    *** DFT response calculation (TD-DFT) ***
                    *****************************************



 >>>>>>>>>> Linear response calculation
 >>>>>>>>>> Symmetry of excitation/property operator(s)    1  ( Ag )

 Number of excitations of this symmetry            5
 Number of response properties of this symmetry    0
 Number of C6/C8 properties of this symmetry       0


 Perturbation symmetry.     KSYMOP:       1
 Perturbation spin symmetry.TRPLET:       F
 Orbital variables.         KZWOPT:     312
 Configuration variables.   KZCONF:       0
 Total number of variables. KZVAR :     312
 Electrons in DFTMOMO:   69.99998079667097



 <<< EXCITATION ENERGIES AND TRANSITION MOMENT CALCULATION (MCTDHF) >>>

 Operator symmetry = 1  ( Ag ); triplet =   F


 *** THE REQUESTED    5 SOLUTION VECTORS CONVERGED

 Convergence of RSP solution vectors, threshold = 1.00D-03
 ---------------------------------------------------------------
 (dimension of paired reduced space:   44)
 RSP solution vector no.    1; norm of residual   1.09D-04
 RSP solution vector no.    2; norm of residual   6.62D-05
 RSP solution vector no.    3; norm of residual   1.49D-04
 RSP solution vector no.    4; norm of residual   1.53D-04
 RSP solution vector no.    5; norm of residual   5.35D-04

 *** RSPCTL MICROITERATIONS CONVERGED


 **************************************************************************************
 *** @ Excit. operator sym 1 & ref. state sym 1 => excited state symmetry 1  ( Ag ) ***
 **************************************************************************************



 @ Excited state no:    1 in symmetry 1  ( Ag )
 ----------------------------------------------

@ Excitation energy :  0.22840770     au
@                      6.2152896     eV;   50129.694     cm-1;   599.68431     kJ / mol

@ Total energy :      -381.82231     au


                            PBHT MO Overlap Diagnostic
                            --------------------------

  Reference: MJG Peach, P Benfield, T Helgaker, and DJ Tozer.
             J Chem Phys 128, 044118 (2008)


  The dominant contributions:

      I    A    K_IA      K_AI   <|I|*|A|> <I^2*A^2>    Weight   Contrib

     27   28  0.564533  0.007792  0.790146  0.644560  0.309960  0.244913
     58   59 -0.422308  0.013798  0.784974  0.651925  0.190188  0.149293

@ Overlap diagnostic LAMBDA =    0.7882


 @ Excited state no:    2 in symmetry 1  ( Ag )
 ----------------------------------------------

@ Excitation energy :  0.27224657     au
@                      7.4082059     eV;   59751.214     cm-1;   714.78325     kJ / mol

@ Total energy :      -381.77847     au


                            PBHT MO Overlap Diagnostic
                            --------------------------

  Reference: MJG Peach, P Benfield, T Helgaker, and DJ Tozer.
             J Chem Phys 128, 044118 (2008)


  The dominant contributions:

      I    A    K_IA      K_AI   <|I|*|A|> <I^2*A^2>    Weight   Contrib

     27   28  0.155585  0.023805  0.790146  0.644560  0.017366  0.013722
     27   29  0.568954  0.003196  0.391113  0.170129  0.320083  0.125189
     57   59 -0.325667  0.001135  0.403785  0.192369  0.106800  0.043124
     58   59  0.206827  0.023104  0.784974  0.651925  0.033754  0.026496

@ Overlap diagnostic LAMBDA =    0.4414


 @ Excited state no:    3 in symmetry 1  ( Ag )
 ----------------------------------------------

@ Excitation energy :  0.27376038     au
@                      7.4493989     eV;   60083.458     cm-1;   718.75776     kJ / mol

@ Total energy :      -381.77696     au


                            PBHT MO Overlap Diagnostic
                            --------------------------

  Reference: MJG Peach, P Benfield, T Helgaker, and DJ Tozer.
             J Chem Phys 128, 044118 (2008)


  The dominant contributions:

      I    A    K_IA      K_AI   <|I|*|A|> <I^2*A^2>    Weight   Contrib

     27   28 -0.369348 -0.057905  0.790146  0.644560  0.096997  0.076642
     27   29  0.127550 -0.000073  0.391113  0.170129  0.016288  0.006370
     56   59 -0.110356  0.016689  0.814013  0.728874  0.016141  0.013139
     57   59 -0.290279 -0.001273  0.403785  0.192369  0.083524  0.033726
     58   59 -0.494907 -0.055372  0.784974  0.651925  0.193191  0.151650

@ Overlap diagnostic LAMBDA =    0.6952


 @ Excited state no:    4 in symmetry 1  ( Ag )
 ----------------------------------------------

@ Excitation energy :  0.28435766     au
@                      7.7377654     eV;   62409.291     cm-1;   746.58091     kJ / mol

@ Total energy :      -381.76636     au


                            PBHT MO Overlap Diagnostic
                            --------------------------

  Reference: MJG Peach, P Benfield, T Helgaker, and DJ Tozer.
             J Chem Phys 128, 044118 (2008)


  The dominant contributions:

      I    A    K_IA      K_AI   <|I|*|A|> <I^2*A^2>    Weight   Contrib

     26   29 -0.089878  0.018836  0.758454  0.694311  0.011819  0.008964
     27   29 -0.393875 -0.010678  0.391113  0.170129  0.146840  0.057431
     57   59 -0.550146 -0.011535  0.403785  0.192369  0.290102  0.117139
     58   59  0.134972  0.016706  0.784974  0.651925  0.013987  0.010979

@ Overlap diagnostic LAMBDA =    0.4341


 @ Excited state no:    5 in symmetry 1  ( Ag )
 ----------------------------------------------

@ Excitation energy :  0.33641955     au
@                      9.1544416     eV;   73835.556     cm-1;   883.26939     kJ / mol

@ Total energy :      -381.71430     au


                            PBHT MO Overlap Diagnostic
                            --------------------------

  Reference: MJG Peach, P Benfield, T Helgaker, and DJ Tozer.
             J Chem Phys 128, 044118 (2008)


  The dominant contributions:

      I    A    K_IA      K_AI   <|I|*|A|> <I^2*A^2>    Weight   Contrib

     26   28 -0.671967 -0.013517  0.828442  0.685716  0.433556  0.359176
     27   30  0.125403 -0.006329  0.804718  0.712661  0.017353  0.013965
     58   60  0.172305 -0.013842  0.828429  0.691020  0.034651  0.028706

@ Overlap diagnostic LAMBDA =    0.8259


 Time used in polarization propagator calculation is     49.52 CPU seconds for symmetry 1


 >>>>>>>>>> Linear response calculation
 >>>>>>>>>> Symmetry of excitation/property operator(s)    2  ( Au )

 Number of excitations of this symmetry            5
 Number of response properties of this symmetry    0
 Number of C6/C8 properties of this symmetry       0


 Perturbation symmetry.     KSYMOP:       2
 Perturbation spin symmetry.TRPLET:       F
 Orbital variables.         KZWOPT:     125
 Configuration variables.   KZCONF:       0
 Total number of variables. KZVAR :     125
 Electrons in DFTMOMO:   69.99998079667097



 <<< EXCITATION ENERGIES AND TRANSITION MOMENT CALCULATION (MCTDHF) >>>

 Operator symmetry = 2  ( Au ); triplet =   F


 *** THE REQUESTED    5 SOLUTION VECTORS CONVERGED

 Convergence of RSP solution vectors, threshold = 1.00D-03
 ---------------------------------------------------------------
 (dimension of paired reduced space:   38)
 RSP solution vector no.    1; norm of residual   3.45D-04
 RSP solution vector no.    2; norm of residual   2.07D-04
 RSP solution vector no.    3; norm of residual   1.74D-04
 RSP solution vector no.    4; norm of residual   2.01D-04
 RSP solution vector no.    5; norm of residual   6.94D-04

 *** RSPCTL MICROITERATIONS CONVERGED

@ Transition operator type:    ZDIPLEN 
@ STATE NO:    1 *TRANSITION MOMENT: -7.62764937E-04 *ENERGY(eV):   7.6417128    
@ STATE NO:    2 *TRANSITION MOMENT:  4.27759311E-02 *ENERGY(eV):   7.8149882    
@ STATE NO:    3 *TRANSITION MOMENT:  1.63634731E-02 *ENERGY(eV):   8.9059501    
@ STATE NO:    4 *TRANSITION MOMENT:  2.79264932E-04 *ENERGY(eV):   9.0211433    
@ STATE NO:    5 *TRANSITION MOMENT:  2.97089743E-03 *ENERGY(eV):   9.3128309    


 **************************************************************************************
 *** @ Excit. operator sym 2 & ref. state sym 1 => excited state symmetry 2  ( Au ) ***
 **************************************************************************************



 @ Excited state no:    1 in symmetry 2  ( Au )
 ----------------------------------------------

@ Excitation energy :  0.28082779     au
@                      7.6417128     eV;   61634.574     cm-1;   737.31324     kJ / mol

@ Total energy :      -381.76989     au

@ Operator type:    ZDIPLEN 
@ Oscillator strength (LENGTH)   :  1.08925675E-07  (Transition moment : -7.62764937E-04 )


                            PBHT MO Overlap Diagnostic
                            --------------------------

  Reference: MJG Peach, P Benfield, T Helgaker, and DJ Tozer.
             J Chem Phys 128, 044118 (2008)


  The dominant contributions:

      I    A    K_IA      K_AI   <|I|*|A|> <I^2*A^2>    Weight   Contrib

     14   28 -0.157941  0.000608  0.546017  0.227913  0.025138  0.013726
     15   28 -0.683718 -0.001708  0.492599  0.193173  0.465137  0.229126

@ Overlap diagnostic LAMBDA =    0.4951


 @ Excited state no:    2 in symmetry 2  ( Au )
 ----------------------------------------------

@ Excitation energy :  0.28719554     au
@                      7.8149882     eV;   63032.135     cm-1;   754.03178     kJ / mol

@ Total energy :      -381.76352     au

@ Operator type:    ZDIPLEN 
@ Oscillator strength (LENGTH)   :  3.50336494E-04  (Transition moment :  4.27759311E-02 )


                            PBHT MO Overlap Diagnostic
                            --------------------------

  Reference: MJG Peach, P Benfield, T Helgaker, and DJ Tozer.
             J Chem Phys 128, 044118 (2008)


  The dominant contributions:

      I    A    K_IA      K_AI   <|I|*|A|> <I^2*A^2>    Weight   Contrib

     14   28  0.684178  0.004411  0.546017  0.227913  0.462083  0.252305
     15   28 -0.156194 -0.002027  0.492599  0.193173  0.023767  0.011708

@ Overlap diagnostic LAMBDA =    0.5427


 @ Excited state no:    3 in symmetry 2  ( Au )
 ----------------------------------------------

@ Excitation energy :  0.32728766     au
@                      8.9059501     eV;   71831.337     cm-1;   859.29361     kJ / mol

@ Total energy :      -381.72343     au

@ Operator type:    ZDIPLEN 
@ Oscillator strength (LENGTH)   :  5.84237380E-05  (Transition moment :  1.63634731E-02 )


                            PBHT MO Overlap Diagnostic
                            --------------------------

  Reference: MJG Peach, P Benfield, T Helgaker, and DJ Tozer.
             J Chem Phys 128, 044118 (2008)


  The dominant contributions:

      I    A    K_IA      K_AI   <|I|*|A|> <I^2*A^2>    Weight   Contrib

     14   29  0.227067  0.002087  0.420365  0.187227  0.050616  0.021277
     15   29  0.663822  0.003908  0.442182  0.192044  0.435488  0.192565

@ Overlap diagnostic LAMBDA =    0.4387


 @ Excited state no:    4 in symmetry 2  ( Au )
 ----------------------------------------------

@ Excitation energy :  0.33152093     au
@                      9.0211433     eV;   72760.432     cm-1;   870.40805     kJ / mol

@ Total energy :      -381.71920     au

@ Operator type:    ZDIPLEN 
@ Oscillator strength (LENGTH)   :  1.72366354E-08  (Transition moment :  2.79264932E-04 )


                            PBHT MO Overlap Diagnostic
                            --------------------------

  Reference: MJG Peach, P Benfield, T Helgaker, and DJ Tozer.
             J Chem Phys 128, 044118 (2008)


  The dominant contributions:

      I    A    K_IA      K_AI   <|I|*|A|> <I^2*A^2>    Weight   Contrib

     14   29  0.662224  0.001782  0.420365  0.187227  0.436184  0.183356
     15   29 -0.217953  0.000148  0.442182  0.192044  0.047568  0.021034

@ Overlap diagnostic LAMBDA =    0.4203


 @ Excited state no:    5 in symmetry 2  ( Au )
 ----------------------------------------------

@ Excitation energy :  0.34224025     au
@                      9.3128309     eV;   75113.052     cm-1;   898.55163     kJ / mol

@ Total energy :      -381.70848     au

@ Operator type:    ZDIPLEN 
@ Oscillator strength (LENGTH)   :  2.01379444E-06  (Transition moment :  2.97089743E-03 )


                            PBHT MO Overlap Diagnostic
                            --------------------------

  Reference: MJG Peach, P Benfield, T Helgaker, and DJ Tozer.
             J Chem Phys 128, 044118 (2008)


  The dominant contributions:

      I    A    K_IA      K_AI   <|I|*|A|> <I^2*A^2>    Weight   Contrib

     13   28 -0.670525 -0.003415  0.488389  0.190857  0.445036  0.217351
     45   59  0.189279  0.003010  0.494991  0.195912  0.034696  0.017174

@ Overlap diagnostic LAMBDA =    0.4887


 Time used in polarization propagator calculation is     39.11 CPU seconds for symmetry 2


 >>>>>>>>>> Linear response calculation
 >>>>>>>>>> Symmetry of excitation/property operator(s)    3  ( Bu )

 Number of excitations of this symmetry            5
 Number of response properties of this symmetry    0
 Number of C6/C8 properties of this symmetry       0


 Perturbation symmetry.     KSYMOP:       3
 Perturbation spin symmetry.TRPLET:       F
 Orbital variables.         KZWOPT:     313
 Configuration variables.   KZCONF:       0
 Total number of variables. KZVAR :     313
 Electrons in DFTMOMO:   69.99998079667097



 <<< EXCITATION ENERGIES AND TRANSITION MOMENT CALCULATION (MCTDHF) >>>

 Operator symmetry = 3  ( Bu ); triplet =   F


 *** THE REQUESTED    5 SOLUTION VECTORS CONVERGED

 Convergence of RSP solution vectors, threshold = 1.00D-03
 ---------------------------------------------------------------
 (dimension of paired reduced space:   48)
 RSP solution vector no.    1; norm of residual   7.27D-05
 RSP solution vector no.    2; norm of residual   4.45D-05
 RSP solution vector no.    3; norm of residual   2.88D-04
 RSP solution vector no.    4; norm of residual   1.90D-04
 RSP solution vector no.    5; norm of residual   3.76D-04

 *** RSPCTL MICROITERATIONS CONVERGED

@ Transition operator type:    XDIPLEN 
@ STATE NO:    1 *TRANSITION MOMENT:  0.26144181     *ENERGY(eV):   5.3359892    
@ STATE NO:    2 *TRANSITION MOMENT: -0.77759533     *ENERGY(eV):   5.3721474    
@ STATE NO:    3 *TRANSITION MOMENT: -0.75482492     *ENERGY(eV):   6.7711331    
@ STATE NO:    4 *TRANSITION MOMENT: -2.89353255E-02 *ENERGY(eV):   7.5479570    
@ STATE NO:    5 *TRANSITION MOMENT:  0.61094185     *ENERGY(eV):   8.0477212    

@ Transition operator type:    YDIPLEN 
@ STATE NO:    1 *TRANSITION MOMENT:   1.0784599     *ENERGY(eV):   5.3359892    
@ STATE NO:    2 *TRANSITION MOMENT:  -2.1410806     *ENERGY(eV):   5.3721474    
@ STATE NO:    3 *TRANSITION MOMENT:  0.72393748     *ENERGY(eV):   6.7711331    
@ STATE NO:    4 *TRANSITION MOMENT:  0.14867375     *ENERGY(eV):   7.5479570    
@ STATE NO:    5 *TRANSITION MOMENT:   1.6481400     *ENERGY(eV):   8.0477212    


 **************************************************************************************
 *** @ Excit. operator sym 3 & ref. state sym 1 => excited state symmetry 3  ( Bu ) ***
 **************************************************************************************



 @ Excited state no:    1 in symmetry 3  ( Bu )
 ----------------------------------------------

@ Excitation energy :  0.19609400     au
@                      5.3359892     eV;   43037.658     cm-1;   514.84472     kJ / mol

@ Total energy :      -381.85462     au

@ Operator type:    XDIPLEN 
@ Oscillator strength (LENGTH)   :  8.93558787E-03  (Transition moment :  0.26144181     )

@ Operator type:    YDIPLEN 
@ Oscillator strength (LENGTH)   :  0.15204812      (Transition moment :   1.0784599     )


                            PBHT MO Overlap Diagnostic
                            --------------------------

  Reference: MJG Peach, P Benfield, T Helgaker, and DJ Tozer.
             J Chem Phys 128, 044118 (2008)


  The dominant contributions:

      I    A    K_IA      K_AI   <|I|*|A|> <I^2*A^2>    Weight   Contrib

     57   28  0.482959 -0.002487  0.510407  0.314081  0.235658  0.120282
     58   28 -0.301772 -0.036251  0.923217  0.946907  0.070502  0.065088
     58   29 -0.415012  0.012811  0.531993  0.308755  0.183032  0.097372

@ Overlap diagnostic LAMBDA =    0.5793


 @ Excited state no:    2 in symmetry 3  ( Bu )
 ----------------------------------------------

@ Excitation energy :  0.19742279     au
@                      5.3721474     eV;   43329.294     cm-1;   518.33345     kJ / mol

@ Total energy :      -381.85329     au

@ Operator type:    XDIPLEN 
@ Oscillator strength (LENGTH)   :  7.95817193E-02  (Transition moment : -0.77759533     )

@ Operator type:    YDIPLEN 
@ Oscillator strength (LENGTH)   :  0.60335383      (Transition moment :  -2.1410806     )


                            PBHT MO Overlap Diagnostic
                            --------------------------

  Reference: MJG Peach, P Benfield, T Helgaker, and DJ Tozer.
             J Chem Phys 128, 044118 (2008)


  The dominant contributions:

      I    A    K_IA      K_AI   <|I|*|A|> <I^2*A^2>    Weight   Contrib

     57   28  0.252471  0.001286  0.510407  0.314081  0.063094  0.032204
     58   28  0.636410  0.079180  0.923217  0.946907  0.310506  0.286665
     58   29 -0.169345  0.006266  0.531993  0.308755  0.030839  0.016406

@ Overlap diagnostic LAMBDA =    0.8273


 @ Excited state no:    3 in symmetry 3  ( Bu )
 ----------------------------------------------

@ Excitation energy :  0.24883457     au
@                      6.7711331     eV;   54612.875     cm-1;   653.31507     kJ / mol

@ Total energy :      -381.80188     au

@ Operator type:    XDIPLEN 
@ Oscillator strength (LENGTH)   :  9.45174328E-02  (Transition moment : -0.75482492     )

@ Operator type:    YDIPLEN 
@ Oscillator strength (LENGTH)   :  8.69403885E-02  (Transition moment :  0.72393748     )


                            PBHT MO Overlap Diagnostic
                            --------------------------

  Reference: MJG Peach, P Benfield, T Helgaker, and DJ Tozer.
             J Chem Phys 128, 044118 (2008)


  The dominant contributions:

      I    A    K_IA      K_AI   <|I|*|A|> <I^2*A^2>    Weight   Contrib

     56   29 -0.146874  0.029381  0.375525  0.130681  0.031066  0.011666
     57   28  0.428963  0.055186  0.510407  0.314081  0.139709  0.071309
     57   30  0.117515 -0.028791  0.361655  0.126912  0.021406  0.007741
     58   29  0.530452  0.052943  0.531993  0.308755  0.228015  0.121302

@ Overlap diagnostic LAMBDA =    0.5120


 @ Excited state no:    4 in symmetry 3  ( Bu )
 ----------------------------------------------

@ Excitation energy :  0.27738232     au
@                      7.5479570     eV;   60878.383     cm-1;   728.26718     kJ / mol

@ Total energy :      -381.77333     au

@ Operator type:    XDIPLEN 
@ Oscillator strength (LENGTH)   :  1.54826133E-04  (Transition moment : -2.89353255E-02 )

@ Operator type:    YDIPLEN 
@ Oscillator strength (LENGTH)   :  4.08748435E-03  (Transition moment :  0.14867375     )


                            PBHT MO Overlap Diagnostic
                            --------------------------

  Reference: MJG Peach, P Benfield, T Helgaker, and DJ Tozer.
             J Chem Phys 128, 044118 (2008)


  The dominant contributions:

      I    A    K_IA      K_AI   <|I|*|A|> <I^2*A^2>    Weight   Contrib

     27   59  0.103434 -0.008226  0.948466  0.944335  0.012468  0.011825
     56   28  0.629292  0.011333  0.883156  0.788668  0.381874  0.337254
     58   30  0.284587 -0.014825  0.886718  0.787662  0.089648  0.079492

@ Overlap diagnostic LAMBDA =    0.8846


 @ Excited state no:    5 in symmetry 3  ( Bu )
 ----------------------------------------------

@ Excitation energy :  0.29574832     au
@                      8.0477212     eV;   64909.253     cm-1;   776.48709     kJ / mol

@ Total energy :      -381.75497     au

@ Operator type:    XDIPLEN 
@ Oscillator strength (LENGTH)   :  7.35920300E-02  (Transition moment :  0.61094185     )

@ Operator type:    YDIPLEN 
@ Oscillator strength (LENGTH)   :  0.53557365      (Transition moment :   1.6481400     )


                            PBHT MO Overlap Diagnostic
                            --------------------------

  Reference: MJG Peach, P Benfield, T Helgaker, and DJ Tozer.
             J Chem Phys 128, 044118 (2008)


  The dominant contributions:

      I    A    K_IA      K_AI   <|I|*|A|> <I^2*A^2>    Weight   Contrib

     26   59  0.091763 -0.017480  0.609922  0.290911  0.011934  0.007279
     27   59 -0.192408 -0.003999  0.948466  0.944335  0.035498  0.033669
     57   29  0.649174  0.072870  0.954643  0.954693  0.332126  0.317062
     58   30 -0.142127 -0.000024  0.886718  0.787662  0.020193  0.017906

@ Overlap diagnostic LAMBDA =    0.9221


 Time used in polarization propagator calculation is     53.86 CPU seconds for symmetry 3


 >>>>>>>>>> Linear response calculation
 >>>>>>>>>> Symmetry of excitation/property operator(s)    4  ( Bg )

 Number of excitations of this symmetry            5
 Number of response properties of this symmetry    0
 Number of C6/C8 properties of this symmetry       0


 Perturbation symmetry.     KSYMOP:       4
 Perturbation spin symmetry.TRPLET:       F
 Orbital variables.         KZWOPT:     125
 Configuration variables.   KZCONF:       0
 Total number of variables. KZVAR :     125
 Electrons in DFTMOMO:   69.99998079667097



 <<< EXCITATION ENERGIES AND TRANSITION MOMENT CALCULATION (MCTDHF) >>>

 Operator symmetry = 4  ( Bg ); triplet =   F


 *** THE REQUESTED    5 SOLUTION VECTORS CONVERGED

 Convergence of RSP solution vectors, threshold = 1.00D-03
 ---------------------------------------------------------------
 (dimension of paired reduced space:   46)
 RSP solution vector no.    1; norm of residual   1.33D-04
 RSP solution vector no.    2; norm of residual   3.02D-04
 RSP solution vector no.    3; norm of residual   3.07D-04
 RSP solution vector no.    4; norm of residual   3.47D-04
 RSP solution vector no.    5; norm of residual   2.64D-04

 *** RSPCTL MICROITERATIONS CONVERGED


 **************************************************************************************
 *** @ Excit. operator sym 4 & ref. state sym 1 => excited state symmetry 4  ( Bg ) ***
 **************************************************************************************



 @ Excited state no:    1 in symmetry 4  ( Bg )
 ----------------------------------------------

@ Excitation energy :  0.30656802     au
@                      8.3421402     eV;   67283.903     cm-1;   804.89422     kJ / mol

@ Total energy :      -381.74415     au


                            PBHT MO Overlap Diagnostic
                            --------------------------

  Reference: MJG Peach, P Benfield, T Helgaker, and DJ Tozer.
             J Chem Phys 128, 044118 (2008)


  The dominant contributions:

      I    A    K_IA      K_AI   <|I|*|A|> <I^2*A^2>    Weight   Contrib

     15   59  0.113639  0.002024  0.409018  0.100785  0.012458  0.005095
     45   28  0.689280  0.003778  0.505620  0.211490  0.469913  0.237597

@ Overlap diagnostic LAMBDA =    0.5029


 @ Excited state no:    2 in symmetry 4  ( Bg )
 ----------------------------------------------

@ Excitation energy :  0.33988167     au
@                      9.2486508     eV;   74595.404     cm-1;   892.35919     kJ / mol

@ Total energy :      -381.71083     au


                            PBHT MO Overlap Diagnostic
                            --------------------------

  Reference: MJG Peach, P Benfield, T Helgaker, and DJ Tozer.
             J Chem Phys 128, 044118 (2008)


  The dominant contributions:

      I    A    K_IA      K_AI   <|I|*|A|> <I^2*A^2>    Weight   Contrib

     14   59 -0.204152 -0.001793  0.456517  0.150045  0.040949  0.018694
     15   59 -0.120714  0.000300  0.409018  0.100785  0.014644  0.005990
     44   28  0.651138  0.002508  0.563887  0.246550  0.420720  0.237239

@ Overlap diagnostic LAMBDA =    0.5469


 @ Excited state no:    3 in symmetry 4  ( Bg )
 ----------------------------------------------

@ Excitation energy :  0.35998701     au
@                      9.7957450     eV;   79008.017     cm-1;   945.14576     kJ / mol

@ Total energy :      -381.69073     au


                            PBHT MO Overlap Diagnostic
                            --------------------------

  Reference: MJG Peach, P Benfield, T Helgaker, and DJ Tozer.
             J Chem Phys 128, 044118 (2008)


  The dominant contributions:

      I    A    K_IA      K_AI   <|I|*|A|> <I^2*A^2>    Weight   Contrib

     14   59  0.194985  0.001091  0.456517  0.150045  0.037595  0.017163
     15   59 -0.590000 -0.001555  0.409018  0.100785  0.346268  0.141630
     43   28  0.132166  0.000865  0.395238  0.108285  0.017240  0.006814
     45   28  0.119396 -0.001583  0.505620  0.211490  0.014636  0.007400
     45   29 -0.244778 -0.000833  0.202127  0.041227  0.059509  0.012028

@ Overlap diagnostic LAMBDA =    0.3941


 @ Excited state no:    4 in symmetry 4  ( Bg )
 ----------------------------------------------

@ Excitation energy :  0.36349070     au
@                      9.8910852     eV;   79776.987     cm-1;   954.34469     kJ / mol

@ Total energy :      -381.68723     au


                            PBHT MO Overlap Diagnostic
                            --------------------------

  Reference: MJG Peach, P Benfield, T Helgaker, and DJ Tozer.
             J Chem Phys 128, 044118 (2008)


  The dominant contributions:

      I    A    K_IA      K_AI   <|I|*|A|> <I^2*A^2>    Weight   Contrib

     14   59  0.537033  0.001600  0.456517  0.150045  0.286688  0.130878
     43   28 -0.290996 -0.001567  0.395238  0.108285  0.083770  0.033109
     44   28  0.214446 -0.000078  0.563887  0.246550  0.046021  0.025951
     45   29  0.244454  0.000797  0.202127  0.041227  0.059369  0.012000

@ Overlap diagnostic LAMBDA =    0.4265


 @ Excited state no:    5 in symmetry 4  ( Bg )
 ----------------------------------------------

@ Excitation energy :  0.36553804     au
@                      9.9467961     eV;   80226.326     cm-1;   959.71998     kJ / mol

@ Total energy :      -381.68518     au


                            PBHT MO Overlap Diagnostic
                            --------------------------

  Reference: MJG Peach, P Benfield, T Helgaker, and DJ Tozer.
             J Chem Phys 128, 044118 (2008)


  The dominant contributions:

      I    A    K_IA      K_AI   <|I|*|A|> <I^2*A^2>    Weight   Contrib

     14   59 -0.140712 -0.000057  0.456517  0.150045  0.019784  0.009032
     15   59 -0.250181 -0.000029  0.409018  0.100785  0.062576  0.025595
     43   28  0.182078  0.000068  0.395238  0.108285  0.033127  0.013093
     45   29  0.606958  0.000291  0.202127  0.041227  0.368044  0.074392

@ Overlap diagnostic LAMBDA =    0.2601


 Time used in polarization propagator calculation is     47.74 CPU seconds for symmetry 4

 >>>> Total CPU  time used in RESPONSE:  3 minutes 13 seconds
 >>>> Total wall time used in RESPONSE:  48.33 seconds


                   .-------------------------------------------.
                   | End of Dynamic Property Section (RESPONS) |
                   `-------------------------------------------'

 >>>> Total CPU  time used in DALTON:  4 minutes 13 seconds
 >>>> Total wall time used in DALTON:  59.17 seconds

 
     Date and time (Linux)  : Mon Apr 27 14:32:54 2015
     Host name              : copper                                  
