   This run of MOLCAS is using the pymolcas driver

                             OPE
                             OPE          NMOL  CASOP  ENMOLC A   SO
                 OPE        NMOLC        AS  OP EN  MO LC     AS  OP
                OPENM       OL CA        SO  PE NM  OL CA     SOP EN
                OP EN      MO   LC       AS  OP ENMOL  CASO   PENMOL
                OP  EN     MO   LC       AS  OP EN     MO     LC ASO
               OP   E  NMOL  C  AS       OP  EN MO     LC     AS  OP
               OP  E   NMO   LC AS        OPEN  MO     LCASOP EN   M
               O  PEN   MO  LCA  SO
            OPE   NMO   L   CAS    OP
        OPENMOL  CASOP     ENMOL   CASOPE
     OPENMOLCA   SOPENMOLCASOPEN   MOLCASOPE
    OPENMOLCAS   OP           EN   MOL    CAS
    OPENMOLCAS       OP  ENM        O     LCA
    OPENMOLCAS    OPEN  MOLCASO     P  E  NMO
    OPENMOLCAS     OP               E  N  MOL
    OPENMOLCA   SO           PENM   O  L  CAS    OPEN    MO    LCAS
    OPENMOLCA   SOP           ENM   O  L  CAS   OP  EN  MOLC  AS   O
    OPENMOLCA   SOPE           NM      O  LCA   S      OP  EN MO
    OPENMOLC                AS         O  PEN   M      OL  CA  SOPE
    OPENMO        LCASOPE  NMOL        C  ASO   P      ENMOLC     AS
    OPE     NMO      LCA  SO     P     E   NM   OL  CA SO  PE N   MO
          OPENMOLCA            SOPE   NMO        LCAS  O    P  ENMO
     OPENMOLCASOPENMOLCASOPENMOLCASOPENMOLCA
        OPENMOLCASOPENMOLCASOPENMOLCASOPE
            OPENMOLCASOPENMOLCASOPENM
               OPENMOLCASOPENMOLCA        version 18.0
                   OPENMOLCASO
                       OPE                tag o180311-1800

 OpenMolcas is free software; you can redistribute it and/or modify it
 under the terms of the GNU Lesser General Public License version 2.1.
 OpenMolcas is distributed in the hope that it will be useful, but it
 is provided "as is" and without any express or implied warranties.
 For more details see the full text of the license in the file
 LICENSE or in <http://www.gnu.org/licenses/>.

                 Copyright (C) The OpenMolcas Authors
           For the author list and the recommended citation,
                   consult the file CONTRIBUTORS.md

           *************************************************
           * pymolcas version py1.10                       *
           *   build 9ead62c274ce0aa10a12879e848d75c9      *
           *   (after the EMIL interpreter by V. Veryazov) *
           *************************************************

configuration info
------------------
C Compiler ID: GNU
C flags: -std=gnu99
Fortran Compiler ID: GNU
Fortran flags: -cpp -fno-aggressive-loop-optimizations -fdefault-integer-8
Definitions: _MOLCAS_;_I8_;_LINUX_
Parallel: OFF (GA=OFF)


   ------------------------------------------------
  |
  |           Project: MoOCl4_sp
  |    Submitted from: /home/kunal/OpenMolcas/build
  |      Scratch area: /tmp/MoOCl4_sp
  |   Save outputs to: /home/kunal/OpenMolcas/build
  |            Molcas: /home/kunal/OpenMolcas/build
  |
  | Scratch area is NOT empty
  |
  |    MOLCAS_DRIVER = /usr/local/sbin/pymolcas
  |    MOLCAS_NPROCS = 1
  |    MOLCAS_SOURCE = /home/kunal/OpenMolcas
  | MOLCAS_STRUCTURE = 0
  |
   ------------------------------------------------

++ ---------   Input file   ---------

&GATEWAY
 coord
 6

 Mo     0.000325    -0.000325     0.051810
 O     0.000206    -0.000206     1.741504
Cl     1.711727    -1.711727    -0.659846
Cl    -1.710992    -1.711738    -0.660079
Cl    -1.711004     1.711004    -0.660311
Cl     1.711738     1.710992    -0.660079
 basis = ANO-RCC-MB
 group = nosym

&SEWARD

&SCF
 ksdft = b3lyp

-- ----------------------------------

*** symbolic link created: INPORB -> MoOCl4_sp.ScfOrb
--- Start Module: gateway at Fri Aug  3 02:57:47 2018 ---

()()()()()()()()()()()()()()()()()()()()()()()()()()()()()()()()()()()()()()()()()()()()()()()()()()

                                              &GATEWAY

                                   only a single process is used
                       available to each process: 2.0 GB of memory, 1 thread
()()()()()()()()()()()()()()()()()()()()()()()()()()()()()()()()()()()()()()()()()()()()()()()()()()


++    Symmetry information:
      ---------------------

                    Character Table for C1 

                             E  
                    a        1  x, y, xy, Rz, z, xz, Ry, yz, Rx, I
--


++    Basis set information:
      ----------------------


      Basis set label: MO.ANO-RCC...5S4P2D.

      Electronic valence basis set:
      ------------------
      Associated Effective Charge 42.000000 au
      Associated Actual Charge    42.000000 au
      Nuclear Model: Point charge

      Shell  nPrim  nBasis  Cartesian Spherical Contaminant
         s      21       5        X                  
         p      18       4        X                  
         d      13       2                 X         


      Basis set label: O.ANO-RCC...2S1P.

      Electronic valence basis set:
      ------------------
      Associated Effective Charge  8.000000 au
      Associated Actual Charge     8.000000 au
      Nuclear Model: Point charge

      Shell  nPrim  nBasis  Cartesian Spherical Contaminant
         s      14       2        X                  
         p       9       1        X                  


      Basis set label: CL.ANO-RCC...3S2P.

      Electronic valence basis set:
      ------------------
      Associated Effective Charge 17.000000 au
      Associated Actual Charge    17.000000 au
      Nuclear Model: Point charge

      Shell  nPrim  nBasis  Cartesian Spherical Contaminant
         s      17       3        X                  
         p      12       2        X                  
--


++    Molecular structure info:
      -------------------------

                    ************************************************ 
                    **** Cartesian Coordinates / Bohr, Angstrom **** 
                    ************************************************ 

     Center  Label                x              y              z                     x              y              z
        1      MO1              0.000614      -0.000614       0.097907              0.000325      -0.000325       0.051810
        2      O2               0.000389      -0.000389       3.290966              0.000206      -0.000206       1.741504
        3      CL3              3.234695      -3.234695      -1.246928              1.711727      -1.711727      -0.659846
        4      CL4             -3.233306      -3.234716      -1.247369             -1.710992      -1.711738      -0.660079
        5      CL5             -3.233329       3.233329      -1.247807             -1.711004       1.711004      -0.660311
        6      CL6              3.234716       3.233306      -1.247369              1.711738       1.710992      -0.660079

                    *************************************** 
                    *    InterNuclear Distances / Bohr    * 
                    *************************************** 

               1 MO1           2 O2            3 CL3           4 CL4           5 CL5           6 CL6   
    1 MO1      0.000000
    2 O2       3.193059        0.000000
    3 CL3      4.767299        6.443132        0.000000
    4 CL4      4.767329        6.443146        6.468002        0.000000
    5 CL5      4.767360        6.443161        9.147168        6.468045        0.000000
    6 CL6      4.767329        6.443146        6.468002        9.147165        6.468045        0.000000

                    ******************************************* 
                    *    InterNuclear Distances / Angstrom    * 
                    ******************************************* 

               1 MO1           2 O2            3 CL3           4 CL4           5 CL5           6 CL6   
    1 MO1      0.000000
    2 O2       1.689694        0.000000
    3 CL3      2.522746        3.409559        0.000000
    4 CL4      2.522762        3.409566        3.422719        0.000000
    5 CL5      2.522778        3.409574        4.840473        3.422742        0.000000
    6 CL6      2.522762        3.409566        3.422719        4.840471        3.422742        0.000000
--


            Nuclear Potential Energy           1030.65099620 au

--- Stop Module: gateway at Fri Aug  3 02:57:47 2018 /rc=_RC_ALL_IS_WELL_ ---
*** files: xmldump
    saved to directory /home/kunal/OpenMolcas/build

*** symbolic link created: INPORB -> MoOCl4_sp.ScfOrb
--- Start Module: seward at Fri Aug  3 02:57:47 2018 ---

()()()()()()()()()()()()()()()()()()()()()()()()()()()()()()()()()()()()()()()()()()()()()()()()()()

                                              &SEWARD

                                   only a single process is used
                       available to each process: 2.0 GB of memory, 1 thread
()()()()()()()()()()()()()()()()()()()()()()()()()()()()()()()()()()()()()()()()()()()()()()()()()()

               SEWARD will generate:
                  Multipole Moment integrals up to order  2
                  Kinetic Energy integrals
                  Nuclear Attraction integrals (point charge)
                  One-Electron Hamiltonian integrals
                  Velocity integrals
                  Relativistic Douglas-Kroll-Hess integrals:
                    - Parametrization         : EXP
                    - DKH order of Hamiltonian: 2
                    - DKH order of Properties : 0
                         - multipole moment operators
                         - electric potential operators
                         - contact operators
                  Atomic mean-field integrals
                  Two-Electron Repulsion integrals

                   Integrals are discarded if absolute value <: 0.10E-13
                   Integral cutoff threshold is set to       <: 0.10E-15

            Nuclear Potential Energy           1030.65099620 au


      Basis set specifications :
      Symmetry species         a  
      Basis functions           68


  Input file to MOLDEN was generated!

--- Stop Module: seward at Fri Aug  3 02:58:10 2018 /rc=_RC_ALL_IS_WELL_ ---
*** files: MoOCl4_sp.GssOrb MoOCl4_sp.guessorb.h5 MoOCl4_sp.guessorb.molden xmldump
    saved to directory /home/kunal/OpenMolcas/build
--- Module seward spent 22 seconds ---

*** symbolic link created: INPORB -> MoOCl4_sp.ScfOrb
--- Start Module: scf at Fri Aug  3 02:58:10 2018 ---

()()()()()()()()()()()()()()()()()()()()()()()()()()()()()()()()()()()()()()()()()()()()()()()()()()

                                                &SCF

                                   only a single process is used
                       available to each process: 2.0 GB of memory, 1 thread
()()()()()()()()()()()()()()()()()()()()()()()()()()()()()()()()()()()()()()()()()()()()()()()()()()

 ###############################################################################
 ###############################################################################
 ###                                                                         ###
 ###                                                                         ###
 ###     Minimized-density-differences option turned off!                    ###
 ###                                                                         ###
 ###                                                                         ###
 ###############################################################################
 ###############################################################################
++    Input section:
      --------------

      Header of the integral files:
      
       Integrals generated by seward 4.2.0  , Fri Aug  3 02:57:48 2018


      Cartesian coordinates in Angstrom:
      -----------------------------------------------------
      No.  Label        X            Y            Z        
      -----------------------------------------------------
       1   MO1        0.00032500  -0.00032500   0.05181000
       2   O2         0.00020600  -0.00020600   1.74150400
       3   CL3        1.71172700  -1.71172700  -0.65984600
       4   CL4       -1.71099200  -1.71173800  -0.66007900
       5   CL5       -1.71100400   1.71100400  -0.66031100
       6   CL6        1.71173800   1.71099200  -0.66007900
      -----------------------------------------------------
      Nuclear repulsion energy = 1030.65099620
--

++    Orbital specifications:
      -----------------------

      Symmetry species               1
                                     a
      Frozen orbitals                0
      Aufbau                        59
      Start temperature = 0.500
      End temperature   = 0.010
      Temperature Factor= 0.460
      Deleted orbitals               0
      Total number of orbitals      68
      Number of basis functions     68
--

      Molecular charge                           0.000


      The same grid will be used for all iterations.

++    Optimization specifications:
      ----------------------------

      SCF Algorithm: Conventional
      D(i)-D(i-1) density differences are used
      Number of density matrices in core                5
      Maximum number of NDDO SCF iterations           400
      Maximum number of HF SCF iterations             400
      Threshold for SCF energy change            0.10E-08
      Threshold for density matrix               0.10E-03
      Threshold for Fock matrix                  0.15E-03
      Threshold for linear dependence            0.10E-08
      Threshold at which DIIS is turned on       0.15E+00
      Threshold at which QNR/C2DIIS is turned on 0.75E-01
      Threshold for Norm(delta) (QNR/C2DIIS)     0.20E-04
      DIIS extrapolation of the SCF procedure
      All orbitals punched on: SCFORB
--

      Detected guessorb starting orbitals                                             


++ Convergence information
                                   B3LYP      iterations: Energy and convergence statistics

Iter     Tot. B3LYP      One-elec.       Two-elec.     Energy      Max Dij or  Max Fij      DNorm      TNorm      AccCon     Time
         Energy          Energy          Energy        Change      Delta Norm                                                in Sec.

 The total and one-electron energies are shifted by a value of      5000. a.u.

   1  -966.080186265 -5527.172338380  3530.441155914   0.00E+00    0.42E+00*   0.39E+00*    0.16E+02   0.56E+03   None         2.
   2  -965.873095526 -5433.214123266  3436.690031540   0.21E+00*   0.22E+00*   0.27E+00*    0.56E+01   0.55E+03   EDIIS        2.
   3  -968.224543007 -5492.939579321  3494.064040114  -0.24E+01*   0.41E+00*   0.20E+00*    0.37E+01   0.55E+03   EDIIS        2.
   4  -964.542154870 -5507.107387741  3511.914236671   0.37E+01*   0.17E+00*   0.20E+00*    0.42E+01   0.56E+03   EDIIS        2.
   5  -968.477847185 -5433.161491548  3434.032648163  -0.39E+01*   0.72E+00*   0.14E+00*    0.31E+01   0.55E+03   EDIIS        2.
   6  -966.868684773 -5545.956907047  3548.437226074   0.16E+01*   0.45E+00*   0.74E-01*    0.48E+01   0.56E+03   EDIIS        2.
   7  -969.135945124 -5493.229813462  3493.442872137  -0.23E+01*   0.41E+00*   0.82E-01*    0.31E+01   0.55E+03   EDIIS        2.
   8  -969.718464523 -5481.935696595  3481.566235872  -0.58E+00*   0.48E+00*   0.56E-01*    0.26E+01   0.55E+03   EDIIS        2.
   9  -969.704215827 -5460.498897408  3460.143685380   0.14E-01*   0.19E+00*   0.49E-01*    0.17E+01   0.55E+03   EDIIS        2.
  10  -969.874993667 -5485.723913777  3485.197923910  -0.17E+00*   0.14E+00*   0.39E-01*    0.84E+00   0.55E+03   EDIIS        2.
  11  -969.895312038 -5470.921945420  3470.375637182  -0.20E-01*   0.88E-01*   0.17E-01*    0.48E+00   0.55E+03   EDIIS        2.
  12  -969.935144220 -5480.739141068  3480.153000648  -0.40E-01*   0.19E+00*   0.18E-01*    0.27E+00   0.55E+03   EDIIS        2.
  13  -969.902024508 -5473.739373915  3473.186353206   0.33E-01*   0.90E-01*   0.10E-01*    0.73E+00   0.55E+03   EDIIS        2.
  14  -969.934554694 -5474.691618342  3474.106067448  -0.33E-01*   0.57E-01*   0.10E-01*    0.25E+00   0.55E+03   EDIIS        2.
  15  -969.934187647 -5479.666933317  3479.081749470   0.37E-03*   0.26E-02*   0.70E-02*    0.24E+00   0.55E+03   EDIIS        2.

       Fermi aufbau procedure completed!
      nOcc=   59

  16  -969.941973677 -5478.073500683  3477.480530805  -0.78E-02*   0.71E-02*   0.12E-02*    0.15E-01   0.55E+03   EDIIS        2.
  17  -969.941881901 -5477.916365556  3477.323487454   0.92E-04*   0.28E-02*   0.55E-03*    0.29E-01   0.55E+03   EDIIS        2.
  18  -969.941961950 -5478.031422565  3477.438464415  -0.80E-04*   0.11E-02*   0.22E-03*    0.13E-01   0.55E+03   EDIIS        2.
  19  -969.941978743 -5478.020529140  3477.427554196  -0.17E-04*   0.16E-02*   0.23E-03*    0.35E-02   0.55E+03   EDIIS        2.
  20  -969.941978607 -5478.112583381  3477.519608574   0.14E-06*   0.23E-02*   0.22E-03*    0.42E-02   0.55E+03   c2DIIS       2.
  21  -969.941969388 -5478.100071313  3477.507105725   0.92E-05*   0.93E-02*   0.16E-02*    0.10E-01   0.55E+03   QNRc2DIIS    2.
  22  -969.941805488 -5477.799534407  3477.206732718   0.16E-03*   0.73E-02*   0.63E-02*    0.37E-01   0.55E+03   QNRc2DIIS    2.
  23  -969.941978956 -5478.101598344  3477.508623188  -0.17E-03*   0.96E-03*   0.57E-03*    0.28E-01   0.55E+03   QNRc2DIIS    2.
  24  -969.941980944 -5478.052218962  3477.459241818  -0.20E-05*   0.19E-04    0.68E-05     0.37E-02   0.55E+03   QNRc2DIIS    2.
  25  -969.941980945 -5478.052363525  3477.459386380  -0.32E-09    0.52E-05    0.16E-05     0.92E-04   0.55E+03   QNRc2DIIS    2.

       Convergence after 25 Macro Iterations
--

 *****************************************************************************************************************************
 *                                                                                                                           *
 *                                             SCF/KS-DFT Program, Final results                                             *
 *                                                                                                                           *
 *                                                                                                                           *
 *                                                                                                                           *
 *                                                       Final Results                                                       *
 *                                                                                                                           *
 *****************************************************************************************************************************

::    Total KS-DFT energy                           -5969.9419809448
      One-electron energy                          -10478.0523635254
      Two-electron energy                            3477.4593863803
      Nuclear repulsion energy                       1030.6509962003
      Kinetic energy (interpolated)                  6428.8693142601
      Virial theorem                                    0.9286146115
      Total spin, S(S+1)                                0.0000000000
      Total spin, S                                     0.0000000000
      Max non-diagonal density matrix element           0.0000068166
      Max non-diagonal Fock matrix element              0.0000013897


      All orbitals with orbital energies smaller than  E(LUMO)+0.5 are printed

++    Molecular orbitals:
      -------------------

      Title: RKS-DFT orbitals

      Molecular orbitals for symmetry species 1: a  

          Orbital        1         2         3         4         5         6         7         8         9        10    
          Energy     -729.8908 -104.0195 -101.9508 -101.9508 -101.9508 -101.9508  -93.0529  -93.0514  -93.0514  -19.3558
          Occ. No.      2.0000    2.0000    2.0000    2.0000    2.0000    2.0000    2.0000    2.0000    2.0000    2.0000

        1 MO1   1s      1.0000    0.0001   -0.0000    0.0000   -0.0000   -0.0000   -0.0000    0.0000   -0.0000   -0.0000
        2 MO1   2s     -0.0001    1.0000   -0.0000    0.0000   -0.0000   -0.0000   -0.0003    0.0000   -0.0000   -0.0000
        3 MO1   3s     -0.0001    0.0006    0.0000   -0.0000    0.0000    0.0000    0.0000   -0.0000    0.0000   -0.0002
        4 MO1   4s      0.0000   -0.0006    0.0000   -0.0000    0.0000    0.0000   -0.0000    0.0000   -0.0000   -0.0008
        5 MO1   5s     -0.0000    0.0002    0.0001   -0.0000    0.0001    0.0001   -0.0000   -0.0000    0.0000   -0.0015
        6 MO1   2px    -0.0000   -0.0000    0.0000    0.0000   -0.0000   -0.0000   -0.0001   -0.0578    0.9983    0.0000
        7 MO1   3px     0.0000   -0.0000    0.0000    0.0000   -0.0000   -0.0000    0.0000    0.0001   -0.0009    0.0000
        8 MO1   4px    -0.0000    0.0000    0.0000    0.0000   -0.0000   -0.0000    0.0000    0.0000   -0.0001    0.0000
        9 MO1   5px    -0.0000    0.0000    0.0001    0.0001   -0.0000   -0.0001   -0.0000   -0.0000    0.0001    0.0000
       10 MO1   2py     0.0000    0.0000   -0.0000    0.0000    0.0000    0.0000    0.0001    0.9983    0.0578   -0.0000
       11 MO1   3py    -0.0000    0.0000   -0.0000    0.0000    0.0000    0.0000   -0.0000   -0.0009   -0.0001   -0.0000
       12 MO1   4py     0.0000   -0.0000   -0.0000    0.0000    0.0000    0.0000   -0.0000   -0.0001   -0.0000   -0.0000
       13 MO1   5py     0.0000   -0.0000   -0.0001    0.0001    0.0000    0.0001    0.0000    0.0001    0.0000   -0.0000
       14 MO1   2pz     0.0000    0.0003   -0.0000    0.0000   -0.0000   -0.0000    1.0000   -0.0001    0.0001   -0.0000
       15 MO1   3pz    -0.0000    0.0000   -0.0000    0.0000   -0.0000   -0.0000   -0.0009    0.0000   -0.0000   -0.0001
       16 MO1   4pz     0.0000   -0.0000   -0.0000    0.0000   -0.0000   -0.0000   -0.0002    0.0000   -0.0000   -0.0010
       17 MO1   5pz     0.0000   -0.0000   -0.0000    0.0000   -0.0000   -0.0000    0.0001   -0.0000    0.0000   -0.0019
       18 MO1   3d2-   -0.0000   -0.0000   -0.0000   -0.0000    0.0000   -0.0000   -0.0000   -0.0000    0.0000    0.0000
       19 MO1   4d2-    0.0000    0.0000   -0.0000   -0.0000    0.0000   -0.0000   -0.0000    0.0000   -0.0000    0.0000
       20 MO1   3d1-    0.0000    0.0000    0.0000   -0.0000   -0.0000   -0.0000    0.0000    0.0000    0.0000   -0.0000
       21 MO1   4d1-    0.0000   -0.0000    0.0000   -0.0000   -0.0000   -0.0000   -0.0000   -0.0000   -0.0000   -0.0000
       22 MO1   3d0     0.0000    0.0000   -0.0000    0.0000   -0.0000   -0.0000    0.0000   -0.0000    0.0000   -0.0000
       23 MO1   4d0     0.0000   -0.0000   -0.0000    0.0000   -0.0000   -0.0000   -0.0000    0.0000   -0.0000   -0.0011
       24 MO1   3d1+   -0.0000   -0.0000   -0.0000   -0.0000    0.0000    0.0000   -0.0000   -0.0000    0.0000    0.0000
       25 MO1   4d1+   -0.0000    0.0000   -0.0000   -0.0000    0.0000    0.0000    0.0000    0.0000   -0.0000    0.0000
       26 MO1   3d2+   -0.0000    0.0000    0.0000    0.0000   -0.0000   -0.0000    0.0000   -0.0000   -0.0000    0.0000
       27 MO1   4d2+   -0.0000   -0.0000   -0.0000    0.0000    0.0000   -0.0000   -0.0000    0.0000    0.0000   -0.0000
       28 O2    1s     -0.0000   -0.0000    0.0000   -0.0000    0.0000    0.0000   -0.0000   -0.0000    0.0000    1.0002
       29 O2    2s     -0.0000   -0.0000    0.0000   -0.0000    0.0000    0.0000   -0.0000   -0.0000    0.0000    0.0041
       30 O2    2px    -0.0000    0.0000   -0.0000   -0.0000    0.0000    0.0000    0.0000    0.0000   -0.0000    0.0000
       31 O2    2py     0.0000   -0.0000    0.0000   -0.0000   -0.0000   -0.0000   -0.0000   -0.0000   -0.0000   -0.0000
       32 O2    2pz     0.0000   -0.0001   -0.0000    0.0000   -0.0000   -0.0000   -0.0000    0.0000   -0.0000   -0.0016
       33 CL3   1s      0.0000   -0.0000    0.9981    0.0000   -0.0574    0.0212    0.0000    0.0000   -0.0000    0.0000
       34 CL3   2s      0.0000   -0.0000   -0.0000    0.0000   -0.0000    0.0000    0.0000    0.0000   -0.0000    0.0000
       35 CL3   3s      0.0000   -0.0001   -0.0004   -0.0000    0.0000    0.0000    0.0000    0.0000   -0.0000    0.0001
       36 CL3   2px     0.0000    0.0000   -0.0000   -0.0000    0.0000   -0.0000   -0.0000   -0.0000    0.0000    0.0000
       37 CL3   3px     0.0000    0.0000    0.0000   -0.0000    0.0000   -0.0000   -0.0000   -0.0000   -0.0000    0.0001
       38 CL3   2py    -0.0000   -0.0000    0.0000   -0.0000   -0.0000    0.0000    0.0000    0.0000   -0.0000   -0.0000
       39 CL3   3py    -0.0000   -0.0000   -0.0000   -0.0000   -0.0000    0.0000    0.0000   -0.0000   -0.0000   -0.0001
       40 CL3   2pz    -0.0000   -0.0000    0.0000    0.0000   -0.0000    0.0000   -0.0000    0.0000   -0.0000    0.0000
       41 CL3   3pz    -0.0000   -0.0000   -0.0000   -0.0000    0.0000    0.0000   -0.0000    0.0000   -0.0000    0.0002
       42 CL4   1s      0.0000   -0.0000    0.0415   -0.7071    0.7045   -0.0448    0.0000    0.0000    0.0000    0.0000
       43 CL4   2s      0.0000   -0.0000   -0.0000    0.0000   -0.0000   -0.0000    0.0000    0.0000    0.0000    0.0000
       44 CL4   3s      0.0000   -0.0001   -0.0000    0.0003   -0.0003    0.0000    0.0000    0.0000    0.0000    0.0001
       45 CL4   2px    -0.0000   -0.0000    0.0000   -0.0000    0.0000   -0.0000    0.0000    0.0000    0.0000   -0.0000
       46 CL4   3px    -0.0000   -0.0000   -0.0000    0.0000   -0.0000    0.0000    0.0000    0.0000   -0.0000   -0.0001
       47 CL4   2py    -0.0000   -0.0000    0.0000   -0.0000    0.0000   -0.0000    0.0000    0.0000    0.0000   -0.0000
       48 CL4   3py    -0.0000   -0.0000    0.0000    0.0000   -0.0000   -0.0000    0.0000   -0.0000    0.0000   -0.0001
       49 CL4   2pz    -0.0000   -0.0000    0.0000   -0.0000    0.0000   -0.0000   -0.0000    0.0000    0.0000    0.0000
       50 CL4   3pz    -0.0000   -0.0000    0.0000    0.0000   -0.0000    0.0000   -0.0000    0.0000    0.0000    0.0002
       51 CL5   1s      0.0000   -0.0000   -0.0175   -0.0000    0.0645    0.9978    0.0000   -0.0000    0.0000    0.0000
       52 CL5   2s      0.0000   -0.0000    0.0000    0.0000   -0.0000   -0.0000    0.0000   -0.0000    0.0000    0.0000
       53 CL5   3s      0.0000   -0.0001    0.0000    0.0000   -0.0000   -0.0004    0.0000   -0.0000    0.0000    0.0001
       54 CL5   2px    -0.0000   -0.0000   -0.0000   -0.0000    0.0000    0.0000    0.0000   -0.0000    0.0000   -0.0000
       55 CL5   3px    -0.0000   -0.0000    0.0000   -0.0000   -0.0000   -0.0000    0.0000   -0.0000   -0.0000   -0.0001
       56 CL5   2py     0.0000    0.0000    0.0000   -0.0000   -0.0000   -0.0000   -0.0000    0.0000   -0.0000    0.0000
       57 CL5   3py     0.0000    0.0000   -0.0000   -0.0000    0.0000    0.0000   -0.0000   -0.0000   -0.0000    0.0001
       58 CL5   2pz    -0.0000   -0.0000    0.0000   -0.0000    0.0000    0.0000   -0.0000   -0.0000    0.0000    0.0000
       59 CL5   3pz    -0.0000   -0.0000    0.0000   -0.0000    0.0000   -0.0000   -0.0000   -0.0000    0.0000    0.0002
       60 CL6   1s      0.0000   -0.0000    0.0415    0.7071    0.7045   -0.0448    0.0000   -0.0000   -0.0000    0.0000
       61 CL6   2s      0.0000   -0.0000   -0.0000   -0.0000   -0.0000   -0.0000    0.0000   -0.0000   -0.0000    0.0000
       62 CL6   3s      0.0000   -0.0001   -0.0000   -0.0003   -0.0003    0.0000    0.0000   -0.0000   -0.0000    0.0001
       63 CL6   2px     0.0000    0.0000   -0.0000   -0.0000   -0.0000    0.0000   -0.0000    0.0000    0.0000    0.0000
       64 CL6   3px     0.0000    0.0000   -0.0000    0.0000    0.0000    0.0000   -0.0000    0.0000   -0.0000    0.0001
       65 CL6   2py     0.0000    0.0000   -0.0000   -0.0000   -0.0000    0.0000   -0.0000    0.0000    0.0000    0.0000
       66 CL6   3py     0.0000    0.0000    0.0000    0.0000    0.0000   -0.0000   -0.0000   -0.0000    0.0000    0.0001
       67 CL6   2pz    -0.0000   -0.0000    0.0000    0.0000    0.0000   -0.0000   -0.0000   -0.0000   -0.0000    0.0000
       68 CL6   3pz    -0.0000   -0.0000    0.0000   -0.0000   -0.0000    0.0000   -0.0000   -0.0000   -0.0000    0.0002

          Orbital       11        12        13        14        15        16        17        18        19        20    
          Energy      -18.2469  -14.6275  -14.6222  -14.6222   -9.5893   -9.5893   -9.5893   -9.5892   -8.7120   -8.7107
          Occ. No.      2.0000    2.0000    2.0000    2.0000    2.0000    2.0000    2.0000    2.0000    2.0000    2.0000

        1 MO1   1s      0.0001    0.0000   -0.0000   -0.0000   -0.0000    0.0000   -0.0000    0.0000    0.0000   -0.0000
        2 MO1   2s     -0.0006   -0.0000    0.0000    0.0000   -0.0000    0.0000   -0.0000    0.0000   -0.0000   -0.0000
        3 MO1   3s      1.0000   -0.0025    0.0000    0.0000   -0.0001    0.0000   -0.0000    0.0000   -0.0004    0.0000
        4 MO1   4s      0.0055    0.0002   -0.0000   -0.0000   -0.0007    0.0000   -0.0003    0.0000    0.0004   -0.0000
        5 MO1   5s     -0.0018    0.0002    0.0000    0.0000   -0.0043    0.0000   -0.0018    0.0000    0.0000   -0.0000
        6 MO1   2px     0.0000   -0.0000    0.0006   -0.0006   -0.0000   -0.0000    0.0000   -0.0000    0.0000   -0.0000
        7 MO1   3px    -0.0000   -0.0001    0.6938   -0.7201   -0.0000   -0.0000    0.0000   -0.0000    0.0000   -0.0007
        8 MO1   4px    -0.0000   -0.0000    0.0029   -0.0030   -0.0002   -0.0006    0.0005   -0.0000   -0.0000    0.0001
        9 MO1   5px    -0.0000    0.0000   -0.0016    0.0017   -0.0012   -0.0032    0.0029   -0.0001   -0.0000   -0.0001
       10 MO1   2py    -0.0000    0.0000    0.0006    0.0006    0.0000   -0.0000   -0.0000    0.0000   -0.0000   -0.0000
       11 MO1   3py     0.0000    0.0001    0.7201    0.6938    0.0000   -0.0000   -0.0000    0.0000   -0.0000   -0.0007
       12 MO1   4py     0.0000    0.0000    0.0030    0.0029    0.0002   -0.0006   -0.0005    0.0000    0.0000    0.0001
       13 MO1   5py     0.0000   -0.0000   -0.0017   -0.0016    0.0012   -0.0032   -0.0029    0.0001    0.0000   -0.0001
       14 MO1   2pz    -0.0000    0.0009   -0.0000   -0.0000    0.0000   -0.0000    0.0000   -0.0000   -0.0000   -0.0000
       15 MO1   3pz     0.0025    1.0000   -0.0000   -0.0001    0.0000   -0.0000    0.0000   -0.0000   -0.0015   -0.0000
       16 MO1   4pz     0.0002    0.0045   -0.0000   -0.0000    0.0003   -0.0000    0.0001   -0.0000    0.0006    0.0000
       17 MO1   5pz     0.0002   -0.0019    0.0000    0.0000    0.0017   -0.0000    0.0007   -0.0000    0.0005   -0.0000
       18 MO1   3d2-    0.0000   -0.0000   -0.0000   -0.0000    0.0000   -0.0000   -0.0000   -0.0000   -0.0000    0.0000
       19 MO1   4d2-   -0.0000    0.0000   -0.0000   -0.0000    0.0000   -0.0000   -0.0001   -0.0016   -0.0000    0.0000
       20 MO1   3d1-    0.0000    0.0000    0.0007    0.0007   -0.0000    0.0000    0.0000   -0.0000    0.0001    0.7068
       21 MO1   4d1-    0.0000    0.0000    0.0001    0.0001   -0.0002    0.0005    0.0005   -0.0000    0.0000    0.0015
       22 MO1   3d0     0.0004    0.0016   -0.0000   -0.0000    0.0000   -0.0000    0.0000   -0.0000    1.0000    0.0000
       23 MO1   4d0     0.0002    0.0001   -0.0000   -0.0000    0.0009   -0.0000    0.0004   -0.0000    0.0025    0.0000
       24 MO1   3d1+   -0.0000   -0.0000    0.0007   -0.0007    0.0000    0.0000   -0.0000    0.0000   -0.0001    0.7074
       25 MO1   4d1+   -0.0000   -0.0000    0.0001   -0.0001    0.0002    0.0005   -0.0005    0.0000   -0.0000    0.0015
       26 MO1   3d2+    0.0000    0.0000   -0.0000    0.0000   -0.0000   -0.0000   -0.0000   -0.0000   -0.0000   -0.0001
       27 MO1   4d2+   -0.0000   -0.0000   -0.0000    0.0000   -0.0000   -0.0000    0.0000   -0.0000   -0.0000   -0.0000
       28 O2    1s      0.0000    0.0000   -0.0000   -0.0000   -0.0000    0.0000   -0.0000    0.0000   -0.0002   -0.0000
       29 O2    2s     -0.0001    0.0001    0.0000    0.0000    0.0001   -0.0000    0.0000   -0.0000   -0.0011   -0.0000
       30 O2    2px    -0.0000   -0.0000    0.0001   -0.0002    0.0002    0.0004   -0.0004    0.0000   -0.0000   -0.0003
       31 O2    2py     0.0000    0.0000    0.0002    0.0001   -0.0002    0.0004    0.0004   -0.0000    0.0000   -0.0003
       32 O2    2pz     0.0006    0.0007   -0.0000   -0.0000    0.0001   -0.0000    0.0000   -0.0000    0.0005   -0.0000
       33 CL3   1s      0.0000   -0.0000   -0.0000   -0.0000    0.0000   -0.0000   -0.0000   -0.0000    0.0000    0.0000
       34 CL3   2s      0.0001   -0.0001   -0.0000   -0.0002    0.7372   -0.0000   -0.4820   -0.4740    0.0000    0.0000
       35 CL3   3s      0.0004   -0.0002   -0.0000   -0.0007   -0.0105    0.0000    0.0069    0.0077    0.0002    0.0000
       36 CL3   2px    -0.0000    0.0000    0.0000    0.0000   -0.0045    0.0000    0.0029    0.0029   -0.0000    0.0000
       37 CL3   3px    -0.0001    0.0001    0.0002    0.0001   -0.0010    0.0003    0.0006    0.0004   -0.0001    0.0001
       38 CL3   2py     0.0000   -0.0000    0.0000   -0.0000    0.0045    0.0000   -0.0029   -0.0029    0.0000    0.0000
       39 CL3   3py     0.0001   -0.0001    0.0002   -0.0001    0.0010    0.0003   -0.0006   -0.0004    0.0001    0.0001
       40 CL3   2pz     0.0000    0.0000   -0.0000   -0.0000    0.0018   -0.0000   -0.0012   -0.0011    0.0000   -0.0000
       41 CL3   3pz     0.0000    0.0002   -0.0000   -0.0001    0.0003   -0.0000   -0.0004   -0.0001    0.0001   -0.0000
       42 CL4   1s      0.0000   -0.0000   -0.0000    0.0000    0.0000   -0.0000    0.0000    0.0000    0.0000   -0.0000
       43 CL4   2s      0.0001   -0.0001   -0.0002    0.0000    0.4565   -0.7073    0.2073    0.4987    0.0000   -0.0000
       44 CL4   3s      0.0004   -0.0002   -0.0007    0.0000   -0.0065    0.0101   -0.0030   -0.0080    0.0002   -0.0002
       45 CL4   2px     0.0000   -0.0000   -0.0000   -0.0000    0.0028   -0.0043    0.0012    0.0030    0.0000   -0.0000
       46 CL4   3px     0.0001   -0.0001   -0.0001   -0.0002    0.0008   -0.0009    0.0000    0.0004    0.0001   -0.0002
       47 CL4   2py     0.0000   -0.0000   -0.0000    0.0000    0.0028   -0.0043    0.0013    0.0030    0.0000   -0.0000
       48 CL4   3py     0.0001   -0.0001   -0.0001    0.0002    0.0005   -0.0009    0.0005    0.0004    0.0001   -0.0002
       49 CL4   2pz     0.0000    0.0000   -0.0000    0.0000    0.0011   -0.0017    0.0005    0.0012    0.0000    0.0000
       50 CL4   3pz     0.0000    0.0002   -0.0001    0.0000    0.0001   -0.0005    0.0000    0.0002    0.0001    0.0001
       51 CL5   1s      0.0000   -0.0000    0.0000    0.0000    0.0000    0.0000    0.0000   -0.0000    0.0000   -0.0000
       52 CL5   2s      0.0001   -0.0001    0.0000    0.0002    0.2010    0.0000    0.8261   -0.5270    0.0000   -0.0000
       53 CL5   3s      0.0004   -0.0002    0.0000    0.0007   -0.0029   -0.0000   -0.0118    0.0084    0.0002   -0.0000
       54 CL5   2px     0.0000   -0.0000    0.0000    0.0000    0.0012    0.0000    0.0050   -0.0032    0.0000    0.0000
       55 CL5   3px     0.0001   -0.0001    0.0002    0.0001    0.0003    0.0003    0.0011   -0.0004    0.0001    0.0001
       56 CL5   2py    -0.0000    0.0000    0.0000   -0.0000   -0.0012    0.0000   -0.0050    0.0032   -0.0000    0.0000
       57 CL5   3py    -0.0001    0.0001    0.0002   -0.0001   -0.0003    0.0003   -0.0011    0.0004   -0.0001    0.0001
       58 CL5   2pz     0.0000    0.0000    0.0000    0.0000    0.0005    0.0000    0.0020   -0.0013    0.0000    0.0000
       59 CL5   3pz     0.0000    0.0002    0.0000    0.0001   -0.0001    0.0000    0.0005   -0.0002    0.0001    0.0000
       60 CL6   1s      0.0000   -0.0000    0.0000   -0.0000    0.0000    0.0000    0.0000    0.0000    0.0000    0.0000
       61 CL6   2s      0.0001   -0.0001    0.0002   -0.0000    0.4565    0.7073    0.2073    0.4987    0.0000    0.0000
       62 CL6   3s      0.0004   -0.0002    0.0007   -0.0000   -0.0065   -0.0101   -0.0030   -0.0080    0.0002    0.0002
       63 CL6   2px    -0.0000    0.0000   -0.0000   -0.0000   -0.0028   -0.0043   -0.0013   -0.0030   -0.0000   -0.0000
       64 CL6   3px    -0.0001    0.0001   -0.0001   -0.0002   -0.0005   -0.0009   -0.0005   -0.0004   -0.0001   -0.0002
       65 CL6   2py    -0.0000    0.0000   -0.0000    0.0000   -0.0028   -0.0043   -0.0012   -0.0030   -0.0000   -0.0000
       66 CL6   3py    -0.0001    0.0001   -0.0001    0.0002   -0.0008   -0.0009   -0.0000   -0.0004   -0.0001   -0.0002
       67 CL6   2pz     0.0000    0.0000    0.0000   -0.0000    0.0011    0.0017    0.0005    0.0012    0.0000   -0.0000
       68 CL6   3pz     0.0000    0.0002    0.0001   -0.0000    0.0001    0.0005    0.0000    0.0002    0.0001   -0.0001

          Orbital       21        22        23        24        25        26        27        28        29        30    
          Energy       -8.7107   -8.7073   -8.7072   -7.2876   -7.2876   -7.2876   -7.2876   -7.2818   -7.2818   -7.2818
          Occ. No.      2.0000    2.0000    2.0000    2.0000    2.0000    2.0000    2.0000    2.0000    2.0000    2.0000

        1 MO1   1s     -0.0000    0.0000    0.0000   -0.0000    0.0000    0.0000   -0.0000    0.0000    0.0000    0.0000
        2 MO1   2s     -0.0000    0.0000   -0.0000   -0.0000    0.0000    0.0000   -0.0000    0.0000    0.0000    0.0000
        3 MO1   3s      0.0000   -0.0000   -0.0000   -0.0001    0.0000    0.0001   -0.0001    0.0000    0.0000   -0.0000
        4 MO1   4s     -0.0000    0.0000    0.0000   -0.0003    0.0000    0.0005   -0.0007    0.0000    0.0000    0.0000
        5 MO1   5s     -0.0000    0.0000    0.0000   -0.0007    0.0000    0.0012   -0.0019    0.0000    0.0000    0.0000
        6 MO1   2px    -0.0000    0.0000   -0.0000   -0.0000    0.0000    0.0000    0.0000   -0.0000    0.0000   -0.0000
        7 MO1   3px    -0.0007    0.0000   -0.0000   -0.0000    0.0000    0.0000    0.0000   -0.0000    0.0000   -0.0000
        8 MO1   4px     0.0001   -0.0000    0.0000   -0.0004    0.0005    0.0002    0.0003   -0.0001    0.0001   -0.0001
        9 MO1   5px    -0.0001   -0.0000    0.0000   -0.0011    0.0014    0.0005    0.0007   -0.0004    0.0010   -0.0009
       10 MO1   2py     0.0000   -0.0000   -0.0000    0.0000    0.0000   -0.0000   -0.0000   -0.0000   -0.0000   -0.0000
       11 MO1   3py     0.0007   -0.0000   -0.0000    0.0000    0.0000   -0.0000   -0.0000   -0.0000   -0.0000   -0.0000
       12 MO1   4py    -0.0001    0.0000    0.0000    0.0004    0.0005   -0.0002   -0.0003   -0.0001   -0.0001   -0.0001
       13 MO1   5py     0.0001    0.0000    0.0000    0.0011    0.0014   -0.0005   -0.0007   -0.0004   -0.0010   -0.0009
       14 MO1   2pz    -0.0000   -0.0000   -0.0000    0.0000   -0.0000   -0.0000    0.0000   -0.0000    0.0000   -0.0000
       15 MO1   3pz    -0.0000    0.0000   -0.0000    0.0000   -0.0000   -0.0000    0.0000    0.0000    0.0000    0.0000
       16 MO1   4pz     0.0000   -0.0000    0.0000    0.0001   -0.0000   -0.0002    0.0003    0.0000    0.0000    0.0000
       17 MO1   5pz    -0.0000   -0.0000    0.0000    0.0003   -0.0000   -0.0005    0.0007    0.0000    0.0000    0.0000
       18 MO1   3d2-    0.0001    1.0000   -0.0000    0.0000    0.0000    0.0000    0.0000    0.0000    0.0000    0.0000
       19 MO1   4d2-    0.0000    0.0021   -0.0000    0.0005    0.0000    0.0008    0.0003   -0.0000   -0.0000   -0.0000
       20 MO1   3d1-   -0.7074    0.0001    0.0001   -0.0000   -0.0000    0.0000    0.0000   -0.0000   -0.0000   -0.0000
       21 MO1   4d1-   -0.0015    0.0000    0.0000   -0.0003   -0.0003    0.0001    0.0002    0.0001    0.0001    0.0001
       22 MO1   3d0     0.0002    0.0000    0.0000    0.0000   -0.0000   -0.0000    0.0000   -0.0000    0.0000   -0.0000
       23 MO1   4d0     0.0000   -0.0000    0.0000    0.0002   -0.0000   -0.0003    0.0004   -0.0000   -0.0000   -0.0000
       24 MO1   3d1+    0.7068   -0.0001    0.0001    0.0000   -0.0000   -0.0000   -0.0000   -0.0000    0.0000   -0.0000
       25 MO1   4d1+    0.0015   -0.0000    0.0000    0.0003   -0.0003   -0.0001   -0.0002    0.0001   -0.0001    0.0001
       26 MO1   3d2+    0.0000    0.0000    1.0000   -0.0000    0.0000   -0.0000    0.0000    0.0000   -0.0000    0.0000
       27 MO1   4d2+    0.0000    0.0000    0.0019   -0.0000    0.0000   -0.0000    0.0000   -0.0000    0.0000   -0.0001
       28 O2    1s     -0.0000    0.0000   -0.0000   -0.0000    0.0000    0.0000   -0.0000   -0.0000   -0.0000    0.0000
       29 O2    2s     -0.0000    0.0000   -0.0000   -0.0000    0.0000    0.0000   -0.0001   -0.0000   -0.0000    0.0000
       30 O2    2px    -0.0003    0.0000   -0.0000    0.0001   -0.0001   -0.0000   -0.0001    0.0001   -0.0001    0.0001
       31 O2    2py     0.0003   -0.0000   -0.0000   -0.0001   -0.0001    0.0000    0.0001    0.0001    0.0001    0.0001
       32 O2    2pz    -0.0000   -0.0000    0.0000    0.0000   -0.0000   -0.0001    0.0001   -0.0000   -0.0000   -0.0000
       33 CL3   1s      0.0000    0.0000   -0.0000   -0.0000   -0.0000   -0.0000   -0.0000   -0.0000   -0.0000   -0.0000
       34 CL3   2s      0.0000    0.0000   -0.0000   -0.0084    0.0000    0.0008   -0.0016   -0.0000   -0.0001   -0.0000
       35 CL3   3s      0.0002    0.0003   -0.0000    0.0015   -0.0000   -0.0004    0.0002   -0.0000   -0.0003   -0.0000
       36 CL3   2px    -0.0000   -0.0000   -0.0000   -0.6709   -0.0003    0.0711   -0.1255    0.5443   -0.0006    0.3650
       37 CL3   3px    -0.0002   -0.0002   -0.0001   -0.0050   -0.0001    0.0005   -0.0009    0.0037    0.0001    0.0024
       38 CL3   2py     0.0000    0.0000   -0.0000    0.6709   -0.0003   -0.0711    0.1255    0.5443    0.0006    0.3650
       39 CL3   3py     0.0002    0.0002   -0.0001    0.0050   -0.0001   -0.0005    0.0009    0.0037   -0.0001    0.0024
       40 CL3   2pz    -0.0000    0.0000   -0.0000    0.2356   -0.0000   -0.0250    0.0438   -0.0000   -0.0017   -0.0000
       41 CL3   3pz    -0.0001    0.0001   -0.0000    0.0018   -0.0000   -0.0002    0.0002   -0.0000   -0.0001   -0.0000
       42 CL4   1s      0.0000   -0.0000   -0.0000    0.0000   -0.0000    0.0000   -0.0000   -0.0000    0.0000   -0.0000
       43 CL4   2s      0.0000   -0.0000   -0.0000    0.0010   -0.0061    0.0057   -0.0021   -0.0000    0.0000   -0.0001
       44 CL4   3s      0.0000   -0.0003   -0.0000   -0.0000    0.0012   -0.0009    0.0005   -0.0001   -0.0000   -0.0003
       45 CL4   2px     0.0000   -0.0000    0.0000   -0.0788    0.4852   -0.4483    0.1682    0.3045   -0.5000   -0.2070
       46 CL4   3px     0.0001   -0.0002    0.0001   -0.0005    0.0036   -0.0033    0.0012    0.0021   -0.0033   -0.0014
       47 CL4   2py    -0.0000   -0.0000   -0.0000   -0.0792    0.4852   -0.4482    0.1685   -0.3040    0.5000    0.2080
       48 CL4   3py    -0.0001   -0.0002   -0.0001   -0.0006    0.0036   -0.0033    0.0013   -0.0021    0.0033    0.0013
       49 CL4   2pz    -0.0000   -0.0000    0.0000   -0.0278    0.1706   -0.1573    0.0590   -0.0006   -0.0001   -0.0015
       50 CL4   3pz    -0.0000   -0.0001    0.0000   -0.0002    0.0013   -0.0011    0.0004   -0.0001   -0.0000   -0.0001
       51 CL5   1s     -0.0000    0.0000   -0.0000   -0.0000   -0.0000   -0.0000   -0.0000    0.0000    0.0000    0.0000
       52 CL5   2s     -0.0000    0.0000   -0.0000    0.0011   -0.0000   -0.0032   -0.0079    0.0000    0.0001    0.0000
       53 CL5   3s     -0.0002    0.0003   -0.0000   -0.0004    0.0000    0.0004    0.0015    0.0000    0.0003    0.0000
       54 CL5   2px    -0.0000    0.0000    0.0000   -0.0912   -0.0003    0.2531    0.6313   -0.1366   -0.0006    0.5298
       55 CL5   3px    -0.0002    0.0002    0.0001   -0.0007   -0.0001    0.0019    0.0047   -0.0010    0.0001    0.0036
       56 CL5   2py     0.0000   -0.0000    0.0000    0.0912   -0.0003   -0.2531   -0.6313   -0.1366    0.0006    0.5298
       57 CL5   3py     0.0002   -0.0002    0.0001    0.0007   -0.0001   -0.0019   -0.0047   -0.0010   -0.0001    0.0036
       58 CL5   2pz     0.0000    0.0000   -0.0000   -0.0323    0.0000    0.0891    0.2217    0.0000    0.0017    0.0000
       59 CL5   3pz     0.0001    0.0001   -0.0000   -0.0003    0.0000    0.0007    0.0016    0.0000    0.0001    0.0000
       60 CL6   1s     -0.0000   -0.0000    0.0000    0.0000    0.0000    0.0000   -0.0000    0.0000    0.0000    0.0000
       61 CL6   2s     -0.0000   -0.0000    0.0000    0.0010    0.0061    0.0057   -0.0021    0.0000    0.0000    0.0001
       62 CL6   3s     -0.0000   -0.0003    0.0000   -0.0000   -0.0012   -0.0009    0.0005    0.0001   -0.0000    0.0003
       63 CL6   2px     0.0000    0.0000   -0.0000    0.0792    0.4852    0.4482   -0.1685   -0.3040   -0.5000    0.2080
       64 CL6   3px     0.0001    0.0002   -0.0001    0.0006    0.0036    0.0033   -0.0013   -0.0021   -0.0033    0.0013
       65 CL6   2py    -0.0000    0.0000    0.0000    0.0788    0.4852    0.4483   -0.1682    0.3045    0.5000   -0.2070
       66 CL6   3py    -0.0001    0.0002    0.0001    0.0005    0.0036    0.0033   -0.0012    0.0021    0.0033   -0.0014
       67 CL6   2pz     0.0000   -0.0000   -0.0000   -0.0278   -0.1706   -0.1573    0.0590    0.0006   -0.0001    0.0015
       68 CL6   3pz     0.0000   -0.0001   -0.0000   -0.0002   -0.0013   -0.0011    0.0004    0.0001   -0.0000    0.0001

          Orbital       31        32        33        34        35        36        37        38        39        40    
          Energy       -7.2818   -7.2803   -7.2802   -7.2802   -7.2802   -2.8002   -1.8249   -1.7925   -1.7925   -1.0726
          Occ. No.      2.0000    2.0000    2.0000    2.0000    2.0000    2.0000    2.0000    2.0000    2.0000    2.0000

        1 MO1   1s     -0.0000   -0.0000   -0.0000    0.0000   -0.0000   -0.0001   -0.0001    0.0000    0.0000   -0.0007
        2 MO1   2s     -0.0000   -0.0000   -0.0000    0.0000   -0.0000    0.0005   -0.0009    0.0000    0.0000   -0.0047
        3 MO1   3s     -0.0000   -0.0000   -0.0000    0.0000   -0.0000   -0.0062   -0.0036    0.0000    0.0000   -0.0198
        4 MO1   4s     -0.0000   -0.0001   -0.0000    0.0000   -0.0000    0.9961   -0.0384    0.0000    0.0000   -0.1256
        5 MO1   5s     -0.0000   -0.0001   -0.0000    0.0000   -0.0000   -0.0153   -0.0090    0.0000    0.0000    0.0038
        6 MO1   2px    -0.0000   -0.0000    0.0000   -0.0000    0.0000    0.0000   -0.0000    0.0001   -0.0001    0.0000
        7 MO1   3px    -0.0000   -0.0000    0.0000   -0.0000    0.0000    0.0000    0.0000   -0.0032    0.0033    0.0000
        8 MO1   4px    -0.0000   -0.0000    0.0000   -0.0001    0.0001   -0.0000   -0.0001    0.6987   -0.7099    0.0000
        9 MO1   5px    -0.0002   -0.0001    0.0001   -0.0003    0.0003    0.0000    0.0000   -0.0192    0.0195   -0.0000
       10 MO1   2py    -0.0000    0.0000   -0.0000   -0.0000   -0.0000   -0.0000    0.0000    0.0001    0.0001   -0.0000
       11 MO1   3py    -0.0000    0.0000   -0.0000   -0.0000   -0.0000   -0.0000   -0.0000   -0.0033   -0.0032   -0.0000
       12 MO1   4py    -0.0000    0.0000   -0.0000   -0.0001   -0.0001    0.0000    0.0001    0.7099    0.6987   -0.0000
       13 MO1   5py    -0.0002    0.0001   -0.0001   -0.0003   -0.0003   -0.0000   -0.0000   -0.0195   -0.0192    0.0000
       14 MO1   2pz    -0.0000   -0.0000   -0.0000    0.0000   -0.0000   -0.0000    0.0000   -0.0000   -0.0000   -0.0008
       15 MO1   3pz     0.0000   -0.0000   -0.0000    0.0000   -0.0000   -0.0004   -0.0063    0.0000    0.0000   -0.0098
       16 MO1   4pz     0.0000   -0.0003   -0.0001    0.0000   -0.0001    0.0145    0.9666   -0.0000   -0.0001   -0.2652
       17 MO1   5pz     0.0000   -0.0015   -0.0006    0.0000   -0.0005   -0.0008   -0.0288    0.0000    0.0000    0.0184
       18 MO1   3d2-   -0.0000   -0.0000    0.0000    0.0000   -0.0000   -0.0000    0.0000   -0.0000   -0.0000   -0.0000
       19 MO1   4d2-    0.0000    0.0001   -0.0002    0.0000    0.0001    0.0000   -0.0000    0.0000    0.0000   -0.0000
       20 MO1   3d1-   -0.0000   -0.0000    0.0000    0.0000    0.0000   -0.0000   -0.0000   -0.0001   -0.0001   -0.0000
       21 MO1   4d1-    0.0000    0.0001   -0.0001   -0.0003   -0.0003    0.0000    0.0000    0.0025    0.0024    0.0000
       22 MO1   3d0     0.0000   -0.0000   -0.0000    0.0000   -0.0000   -0.0004   -0.0013    0.0000    0.0000   -0.0056
       23 MO1   4d0    -0.0000    0.0002    0.0001   -0.0000    0.0001    0.0051    0.0176   -0.0000   -0.0000    0.1518
       24 MO1   3d1+   -0.0000    0.0000   -0.0000    0.0000   -0.0000    0.0000    0.0000   -0.0001    0.0001    0.0000
       25 MO1   4d1+    0.0000   -0.0001    0.0001   -0.0003    0.0003   -0.0000   -0.0000    0.0024   -0.0025   -0.0000
       26 MO1   3d2+   -0.0000    0.0000    0.0000   -0.0000    0.0000    0.0000    0.0000    0.0000   -0.0000    0.0000
       27 MO1   4d2+    0.0007   -0.0000    0.0000    0.0000   -0.0000   -0.0000   -0.0000   -0.0000    0.0000   -0.0000
       28 O2    1s     -0.0000    0.0001    0.0000   -0.0000    0.0000   -0.0021   -0.0071    0.0000    0.0000   -0.0079
       29 O2    2s     -0.0000    0.0006    0.0002   -0.0000    0.0002    0.0140    0.1033   -0.0000   -0.0000    0.9318
       30 O2    2px     0.0000    0.0000   -0.0000    0.0000   -0.0000    0.0000    0.0000    0.0088   -0.0089    0.0000
       31 O2    2py     0.0000   -0.0000    0.0000    0.0000    0.0000   -0.0000   -0.0000    0.0089    0.0088   -0.0000
       32 O2    2pz    -0.0000   -0.0000   -0.0000    0.0000   -0.0000   -0.0085   -0.0608   -0.0000   -0.0000   -0.1700
       33 CL3   1s      0.0000   -0.0000   -0.0000    0.0000   -0.0000    0.0001    0.0000   -0.0000   -0.0001    0.0002
       34 CL3   2s      0.0000   -0.0002    0.0001   -0.0000    0.0000    0.0005    0.0003   -0.0000   -0.0006    0.0015
       35 CL3   3s      0.0000   -0.0000   -0.0001    0.0000   -0.0001    0.0036   -0.0024   -0.0001   -0.0152    0.0113
       36 CL3   2px    -0.2656    0.1427   -0.0850   -0.0013   -0.0379   -0.0000   -0.0002   -0.0000   -0.0005   -0.0002
       37 CL3   3px    -0.0016    0.0009   -0.0005    0.0001   -0.0002   -0.0012    0.0020    0.0027    0.0057   -0.0044
       38 CL3   2py    -0.2656   -0.1427    0.0850   -0.0013    0.0379    0.0000    0.0002   -0.0000    0.0005    0.0002
       39 CL3   3py    -0.0016   -0.0009    0.0005    0.0001    0.0002    0.0012   -0.0020    0.0026   -0.0058    0.0044
       40 CL3   2pz     0.0000    0.8134   -0.4837    0.0000   -0.2151    0.0000    0.0001    0.0000    0.0002    0.0002
       41 CL3   3pz     0.0000    0.0053   -0.0031    0.0000   -0.0013    0.0007    0.0032   -0.0000   -0.0031    0.0023
       42 CL4   1s     -0.0000   -0.0000   -0.0000   -0.0000   -0.0000    0.0001    0.0000   -0.0001    0.0000    0.0002
       43 CL4   2s     -0.0000   -0.0001   -0.0002    0.0001    0.0000    0.0005    0.0003   -0.0006    0.0000    0.0015
       44 CL4   3s     -0.0001   -0.0001   -0.0000   -0.0001   -0.0000    0.0036   -0.0024   -0.0152    0.0001    0.0113
       45 CL4   2px     0.3383   -0.0579   -0.1040    0.1207    0.0187    0.0000    0.0002    0.0005    0.0000    0.0002
       46 CL4   3px     0.0021   -0.0004   -0.0007    0.0007    0.0000    0.0012   -0.0020   -0.0058   -0.0026    0.0044
       47 CL4   2py    -0.3381   -0.0568   -0.1048    0.1206    0.0166    0.0000    0.0002    0.0005   -0.0000    0.0002
       48 CL4   3py    -0.0021   -0.0004   -0.0007    0.0007    0.0002    0.0012   -0.0020   -0.0057    0.0027    0.0044
       49 CL4   2pz    -0.0003    0.3272    0.5949   -0.6862   -0.1003    0.0000    0.0001    0.0002   -0.0000    0.0002
       50 CL4   3pz    -0.0000    0.0022    0.0039   -0.0044   -0.0006    0.0007    0.0032   -0.0031    0.0000    0.0023
       51 CL5   1s     -0.0000   -0.0000   -0.0000    0.0000    0.0000    0.0001    0.0000    0.0000    0.0001    0.0002
       52 CL5   2s     -0.0000   -0.0001   -0.0000    0.0000   -0.0002    0.0005    0.0003    0.0000    0.0006    0.0015
       53 CL5   3s     -0.0000   -0.0001    0.0000    0.0000    0.0001    0.0036   -0.0024    0.0001    0.0152    0.0113
       54 CL5   2px     0.4479   -0.0450   -0.0029   -0.0013   -0.1644    0.0000    0.0002   -0.0000   -0.0005    0.0002
       55 CL5   3px     0.0028   -0.0004   -0.0000    0.0001   -0.0010    0.0012   -0.0020    0.0027    0.0057    0.0044
       56 CL5   2py     0.4479    0.0450    0.0029   -0.0013    0.1644   -0.0000   -0.0002   -0.0000    0.0005   -0.0002
       57 CL5   3py     0.0028    0.0004    0.0000    0.0001    0.0010   -0.0012    0.0020    0.0026   -0.0058   -0.0044
       58 CL5   2pz    -0.0000    0.2573    0.0163   -0.0000    0.9356    0.0000    0.0001   -0.0000   -0.0002    0.0002
       59 CL5   3pz    -0.0000    0.0018    0.0001   -0.0000    0.0061    0.0007    0.0032    0.0000    0.0031    0.0023
       60 CL6   1s      0.0000   -0.0000   -0.0000    0.0000   -0.0000    0.0001    0.0000    0.0001   -0.0000    0.0002
       61 CL6   2s      0.0000   -0.0001   -0.0002   -0.0001    0.0000    0.0005    0.0003    0.0006   -0.0000    0.0015
       62 CL6   3s      0.0001   -0.0001   -0.0000    0.0001   -0.0000    0.0036   -0.0024    0.0152   -0.0001    0.0113
       63 CL6   2px    -0.3381    0.0568    0.1048    0.1206   -0.0166   -0.0000   -0.0002    0.0005    0.0000   -0.0002
       64 CL6   3px    -0.0021    0.0004    0.0007    0.0007   -0.0002   -0.0012    0.0020   -0.0058   -0.0026   -0.0044
       65 CL6   2py     0.3383    0.0579    0.1040    0.1207   -0.0187   -0.0000   -0.0002    0.0005   -0.0000   -0.0002
       66 CL6   3py     0.0021    0.0004    0.0007    0.0007   -0.0000   -0.0012    0.0020   -0.0057    0.0027   -0.0044
       67 CL6   2pz     0.0003    0.3272    0.5949    0.6862   -0.1003    0.0000    0.0001   -0.0002    0.0000    0.0002
       68 CL6   3pz     0.0000    0.0022    0.0039    0.0044   -0.0006    0.0007    0.0032    0.0031   -0.0000    0.0023

          Orbital       41        42        43        44        45        46        47        48        49        50    
          Energy       -0.8784   -0.8677   -0.8677   -0.8666   -0.5278   -0.5232   -0.5232   -0.4688   -0.4467   -0.4415
          Occ. No.      2.0000    2.0000    2.0000    2.0000    2.0000    2.0000    2.0000    2.0000    2.0000    2.0000

        1 MO1   1s     -0.0003   -0.0000   -0.0000    0.0000    0.0008    0.0000    0.0000   -0.0000    0.0011   -0.0000
        2 MO1   2s     -0.0022   -0.0000   -0.0000    0.0000    0.0056    0.0000    0.0000   -0.0000    0.0078   -0.0000
        3 MO1   3s     -0.0091   -0.0000   -0.0000    0.0000    0.0229    0.0000    0.0000   -0.0000    0.0314   -0.0000
        4 MO1   4s     -0.0569   -0.0000   -0.0000    0.0000    0.0991    0.0000    0.0000   -0.0000    0.1449   -0.0000
        5 MO1   5s      0.0298    0.0000    0.0000   -0.0000    0.0514    0.0000    0.0000    0.0000   -0.1911    0.0000
        6 MO1   2px    -0.0000   -0.0002    0.0002   -0.0000   -0.0000   -0.0002    0.0002    0.0000    0.0000   -0.0000
        7 MO1   3px    -0.0000   -0.0019    0.0019   -0.0000   -0.0000   -0.0019    0.0019    0.0000    0.0000   -0.0000
        8 MO1   4px    -0.0000   -0.0493    0.0493   -0.0001   -0.0000   -0.0349    0.0349    0.0000    0.0000   -0.0000
        9 MO1   5px     0.0000    0.0183   -0.0183    0.0000   -0.0000    0.0075   -0.0075   -0.0000   -0.0000    0.0000
       10 MO1   2py     0.0000   -0.0002   -0.0002    0.0000    0.0000   -0.0002   -0.0002   -0.0000   -0.0000   -0.0000
       11 MO1   3py     0.0000   -0.0019   -0.0019    0.0000    0.0000   -0.0019   -0.0019   -0.0000   -0.0000   -0.0000
       12 MO1   4py     0.0000   -0.0493   -0.0493    0.0001    0.0000   -0.0349   -0.0349   -0.0000   -0.0000   -0.0000
       13 MO1   5py    -0.0000    0.0183    0.0183   -0.0000    0.0000    0.0075    0.0075    0.0000    0.0000    0.0000
       14 MO1   2pz     0.0001    0.0000    0.0000   -0.0000    0.0008    0.0000    0.0000   -0.0000    0.0001    0.0000
       15 MO1   3pz     0.0011    0.0000    0.0000   -0.0000    0.0105    0.0000    0.0000   -0.0000    0.0015    0.0000
       16 MO1   4pz     0.0316    0.0000    0.0000   -0.0000    0.1361    0.0000    0.0000   -0.0000    0.0104    0.0000
       17 MO1   5pz    -0.0145   -0.0000   -0.0000    0.0000    0.0354   -0.0000   -0.0000   -0.0000    0.0517    0.0000
       18 MO1   3d2-   -0.0000   -0.0000   -0.0000   -0.0016   -0.0000    0.0000    0.0000   -0.0029   -0.0000   -0.0000
       19 MO1   4d2-    0.0000    0.0000    0.0003    0.1046    0.0000   -0.0000   -0.0001    0.6355    0.0000    0.0000
       20 MO1   3d1-   -0.0000    0.0005    0.0005   -0.0000    0.0000   -0.0026   -0.0026   -0.0000    0.0000   -0.0000
       21 MO1   4d1-    0.0000   -0.0325   -0.0325    0.0001   -0.0001    0.3802    0.3801    0.0000    0.0000    0.0000
       22 MO1   3d0     0.0008    0.0000    0.0000   -0.0000    0.0055    0.0000    0.0000   -0.0000    0.0003    0.0000
       23 MO1   4d0    -0.0527   -0.0000   -0.0000    0.0000   -0.5273   -0.0000   -0.0001   -0.0000    0.1120   -0.0000
       24 MO1   3d1+    0.0000    0.0005   -0.0005    0.0000   -0.0000   -0.0026    0.0026    0.0000   -0.0000   -0.0000
       25 MO1   4d1+   -0.0000   -0.0325    0.0325   -0.0001    0.0001    0.3801   -0.3802   -0.0000   -0.0000    0.0000
       26 MO1   3d2+   -0.0000   -0.0000    0.0000   -0.0000    0.0000    0.0000   -0.0000    0.0000   -0.0000   -0.0020
       27 MO1   4d2+   -0.0000    0.0000   -0.0000    0.0000   -0.0000   -0.0001    0.0000   -0.0000    0.0000    0.5922
       28 O2    1s      0.0015    0.0000    0.0000   -0.0000    0.0184    0.0000    0.0000   -0.0000    0.0003   -0.0000
       29 O2    2s     -0.0033   -0.0000   -0.0000    0.0000    0.3291    0.0000    0.0000   -0.0000    0.0575    0.0000
       30 O2    2px    -0.0000   -0.0031    0.0031   -0.0000   -0.0000    0.4969   -0.4970   -0.0000   -0.0000    0.0000
       31 O2    2py     0.0000   -0.0031   -0.0031    0.0000    0.0000    0.4970    0.4969    0.0000    0.0000    0.0000
       32 O2    2pz    -0.0020   -0.0000    0.0000    0.0000    0.7552   -0.0000   -0.0001   -0.0000    0.2436   -0.0000
       33 CL3   1s     -0.0002    0.0000    0.0001    0.0001   -0.0008   -0.0000   -0.0007    0.0016    0.0016    0.0000
       34 CL3   2s      0.0050   -0.0000   -0.0092   -0.0064   -0.0072   -0.0000   -0.0065    0.0154    0.0159    0.0000
       35 CL3   3s      0.4758   -0.0002   -0.6927   -0.4876   -0.0536   -0.0000   -0.0567    0.1366    0.1469    0.0000
       36 CL3   2px     0.0009   -0.0004   -0.0009   -0.0007    0.0013    0.0005    0.0023   -0.0044   -0.0040   -0.0037
       37 CL3   3px    -0.0367    0.0010    0.0449    0.0309   -0.0293   -0.0117   -0.0650    0.2105    0.2791    0.2341
       38 CL3   2py    -0.0009   -0.0004    0.0009    0.0007   -0.0013    0.0005   -0.0023    0.0044    0.0040   -0.0037
       39 CL3   3py     0.0367    0.0010   -0.0449   -0.0309    0.0293   -0.0117    0.0650   -0.2105   -0.2791    0.2341
       40 CL3   2pz    -0.0003    0.0000    0.0002    0.0005   -0.0020    0.0000    0.0019    0.0030    0.0014    0.0000
       41 CL3   3pz     0.0142   -0.0000   -0.0179   -0.0121    0.0439   -0.0000   -0.0448   -0.1333   -0.1111    0.0000
       42 CL4   1s     -0.0002    0.0001   -0.0000   -0.0001   -0.0008   -0.0007    0.0000   -0.0016    0.0016    0.0000
       43 CL4   2s      0.0050   -0.0092    0.0000    0.0064   -0.0072   -0.0065    0.0000   -0.0154    0.0159    0.0000
       44 CL4   3s      0.4756   -0.6917    0.0015    0.4893   -0.0536   -0.0566    0.0000   -0.1366    0.1469    0.0000
       45 CL4   2px    -0.0009    0.0009    0.0004   -0.0008   -0.0013   -0.0023   -0.0005   -0.0044    0.0040    0.0037
       46 CL4   3px     0.0367   -0.0449   -0.0009    0.0310    0.0293    0.0650    0.0117    0.2105   -0.2791   -0.2341
       47 CL4   2py    -0.0009    0.0009   -0.0004   -0.0008   -0.0013   -0.0023    0.0005   -0.0044    0.0040   -0.0037
       48 CL4   3py     0.0367   -0.0449    0.0011    0.0310    0.0293    0.0650   -0.0117    0.2105   -0.2791    0.2340
       49 CL4   2pz    -0.0003    0.0002   -0.0000   -0.0005   -0.0020    0.0018   -0.0000   -0.0030    0.0014    0.0000
       50 CL4   3pz     0.0142   -0.0178    0.0000    0.0122    0.0439   -0.0448    0.0000    0.1333   -0.1111   -0.0000
       51 CL5   1s     -0.0002   -0.0000   -0.0001    0.0001   -0.0008    0.0000    0.0007    0.0016    0.0016   -0.0000
       52 CL5   2s      0.0050    0.0000    0.0092   -0.0064   -0.0072    0.0000    0.0065    0.0154    0.0159   -0.0000
       53 CL5   3s      0.4755    0.0002    0.6906   -0.4909   -0.0536    0.0000    0.0566    0.1365    0.1469    0.0000
       54 CL5   2px    -0.0009   -0.0004   -0.0009    0.0008   -0.0013    0.0005    0.0023    0.0044    0.0040    0.0037
       55 CL5   3px     0.0367    0.0010    0.0448   -0.0311    0.0293   -0.0117   -0.0650   -0.2105   -0.2790   -0.2340
       56 CL5   2py     0.0009   -0.0004    0.0009   -0.0008    0.0013    0.0005   -0.0023   -0.0044   -0.0040    0.0037
       57 CL5   3py    -0.0367    0.0010   -0.0448    0.0311   -0.0293   -0.0117    0.0650    0.2105    0.2790   -0.2340
       58 CL5   2pz    -0.0003   -0.0000   -0.0002    0.0005   -0.0020   -0.0000   -0.0018    0.0030    0.0014    0.0000
       59 CL5   3pz     0.0142    0.0000    0.0178   -0.0122    0.0439    0.0000    0.0448   -0.1333   -0.1111   -0.0000
       60 CL6   1s     -0.0002   -0.0001   -0.0000   -0.0001   -0.0008    0.0007   -0.0000   -0.0016    0.0016   -0.0000
       61 CL6   2s      0.0050    0.0092    0.0000    0.0064   -0.0072    0.0065   -0.0000   -0.0154    0.0159   -0.0000
       62 CL6   3s      0.4756    0.6917    0.0011    0.4893   -0.0536    0.0566   -0.0000   -0.1366    0.1469   -0.0000
       63 CL6   2px     0.0009    0.0009    0.0004    0.0008    0.0013   -0.0023   -0.0005    0.0044   -0.0040   -0.0037
       64 CL6   3px    -0.0367   -0.0449   -0.0011   -0.0310   -0.0293    0.0650    0.0117   -0.2105    0.2791    0.2340
       65 CL6   2py     0.0009    0.0009   -0.0004    0.0008    0.0013   -0.0023    0.0005    0.0044   -0.0040    0.0037
       66 CL6   3py    -0.0367   -0.0449    0.0009   -0.0310   -0.0293    0.0650   -0.0117   -0.2105    0.2791   -0.2341
       67 CL6   2pz    -0.0003   -0.0002   -0.0000   -0.0005   -0.0020   -0.0018    0.0000   -0.0030    0.0014   -0.0000
       68 CL6   3pz     0.0142    0.0178    0.0000    0.0122    0.0439    0.0448   -0.0000    0.1333   -0.1111    0.0000

          Orbital       51        52        53        54        55        56        57        58        59        60    
          Energy       -0.4208   -0.4208   -0.3921   -0.3773   -0.3773   -0.3670   -0.3670   -0.3669   -0.3523   -0.2904
          Occ. No.      2.0000    2.0000    2.0000    2.0000    2.0000    2.0000    2.0000    2.0000    2.0000    0.0000

        1 MO1   1s     -0.0000    0.0000   -0.0002   -0.0000   -0.0000   -0.0000   -0.0000    0.0000    0.0000    0.0000
        2 MO1   2s     -0.0000    0.0000   -0.0016   -0.0000   -0.0000   -0.0000   -0.0000    0.0000   -0.0000    0.0000
        3 MO1   3s     -0.0000    0.0000   -0.0067   -0.0000   -0.0000   -0.0000   -0.0000    0.0000    0.0000    0.0000
        4 MO1   4s     -0.0000    0.0000   -0.0288    0.0000   -0.0000   -0.0000   -0.0000    0.0000    0.0000    0.0000
        5 MO1   5s      0.0000   -0.0000    0.0044    0.0000    0.0000   -0.0000   -0.0000    0.0000    0.0000    0.0000
        6 MO1   2px     0.0004   -0.0004    0.0000    0.0001    0.0001   -0.0001    0.0001    0.0000    0.0000    0.0000
        7 MO1   3px     0.0050   -0.0050    0.0000    0.0007    0.0007   -0.0010    0.0010    0.0000    0.0000    0.0000
        8 MO1   4px     0.0798   -0.0798    0.0000    0.0122    0.0122   -0.0152    0.0152    0.0001    0.0000   -0.0000
        9 MO1   5px    -0.1049    0.1049   -0.0000   -0.0210   -0.0210    0.0051   -0.0051   -0.0000    0.0000    0.0000
       10 MO1   2py     0.0004    0.0004   -0.0000    0.0001   -0.0001    0.0001    0.0001   -0.0000    0.0000    0.0000
       11 MO1   3py     0.0050    0.0050   -0.0000    0.0007   -0.0007    0.0010    0.0010   -0.0000    0.0000    0.0000
       12 MO1   4py     0.0798    0.0798   -0.0000    0.0122   -0.0122    0.0152    0.0152   -0.0001    0.0000   -0.0000
       13 MO1   5py    -0.1049   -0.1049    0.0000   -0.0210    0.0210   -0.0051   -0.0051    0.0000    0.0000    0.0000
       14 MO1   2pz     0.0000   -0.0000   -0.0004   -0.0000   -0.0000   -0.0000   -0.0000    0.0000   -0.0000   -0.0000
       15 MO1   3pz     0.0000   -0.0000   -0.0053   -0.0000   -0.0000   -0.0000   -0.0000    0.0000   -0.0000   -0.0000
       16 MO1   4pz     0.0000   -0.0000   -0.0759   -0.0000   -0.0000   -0.0000   -0.0000    0.0000   -0.0000   -0.0000
       17 MO1   5pz    -0.0000    0.0000    0.0978    0.0000    0.0000    0.0000    0.0000   -0.0000   -0.0000   -0.0000
       18 MO1   3d2-    0.0000   -0.0000    0.0000   -0.0000    0.0000    0.0000    0.0000    0.0001   -0.0000    0.0000
       19 MO1   4d2-   -0.0000    0.0000   -0.0000   -0.0000   -0.0000   -0.0001   -0.0000   -0.0210    0.0000    0.0000
       20 MO1   3d1-   -0.0003   -0.0003   -0.0000   -0.0001    0.0001   -0.0001   -0.0001    0.0000   -0.0000   -0.0000
       21 MO1   4d1-    0.1231    0.1232   -0.0000   -0.0329    0.0329    0.0553    0.0553   -0.0003    0.0000    0.0001
       22 MO1   3d0    -0.0000    0.0000   -0.0006   -0.0000   -0.0000    0.0000    0.0000    0.0000   -0.0000   -0.0000
       23 MO1   4d0    -0.0000   -0.0000   -0.0796   -0.0000   -0.0000   -0.0000   -0.0000    0.0000   -0.0000   -0.0000
       24 MO1   3d1+   -0.0003    0.0003    0.0000   -0.0001   -0.0001    0.0001   -0.0001   -0.0000   -0.0000   -0.0000
       25 MO1   4d1+    0.1232   -0.1231    0.0000   -0.0329   -0.0329   -0.0553    0.0553    0.0003    0.0000    0.0001
       26 MO1   3d2+   -0.0000   -0.0000    0.0000    0.0000   -0.0000   -0.0000    0.0000   -0.0000    0.0000   -0.0005
       27 MO1   4d2+    0.0000    0.0000   -0.0000   -0.0000    0.0000    0.0000   -0.0000    0.0000   -0.0000    0.8330
       28 O2    1s      0.0000    0.0000   -0.0031   -0.0000   -0.0000   -0.0000    0.0000    0.0000    0.0000   -0.0000
       29 O2    2s      0.0000    0.0000   -0.0482   -0.0000   -0.0000   -0.0000   -0.0000    0.0000   -0.0000   -0.0000
       30 O2    2px    -0.2085    0.2084   -0.0000    0.1585    0.1585    0.0940   -0.0939   -0.0005   -0.0000    0.0000
       31 O2    2py    -0.2084   -0.2085    0.0000    0.1585   -0.1585   -0.0939   -0.0940    0.0005   -0.0000    0.0000
       32 O2    2pz    -0.0000    0.0001   -0.2082   -0.0000   -0.0000    0.0000    0.0000    0.0000   -0.0000   -0.0000
       33 CL3   1s      0.0000   -0.0018    0.0002    0.0000    0.0001    0.0003    0.0000    0.0001    0.0000   -0.0000
       34 CL3   2s      0.0000   -0.0170    0.0018    0.0000    0.0006    0.0024    0.0000    0.0007    0.0000   -0.0000
       35 CL3   3s      0.0000   -0.1467    0.0121    0.0000    0.0110    0.0111    0.0000    0.0023    0.0000   -0.0000
       36 CL3   2px     0.0023    0.0048   -0.0010   -0.0005    0.0000    0.0011   -0.0026    0.0008    0.0017   -0.0004
       37 CL3   3px    -0.1585   -0.3867    0.1022    0.0870    0.0023   -0.1965    0.4626   -0.1511   -0.3727   -0.2537
       38 CL3   2py     0.0023   -0.0048    0.0010   -0.0005   -0.0000   -0.0011   -0.0026   -0.0008    0.0017   -0.0004
       39 CL3   3py    -0.1585    0.3867   -0.1022    0.0870   -0.0023    0.1965    0.4626    0.1511   -0.3727   -0.2537
       40 CL3   2pz     0.0000   -0.0012   -0.0038    0.0000    0.0045    0.0006    0.0000    0.0026    0.0000   -0.0000
       41 CL3   3pz    -0.0000    0.0857    0.4320   -0.0000   -0.6807   -0.0951   -0.0000   -0.4636   -0.0000    0.0000
       42 CL4   1s     -0.0018    0.0000    0.0002   -0.0001    0.0000   -0.0000    0.0003   -0.0001    0.0000    0.0000
       43 CL4   2s     -0.0170    0.0000    0.0018   -0.0006    0.0000   -0.0000    0.0024   -0.0007    0.0000    0.0000
       44 CL4   3s     -0.1467    0.0000    0.0121   -0.0110    0.0000   -0.0000    0.0111   -0.0024    0.0000   -0.0000
       45 CL4   2px    -0.0048   -0.0023    0.0010    0.0000   -0.0005    0.0026   -0.0011    0.0008    0.0017    0.0004
       46 CL4   3px     0.3867    0.1585   -0.1022    0.0022    0.0870   -0.4634    0.1958   -0.1497   -0.3727    0.2537
       47 CL4   2py    -0.0048    0.0023    0.0010    0.0000    0.0005   -0.0026   -0.0011    0.0009   -0.0017   -0.0004
       48 CL4   3py     0.3868   -0.1585   -0.1022    0.0023   -0.0871    0.4617    0.1957   -0.1547    0.3728   -0.2537
       49 CL4   2pz    -0.0012   -0.0000   -0.0038   -0.0045   -0.0000   -0.0000    0.0006   -0.0026    0.0000    0.0000
       50 CL4   3pz     0.0858    0.0000    0.4319    0.6807    0.0002    0.0025   -0.0926    0.4642   -0.0001    0.0000
       51 CL5   1s     -0.0000    0.0018    0.0002   -0.0000   -0.0001   -0.0003   -0.0000    0.0001   -0.0000    0.0000
       52 CL5   2s     -0.0000    0.0170    0.0018   -0.0000   -0.0006   -0.0024   -0.0000    0.0007   -0.0000    0.0000
       53 CL5   3s     -0.0000    0.1467    0.0121   -0.0000   -0.0110   -0.0110   -0.0000    0.0024    0.0000   -0.0000
       54 CL5   2px     0.0023    0.0048    0.0010   -0.0005    0.0000    0.0011   -0.0026   -0.0008   -0.0017    0.0004
       55 CL5   3px    -0.1585   -0.3868   -0.1022    0.0870    0.0023   -0.1949    0.4626    0.1533    0.3728    0.2537
       56 CL5   2py     0.0023   -0.0048   -0.0010   -0.0005   -0.0000   -0.0011   -0.0026    0.0008   -0.0017    0.0004
       57 CL5   3py    -0.1585    0.3868    0.1022    0.0870   -0.0023    0.1949    0.4626   -0.1533    0.3728    0.2537
       58 CL5   2pz    -0.0000    0.0012   -0.0038   -0.0000   -0.0045   -0.0006   -0.0000    0.0026   -0.0000    0.0000
       59 CL5   3pz     0.0000   -0.0858    0.4318    0.0000    0.6807    0.0900    0.0000   -0.4648    0.0000    0.0000
       60 CL6   1s      0.0018    0.0000    0.0002    0.0001    0.0000   -0.0000   -0.0003   -0.0001   -0.0000   -0.0000
       61 CL6   2s      0.0170    0.0000    0.0018    0.0006    0.0000   -0.0000   -0.0024   -0.0007   -0.0000   -0.0000
       62 CL6   3s      0.1467    0.0000    0.0121    0.0110    0.0000   -0.0000   -0.0111   -0.0024   -0.0000    0.0000
       63 CL6   2px    -0.0048   -0.0023   -0.0010    0.0000   -0.0005    0.0026   -0.0011   -0.0009   -0.0017   -0.0004
       64 CL6   3px     0.3868    0.1585    0.1022    0.0023    0.0871   -0.4618    0.1957    0.1547    0.3728   -0.2537
       65 CL6   2py    -0.0048    0.0023   -0.0010    0.0000    0.0005   -0.0026   -0.0011   -0.0008    0.0017    0.0004
       66 CL6   3py     0.3867   -0.1585    0.1022    0.0022   -0.0870    0.4634    0.1958    0.1497   -0.3727    0.2537
       67 CL6   2pz     0.0012   -0.0000   -0.0038    0.0045   -0.0000   -0.0000   -0.0006   -0.0026   -0.0000   -0.0000
       68 CL6   3pz    -0.0858    0.0000    0.4319   -0.6807    0.0002    0.0025    0.0926    0.4642    0.0001   -0.0000

          Orbital       61        62        63        64        65        66        67        68    
          Energy       -0.2267   -0.2267   -0.2152   -0.1716   -0.0314    0.1097    0.1097    0.1320
          Occ. No.      0.0000    0.0000    0.0000    0.0000    0.0000    0.0000    0.0000    0.0000

        1 MO1   1s     -0.0000    0.0000    0.0000    0.0005   -0.0011    0.0000    0.0000    0.0006
        2 MO1   2s     -0.0000    0.0000    0.0000    0.0034   -0.0074    0.0000    0.0000    0.0038
        3 MO1   3s     -0.0000    0.0000    0.0000    0.0138   -0.0333    0.0000    0.0000    0.0166
        4 MO1   4s     -0.0000    0.0000    0.0000    0.0578   -0.1783    0.0000    0.0000    0.0921
        5 MO1   5s      0.0000   -0.0000   -0.0000   -0.1558   -1.3221    0.0000    0.0000    0.2530
        6 MO1   2px     0.0000   -0.0000   -0.0000   -0.0000    0.0000    0.0003    0.0003   -0.0000
        7 MO1   3px    -0.0000    0.0000   -0.0000   -0.0000    0.0000    0.0066    0.0067   -0.0000
        8 MO1   4px    -0.0033    0.0033   -0.0000   -0.0000    0.0000    0.1067    0.1068   -0.0000
        9 MO1   5px    -0.0091    0.0091    0.0000    0.0000   -0.0000    0.9586    0.9592   -0.0001
       10 MO1   2py    -0.0000   -0.0000    0.0000    0.0000   -0.0000   -0.0003    0.0003    0.0000
       11 MO1   3py     0.0000    0.0000    0.0000    0.0000   -0.0000   -0.0067    0.0066    0.0000
       12 MO1   4py     0.0033    0.0033    0.0000    0.0000   -0.0000   -0.1068    0.1067    0.0000
       13 MO1   5py     0.0091    0.0091   -0.0000   -0.0000    0.0000   -0.9592    0.9586    0.0001
       14 MO1   2pz     0.0000   -0.0000   -0.0000    0.0009   -0.0002    0.0000    0.0000    0.0009
       15 MO1   3pz     0.0000   -0.0000   -0.0000    0.0105   -0.0016    0.0000    0.0000    0.0151
       16 MO1   4pz    -0.0000    0.0000   -0.0000    0.1349   -0.0221    0.0000    0.0000    0.2316
       17 MO1   5pz    -0.0000    0.0000    0.0000   -0.3306    0.2786    0.0002    0.0000    1.2118
       18 MO1   3d2-    0.0000   -0.0000    0.0016   -0.0000   -0.0000   -0.0000   -0.0000   -0.0000
       19 MO1   4d2-    0.0000   -0.0000    0.8554   -0.0000   -0.0000   -0.0000   -0.0000   -0.0000
       20 MO1   3d1-   -0.0009   -0.0009    0.0000    0.0000   -0.0000   -0.0001    0.0001    0.0000
       21 MO1   4d1-   -0.6207   -0.6206    0.0000    0.0001   -0.0000    0.0205   -0.0205    0.0001
       22 MO1   3d0     0.0000   -0.0000    0.0000    0.0041   -0.0010    0.0000    0.0000    0.0053
       23 MO1   4d0     0.0001   -0.0000    0.0000    0.8218   -0.0546    0.0000    0.0000    0.4988
       24 MO1   3d1+    0.0009   -0.0009   -0.0000   -0.0000    0.0000    0.0001    0.0001   -0.0000
       25 MO1   4d1+    0.6206   -0.6207   -0.0000   -0.0001    0.0000   -0.0205   -0.0205   -0.0001
       26 MO1   3d2+    0.0000    0.0000   -0.0000   -0.0000   -0.0000    0.0000   -0.0000    0.0000
       27 MO1   4d2+    0.0000    0.0001   -0.0000    0.0000    0.0000   -0.0000    0.0000    0.0000
       28 O2    1s      0.0000   -0.0000   -0.0000   -0.0146    0.0295   -0.0000   -0.0000   -0.1037
       29 O2    2s     -0.0000   -0.0000   -0.0000   -0.1231    0.2816   -0.0000   -0.0000   -0.8179
       30 O2    2px    -0.4419    0.4420   -0.0000   -0.0000    0.0000   -0.2204   -0.2205   -0.0000
       31 O2    2py     0.4420    0.4419    0.0000    0.0000   -0.0000    0.2205   -0.2204    0.0000
       32 O2    2pz    -0.0001    0.0000    0.0000    0.5759   -0.1446   -0.0000   -0.0000    0.3079
       33 CL3   1s      0.0017   -0.0000    0.0027    0.0011    0.0074   -0.0120   -0.0000    0.0025
       34 CL3   2s      0.0149   -0.0000    0.0239    0.0099    0.0648   -0.1041   -0.0000    0.0215
       35 CL3   3s      0.0777   -0.0000    0.1301    0.0572    0.3245   -0.4793   -0.0001    0.0967
       36 CL3   2px    -0.0023   -0.0004   -0.0031   -0.0009   -0.0070    0.0114   -0.0050   -0.0040
       37 CL3   3px    -0.2250   -0.0268   -0.2766   -0.0700   -0.2131    0.2337   -0.1574   -0.1004
       38 CL3   2py     0.0023   -0.0004    0.0031    0.0009    0.0070   -0.0114   -0.0050    0.0040
       39 CL3   3py     0.2249   -0.0268    0.2766    0.0700    0.2131   -0.2336   -0.1576    0.1004
       40 CL3   2pz    -0.0008    0.0000    0.0019    0.0031    0.0014   -0.0068   -0.0000   -0.0039
       41 CL3   3pz    -0.1325    0.0000    0.1749    0.2320    0.0330   -0.1700   -0.0001   -0.1436
       42 CL4   1s      0.0000    0.0017   -0.0027    0.0011    0.0074   -0.0000    0.0120    0.0025
       43 CL4   2s      0.0000    0.0149   -0.0239    0.0099    0.0648   -0.0000    0.1041    0.0214
       44 CL4   3s      0.0000    0.0777   -0.1301    0.0572    0.3245   -0.0001    0.4793    0.0966
       45 CL4   2px     0.0004    0.0023   -0.0031    0.0009    0.0070   -0.0050    0.0114    0.0040
       46 CL4   3px     0.0268    0.2250   -0.2766    0.0700    0.2131   -0.1576    0.2336    0.1004
       47 CL4   2py    -0.0004    0.0023   -0.0031    0.0009    0.0070    0.0050    0.0114    0.0040
       48 CL4   3py    -0.0268    0.2250   -0.2766    0.0700    0.2131    0.1574    0.2337    0.1004
       49 CL4   2pz     0.0000   -0.0008   -0.0019    0.0031    0.0014   -0.0000    0.0068   -0.0039
       50 CL4   3pz     0.0000   -0.1325   -0.1750    0.2320    0.0331   -0.0001    0.1701   -0.1436
       51 CL5   1s     -0.0017    0.0000    0.0027    0.0011    0.0074    0.0120    0.0000    0.0025
       52 CL5   2s     -0.0149    0.0000    0.0239    0.0099    0.0648    0.1041    0.0000    0.0214
       53 CL5   3s     -0.0777    0.0000    0.1301    0.0572    0.3245    0.4793    0.0001    0.0966
       54 CL5   2px    -0.0023   -0.0004    0.0031    0.0009    0.0070    0.0114   -0.0050    0.0040
       55 CL5   3px    -0.2250   -0.0268    0.2766    0.0700    0.2131    0.2337   -0.1574    0.1004
       56 CL5   2py     0.0023   -0.0004   -0.0031   -0.0009   -0.0070   -0.0114   -0.0050   -0.0040
       57 CL5   3py     0.2250   -0.0268   -0.2766   -0.0700   -0.2131   -0.2336   -0.1576   -0.1004
       58 CL5   2pz     0.0008   -0.0000    0.0019    0.0031    0.0014    0.0068    0.0000   -0.0039
       59 CL5   3pz     0.1324   -0.0000    0.1750    0.2320    0.0331    0.1701    0.0001   -0.1435
       60 CL6   1s     -0.0000   -0.0017   -0.0027    0.0011    0.0074    0.0000   -0.0120    0.0025
       61 CL6   2s     -0.0000   -0.0149   -0.0239    0.0099    0.0648    0.0000   -0.1041    0.0214
       62 CL6   3s     -0.0000   -0.0777   -0.1301    0.0572    0.3245    0.0002   -0.4793    0.0966
       63 CL6   2px     0.0004    0.0023    0.0031   -0.0009   -0.0070   -0.0050    0.0114   -0.0040
       64 CL6   3px     0.0268    0.2250    0.2766   -0.0700   -0.2131   -0.1576    0.2336   -0.1004
       65 CL6   2py    -0.0004    0.0023    0.0031   -0.0009   -0.0070    0.0050    0.0114   -0.0040
       66 CL6   3py    -0.0268    0.2250    0.2766   -0.0700   -0.2131    0.1574    0.2337   -0.1004
       67 CL6   2pz     0.0000    0.0008   -0.0019    0.0031    0.0014    0.0000   -0.0068   -0.0039
       68 CL6   3pz     0.0000    0.1325   -0.1750    0.2320    0.0331    0.0000   -0.1701   -0.1436
--


++    Molecular charges:
      ------------------

      Mulliken charges per centre and basis function type
      ---------------------------------------------------

             MO1     O2      CL3     CL4     CL5     CL6   
      1s     2.0000  2.0005  2.0000  2.0000  2.0000  2.0000
      2s     2.0000  1.9590  2.0008  2.0008  2.0008  2.0008
      2px    2.0000  1.4438  2.0001  2.0001  2.0001  2.0001
      2pz    2.0000  1.4568  2.0000  2.0000  2.0000  2.0000
      2py    2.0000  1.4438  2.0001  2.0001  2.0001  2.0001
      3s     1.9999  0.0000  1.9921  1.9921  1.9921  1.9921
      3px    2.0000  0.0000  1.6576  1.6576  1.6576  1.6576
      3pz    2.0000  0.0000  1.8698  1.8698  1.8698  1.8698
      3py    2.0000  0.0000  1.6576  1.6576  1.6576  1.6576
      4s     1.9961  0.0000  0.0000  0.0000  0.0000  0.0000
      3d2+   2.0000  0.0000  0.0000  0.0000  0.0000  0.0000
      3d1+   2.0000  0.0000  0.0000  0.0000  0.0000  0.0000
      3d0    2.0000  0.0000  0.0000  0.0000  0.0000  0.0000
      3d1-   2.0000  0.0000  0.0000  0.0000  0.0000  0.0000
      3d2-   2.0000  0.0000  0.0000  0.0000  0.0000  0.0000
      4px    1.9938  0.0000  0.0000  0.0000  0.0000  0.0000
      4pz    1.9863  0.0000  0.0000  0.0000  0.0000  0.0000
      4py    1.9938  0.0000  0.0000  0.0000  0.0000  0.0000
      5s     0.1852  0.0000  0.0000  0.0000  0.0000  0.0000
      4d2+   0.8705  0.0000  0.0000  0.0000  0.0000  0.0000
      4d1+   0.8650  0.0000  0.0000  0.0000  0.0000  0.0000
      4d0    0.7914  0.0000  0.0000  0.0000  0.0000  0.0000
      4d1-   0.8650  0.0000  0.0000  0.0000  0.0000  0.0000
      4d2-   0.9938  0.0000  0.0000  0.0000  0.0000  0.0000
      5px    0.1601  0.0000  0.0000  0.0000  0.0000  0.0000
      5pz    0.1237  0.0000  0.0000  0.0000  0.0000  0.0000
      5py    0.1601  0.0000  0.0000  0.0000  0.0000  0.0000
      Total 40.9847  8.3038 17.1779 17.1779 17.1779 17.1779

      N-E    1.0153 -0.3038 -0.1779 -0.1779 -0.1779 -0.1779

      Total electronic charge=  118.000000

      Total            charge=   -0.000000
--


  Input file to MOLDEN was generated!


++    Static properties:
      ------------------


      LoProp Charges per center


                   MO1      O2       CL3      CL4      CL5      CL6   
      Nuclear     42.0000   8.0000  17.0000  17.0000  17.0000  17.0000
      Electronic -40.9060  -8.2667 -17.2068 -17.2068 -17.2068 -17.2068

      Total        1.0940  -0.2667  -0.2068  -0.2068  -0.2068  -0.2068
--


++    Natural Bond Order analysis
      ---------------------------
      Based on LoProp computed density
      -------------------------------------------------------------------------------------
      Atom A       Atom B       Bond Order | Atom A       Atom B       Bond Order
        MO1          O2             3.000  |   MO1          CL4            2.000
        MO1          CL3            2.000  |   MO1          CL5            2.000
        MO1          CL6            2.000  |
      -------------------------------------------------------------------------------------
      NBO located     78.000 core electrons.
      NBO located     17.526 lone pair electrons.
      NBO located     22.000 electrons involved in    5 bonds.
      The remaining    0.474 electrons are to be considered as diffuse
--


++    Molecular properties:
      ---------------------

      Charge (e):
                      =   -0.0000
      Dipole Moment (Debye):
      Origin of the operator (Ang)=    0.0000    0.0000    0.0000
                   X= -9.6532E-06               Y=  9.6538E-06               Z=  1.2179E-01           Total=  1.2179E-01
      Quadrupole Moment (Debye*Ang):
      Origin of the operator (Ang)=    0.0003   -0.0003   -0.2341
                  XX= -8.8028E+01              XY=  5.8709E-06              XZ= -1.2592E-04              YY= -8.8028E+01
                  YZ=  1.2592E-04              ZZ= -8.5847E+01
      In traceless form (Debye*Ang)
                  XX= -1.0906E+00              XY=  8.8064E-06              XZ= -1.8888E-04              YY= -1.0906E+00
                  YZ=  1.8888E-04              ZZ=  2.1812E+00
--


  Input file to MOLDEN was generated!

 ###############################################################################
 ###############################################################################
 ###                                                                         ###
 ###                                                                         ###
 ###    RunFile label nBas                                                   ###
 ###    was used      102 times                                              ###
 ###                                                                         ###
 ###                                                                         ###
 ###############################################################################
 ###############################################################################
 ###############################################################################
 ###############################################################################
 ###                                                                         ###
 ###                                                                         ###
 ###    RunFile label System BitSwitch                                       ###
 ###    was used       52 times                                              ###
 ###                                                                         ###
 ###                                                                         ###
 ###############################################################################
 ###############################################################################
--- Stop Module: scf at Fri Aug  3 02:58:54 2018 /rc=_RC_ALL_IS_WELL_ ---
*** files: MoOCl4_sp.LprOrb MoOCl4_sp.LoProp.molden MoOCl4_sp.scf.molden MoOCl4_sp.ScfOrb MoOCl4_sp.scf.h5 xmldump
    saved to directory /home/kunal/OpenMolcas/build
--- Module scf spent 44 seconds ---

    Timing: Wall=67.59 User=65.56 System=1.56
