 Entering Gaussian System, Link 0=C:\G03W\g03.exe
 Input=3.gjf
 Output=C:\Work\Geoff\First\gaussian\3.out
 Initial command:
 C:\G03W\l1.exe .\gxx.inp C:\Work\Geoff\First\gaussian\3.out /scrdir=.\
 Entering Link 1 = C:\G03W\l1.exe PID=      6132.
  
 Copyright (c) 1988,1990,1992,1993,1995,1998,2003,2004,2007, Gaussian, Inc.
                  All Rights Reserved.
  
 This is the Gaussian(R) 03 program.  It is based on the
 the Gaussian(R) 98 system (copyright 1998, Gaussian, Inc.),
 the Gaussian(R) 94 system (copyright 1995, Gaussian, Inc.),
 the Gaussian 92(TM) system (copyright 1992, Gaussian, Inc.),
 the Gaussian 90(TM) system (copyright 1990, Gaussian, Inc.),
 the Gaussian 88(TM) system (copyright 1988, Gaussian, Inc.),
 the Gaussian 86(TM) system (copyright 1986, Carnegie Mellon
 University), and the Gaussian 82(TM) system (copyright 1983,
 Carnegie Mellon University). Gaussian is a federally registered
 trademark of Gaussian, Inc.
  
 This software contains proprietary and confidential information,
 including trade secrets, belonging to Gaussian, Inc.
  
 This software is provided under written license and may be
 used, copied, transmitted, or stored only in accord with that
 written license.
  
 The following legend is applicable only to US Government
 contracts under FAR:
  
                    RESTRICTED RIGHTS LEGEND
  
 Use, reproduction and disclosure by the US Government is
 subject to restrictions as set forth in subparagraphs (a)
 and (c) of the Commercial Computer Software - Restricted
 Rights clause in FAR 52.227-19.
  
 Gaussian, Inc.
 340 Quinnipiac St., Bldg. 40, Wallingford CT 06492
  
  
 ---------------------------------------------------------------
 Warning -- This program may not be used in any manner that
 competes with the business of Gaussian, Inc. or will provide
 assistance to any competitor of Gaussian, Inc.  The licensee
 of this program is prohibited from giving any competitor of
 Gaussian, Inc. access to this program.  By using this program,
 the user acknowledges that Gaussian, Inc. is engaged in the
 business of creating and licensing software in the field of
 computational chemistry and represents and warrants to the
 licensee that it is not a competitor of Gaussian, Inc. and that
 it will not use this program in any manner prohibited above.
 ---------------------------------------------------------------
  

 Cite this work as:
 Gaussian 03, Revision E.01,
 M. J. Frisch, G. W. Trucks, H. B. Schlegel, G. E. Scuseria, 
 M. A. Robb, J. R. Cheeseman, J. A. Montgomery, Jr., T. Vreven, 
 K. N. Kudin, J. C. Burant, J. M. Millam, S. S. Iyengar, J. Tomasi, 
 V. Barone, B. Mennucci, M. Cossi, G. Scalmani, N. Rega, 
 G. A. Petersson, H. Nakatsuji, M. Hada, M. Ehara, K. Toyota, 
 R. Fukuda, J. Hasegawa, M. Ishida, T. Nakajima, Y. Honda, O. Kitao, 
 H. Nakai, M. Klene, X. Li, J. E. Knox, H. P. Hratchian, J. B. Cross, 
 V. Bakken, C. Adamo, J. Jaramillo, R. Gomperts, R. E. Stratmann, 
 O. Yazyev, A. J. Austin, R. Cammi, C. Pomelli, J. W. Ochterski, 
 P. Y. Ayala, K. Morokuma, G. A. Voth, P. Salvador, J. J. Dannenberg, 
 V. G. Zakrzewski, S. Dapprich, A. D. Daniels, M. C. Strain, 
 O. Farkas, D. K. Malick, A. D. Rabuck, K. Raghavachari, 
 J. B. Foresman, J. V. Ortiz, Q. Cui, A. G. Baboul, S. Clifford, 
 J. Cioslowski, B. B. Stefanov, G. Liu, A. Liashenko, P. Piskorz, 
 I. Komaromi, R. L. Martin, D. J. Fox, T. Keith, M. A. Al-Laham, 
 C. Y. Peng, A. Nanayakkara, M. Challacombe, P. M. W. Gill, 
 B. Johnson, W. Chen, M. W. Wong, C. Gonzalez, and J. A. Pople, 
 Gaussian, Inc., Wallingford CT, 2004.
 
 ******************************************
 Gaussian 03:  IA32W-G03RevE.01 11-Sep-2007
                04-Jun-2009 
 ******************************************
 --------
 # AM1 SP
 --------
 1/30=1,38=1/1;
 2/17=6,18=5,40=1/2;
 3/5=2,11=9,12=1,16=1,25=1,30=1/1;
 4/5=3,11=1,20=5,24=3,35=1/1,2;
 6/7=2,8=2,9=2,10=2/1;
 99/5=1,9=1/99;
 ---------------------------------------------
 c(o1)ccc1~c([nH]1)ccc1~c(o1)ccc1~c([nH]1)ccc1
 ---------------------------------------------
 Symbolic Z-matrix:
 Charge =  0 Multiplicity = 1
 C                     0.02891   1.42338  -0.04699 
 O                     1.22852   0.78985  -0.06388 
 C                    -0.99636   0.511    -0.00955 
 C                    -0.38073  -0.76403  -0.00011 
 C                     0.98817  -0.5607   -0.03023 
 C                     2.04224  -1.52487  -0.016 
 N                     3.36453  -1.15725  -0.08248 
 H                     3.69403  -0.20305  -0.15041 
 C                     2.00424  -2.90214   0.06872 
 C                     3.34385  -3.36779   0.08926 
 C                     4.17083  -2.26542  -0.00008 
 C                     5.59634  -2.1757   -0.00977 
 O                     6.26751  -1.0711   -0.4647 
 C                     6.52035  -3.11549   0.4044 
 C                     7.80306  -2.56017   0.18822 
 C                     7.61462  -1.30914  -0.36709 
 C                     8.59633  -0.36873  -0.80675 
 N                     8.24759   0.79507  -1.44671 
 H                     7.29516   1.07129  -1.64607 
 C                     9.97518  -0.39708  -0.72878 
 C                     10.46591   0.7806   -1.34594 
 C                     9.3752    1.49799  -1.78408 
 H                     0.0702    2.50307  -0.06351 
 H                    -2.05279   0.73491   0.01129 
 H                    -0.87642  -1.72436   0.03056 
 H                     1.1126   -3.51238   0.12596 
 H                     3.66353  -4.39856   0.15629 
 H                     6.29331  -4.08703   0.82045 
 H                     8.75621  -3.02469   0.39631 
 H                     10.57121  -1.18143  -0.28174 
 H                     11.50268   1.06996  -1.4617 
 H                     9.30374   2.44282  -2.30617 
 
                          Input orientation:                          
 ---------------------------------------------------------------------
 Center     Atomic     Atomic              Coordinates (Angstroms)
 Number     Number      Type              X           Y           Z
 ---------------------------------------------------------------------
    1          6             0        0.028910    1.423380   -0.046990
    2          8             0        1.228520    0.789850   -0.063880
    3          6             0       -0.996360    0.511000   -0.009550
    4          6             0       -0.380730   -0.764030   -0.000110
    5          6             0        0.988170   -0.560700   -0.030230
    6          6             0        2.042240   -1.524870   -0.016000
    7          7             0        3.364530   -1.157250   -0.082480
    8          1             0        3.694030   -0.203050   -0.150410
    9          6             0        2.004240   -2.902140    0.068720
   10          6             0        3.343850   -3.367790    0.089260
   11          6             0        4.170830   -2.265420   -0.000080
   12          6             0        5.596340   -2.175700   -0.009770
   13          8             0        6.267510   -1.071100   -0.464700
   14          6             0        6.520350   -3.115490    0.404400
   15          6             0        7.803060   -2.560170    0.188220
   16          6             0        7.614620   -1.309140   -0.367090
   17          6             0        8.596330   -0.368730   -0.806750
   18          7             0        8.247590    0.795070   -1.446710
   19          1             0        7.295160    1.071290   -1.646070
   20          6             0        9.975180   -0.397080   -0.728780
   21          6             0       10.465910    0.780600   -1.345940
   22          6             0        9.375200    1.497990   -1.784080
   23          1             0        0.070200    2.503070   -0.063510
   24          1             0       -2.052790    0.734910    0.011290
   25          1             0       -0.876420   -1.724360    0.030560
   26          1             0        1.112600   -3.512380    0.125960
   27          1             0        3.663530   -4.398560    0.156290
   28          1             0        6.293310   -4.087030    0.820450
   29          1             0        8.756210   -3.024690    0.396310
   30          1             0       10.571210   -1.181430   -0.281740
   31          1             0       11.502680    1.069960   -1.461700
   32          1             0        9.303740    2.442820   -2.306170
 ---------------------------------------------------------------------
                    Distance matrix (angstroms):
                    1          2          3          4          5
     1  C    0.000000
     2  O    1.356728   0.000000
     3  C    1.372959   2.242945   0.000000
     4  C    2.225930   2.237922   1.415906   0.000000
     5  C    2.203868   1.372183   2.255511   1.384246   0.000000
     6  C    3.570243   2.454050   3.657581   2.539668   1.428597
     7  N    4.217496   2.890343   4.669661   3.766747   2.450651
     8  H    4.011119   2.659338   4.746522   4.115939   2.732039
     9  C    4.756621   3.774932   4.545245   3.203800   2.554316
    10  C    5.827753   4.667338   5.821701   4.545333   3.666505
    11  C    5.546616   4.242161   5.865872   4.792794   3.610582
    12  C    6.629558   5.279703   7.119133   6.141520   4.883019
    13  O    6.731793   5.386577   7.448088   6.671524   5.321720
    14  C    7.933718   6.593514   8.356058   7.301911   6.109081
    15  C    8.738501   7.383141   9.322070   8.380692   7.105514
    16  C    8.069208   6.729039   8.808503   8.022309   6.677086
    17  C    8.785760   7.495251   9.665876   9.021892   7.650094
    18  N    8.360663   7.153991   9.359313   8.886583   7.519555
    19  H    7.448450   6.275879   8.470031   8.062064   6.712112
    20  C   10.134456   8.851833  11.032524  10.387997   9.015603
    21  C   10.537144   9.325939  11.543061  11.038421   9.662181
    22  C    9.506639   8.356372  10.568461  10.172387   8.812291
    23  H    1.080606   2.068049   2.260267   3.298682   3.198510
    24  H    2.193368   3.282631   1.080099   2.245604   3.305717
    25  H    3.276264   3.280388   2.238935   1.081149   2.198749
    26  H    5.056285   4.307976   4.544630   3.130392   2.958427
    27  H    6.866351   5.735621   6.770957   5.439697   4.682041
    28  H    8.388074   7.086473   8.658526   7.500564   6.426754
    29  H    9.805489   8.451545  10.381640   9.420796   8.160614
    30  H   10.861871   9.550878  11.693891  10.963509   9.606415
    31  H   11.566058  10.372595  12.595522  12.112605  10.736064
    32  H    9.600293   8.542210  10.728395  10.459004   9.129608
                    6          7          8          9         10
     6  C    0.000000
     7  N    1.374051   0.000000
     8  H    2.119831   1.011772   0.000000
     9  C    1.380396   2.217632   3.191942   0.000000
    10  C    2.258677   2.217298   3.193062   1.418382   0.000000
    11  C    2.253789   1.372935   2.122100   2.259261   1.380977
    12  C    3.613204   2.454283   2.744068   3.665659   2.550411
    13  O    4.273189   2.929301   2.734061   4.670408   3.758915
    14  C    4.770773   3.745792   4.096121   4.533591   3.202049
    15  C    5.856671   4.662833   4.749191   5.810124   4.532835
    16  C    5.587595   4.262316   4.079389   5.848414   4.762958
    17  C    6.702092   5.340231   4.948816   7.116197   6.114388
    18  N    6.777568   5.432951   4.838548   7.412510   6.613265
    19  H    6.081969   4.781324   4.102326   6.835385   6.191095
    20  C    8.044346   6.685526   6.310706   8.393284   7.312239
    21  C    8.834147   7.468681   6.946598   9.336150   8.366163
    22  C    8.126259   6.787775   6.151269   8.782088   7.972603
    23  H    4.485031   4.924522   4.523581   5.742324   6.723624
    24  H    4.677245   5.739026   5.825106   5.448938   6.779524
    25  H    2.925840   4.280193   4.820389   3.112366   4.529347
    26  H    2.198768   3.265161   4.206165   1.081985   2.236231
    27  H    3.303991   3.263817   4.206816   2.236109   1.081284
    28  H    5.033479   4.239887   4.773272   4.512780   3.122701
    29  H    6.891796   5.725975   5.821187   6.761023   5.431909
    30  H    8.540017   7.209475   6.947667   8.745092   7.559930
    31  H    9.915801   8.549398   8.019666  10.408656   9.416242
    32  H    8.585850   7.292429   6.566337   9.353684   8.661499
                   11         12         13         14         15
    11  C    0.000000
    12  C    1.428364   0.000000
    13  O    2.457303   1.370245   0.000000
    14  C    2.531100   1.381498   2.235798   0.000000
    15  C    3.649031   2.248695   2.236414   1.414376   0.000000
    16  C    3.592890   2.225322   1.371458   2.248449   1.381649
    17  C    4.881926   3.591693   2.456364   3.649831   2.534098
    18  N    5.298991   4.233131   2.892689   4.658588   3.758755
    19  H    4.858431   4.013279   2.653589   4.725874   4.100010
    20  C    6.141024   4.780659   3.777679   4.539791   3.199680
    21  C    7.121630   5.851305   4.672466   5.814693   4.539291
    22  C    6.665687   5.560931   4.242490   5.850112   4.778102
    23  H    6.289490   7.240994   7.165354   8.566889   9.246453
    24  H    6.909092   8.184209   8.527346   9.406319  10.393586
    25  H    5.076260   6.488602   7.190811   7.535729   8.721055
    26  H    3.305082   4.680712   5.734268   5.429439   6.758168
    27  H    2.198202   2.950328   4.270636   3.141536   4.529504
    28  H    2.914868   2.197320   3.278431   1.080988   2.238384
    29  H    4.664689   3.297039   3.278945   2.237718   1.080544
    30  H    6.497633   5.080539   4.309000   4.541018   3.128009
    31  H    8.186398   6.894002   5.743270   6.769338   5.439418
    32  H    7.337053   6.352086   4.995732   6.781538   5.788258
                   16         17         18         19         20
    16  C    0.000000
    17  C    1.428785   0.000000
    18  N    2.448250   1.373171   0.000000
    19  H    2.721083   2.114512   1.011516   0.000000
    20  C    2.556348   1.381344   2.218381   3.190617   0.000000
    21  C    3.668108   2.259871   2.220655   3.198161   1.417262
    22  C    3.603815   2.246432   1.370919   2.127836   2.250539
    23  H    8.458332   9.027432   8.467598   7.533561  10.342247
    24  H    9.888383  10.737363  10.403231   9.499693  12.103767
    25  H    8.510481   9.605822   9.580053   8.797810  10.958809
    26  H    6.882850   8.170600   8.481480   7.897732   9.432974
    27  H    5.042773   6.442010   7.110345   6.808561   7.525431
    28  H    3.297391   4.666630   5.726616   5.804799   5.438015
    29  H    2.197526   2.920109   4.271532   4.804481   3.107418
    30  H    2.960577   2.199152   3.265412   4.203409   1.081805
    31  H    4.687782   3.308422   3.266711   4.211558   2.241123
    32  H    4.548666   3.263970   2.137570   2.520163   3.317231
                   21         22         23         24         25
    21  C    0.000000
    22  C    1.377049   0.000000
    23  H   10.615193   9.515964   0.000000
    24  H   12.592141  11.593300   2.763887   0.000000
    25  H   11.696924  10.898265   4.333140   2.726211   0.000000
    26  H   10.396181   9.850006   6.108039   5.298331   2.676251
    27  H    8.680597   8.435491   7.784140   7.684390   5.270512
    28  H    6.767397   6.890143   9.107025   9.672809   7.590202
    29  H    4.520923   5.058842  10.306034  11.450647   9.726880
    30  H    2.234541   3.296476  11.130785  12.771985  11.464752
    31  H    1.082599   2.193926  11.606478  13.639381  12.777996
    32  H    2.244027   1.081845   9.502179  11.715731  11.245504
                   26         27         28         29         30
    26  H    0.000000
    27  H    2.700644   0.000000
    28  H    5.258545   2.730184   0.000000
    29  H    7.663922   5.280201   2.715573   0.000000
    30  H    9.750121   7.632682   5.287510   2.674245   0.000000
    31  H   11.466136   9.694064   7.677258   5.268914   2.707157
    32  H   10.415106   9.202182   7.840751   6.123467   4.340505
                   31         32
    31  H    0.000000
    32  H    2.726392   0.000000
 Stoichiometry    C16H12N2O2
 Framework group  C1[X(C16H12N2O2)]
 Deg. of freedom    90
 Full point group                 C1
 Largest Abelian subgroup         C1      NOp   1
 Largest concise Abelian subgroup C1      NOp   1
                         Standard orientation:                         
 ---------------------------------------------------------------------
 Center     Atomic     Atomic              Coordinates (Angstroms)
 Number     Number      Type              X           Y           Z
 ---------------------------------------------------------------------
    1          6             0       -4.721727   -2.382933   -0.355257
    2          8             0       -3.543934   -1.711493   -0.303467
    3          6             0       -5.768058   -1.541491   -0.068582
    4          6             0       -5.189902   -0.271450    0.171254
    5          6             0       -3.821011   -0.406057    0.015830
    6          6             0       -2.799687    0.586027    0.132265
    7          7             0       -1.468982    0.281045   -0.023377
    8          1             0       -1.109749   -0.643691   -0.222119
    9          6             0       -2.881870    1.939884    0.388798
   10          6             0       -1.564691    2.464605    0.349873
   11          6             0       -0.704949    1.416424    0.086703
   12          6             0        0.715085    1.399751   -0.066427
   13          8             0        1.459552    0.254139    0.038040
   14          6             0        1.564551    2.457099   -0.329027
   15          6             0        2.876907    1.932326   -0.381893
   16          6             0        2.781682    0.576935   -0.131286
   17          6             0        3.828914   -0.389987   -0.032321
   18          7             0        3.581297   -1.689178    0.336982
   19          1             0        2.663380   -2.053190    0.556273
   20          6             0        5.190079   -0.273604   -0.236761
   21          6             0        5.774628   -1.538030    0.024318
   22          6             0        4.756390   -2.393934    0.380523
   23          1             0       -4.651264   -3.431765   -0.605647
   24          1             0       -6.814471   -1.807477   -0.038818
   25          1             0       -5.710427    0.641861    0.423843
   26          1             0       -3.789803    2.499877    0.569788
   27          1             0       -1.280625    3.496458    0.504011
   28          1             0        1.269074    3.487026   -0.472128
   29          1             0        3.789775    2.481056   -0.563941
   30          1             0        5.714022    0.624149   -0.536468
   31          1             0        6.824903   -1.793443   -0.036580
   32          1             0        4.765991   -3.438502    0.661902
 ---------------------------------------------------------------------
 Rotational constants (GHZ):      0.7550571      0.1444157      0.1222324
 Standard basis: VSTO-3G (5D, 7F)
 There are    92 symmetry adapted basis functions of A   symmetry.
 Integral buffers will be    262144 words long.
 Raffenetti 1 integral format.
 Two-electron integral symmetry is turned on.
    92 basis functions,   276 primitive gaussians,    92 cartesian basis functions
    49 alpha electrons       49 beta electrons
       nuclear repulsion energy       677.8379284644 Hartrees.
 NAtoms=   32 NActive=   32 NUniq=   32 SFac= 7.50D-01 NAtFMM=   80 NAOKFM=F Big=F
 Simple Huckel Guess.
 Initial guess orbital symmetries:
       Occupied  (A) (A) (A) (A) (A) (A) (A) (A) (A) (A) (A) (A)
                 (A) (A) (A) (A) (A) (A) (A) (A) (A) (A) (A) (A)
                 (A) (A) (A) (A) (A) (A) (A) (A) (A) (A) (A) (A)
                 (A) (A) (A) (A) (A) (A) (A) (A) (A) (A) (A) (A)
                 (A)
       Virtual   (A) (A) (A) (A) (A) (A) (A) (A) (A) (A) (A) (A)
                 (A) (A) (A) (A) (A) (A) (A) (A) (A) (A) (A) (A)
                 (A) (A) (A) (A) (A) (A) (A) (A) (A) (A) (A) (A)
                 (A) (A) (A) (A) (A) (A) (A)
 The electronic state of the initial guess is 1-A.
 RHF-AM1 calculation of energy.
 MO and density RWFs will be updated without deorthogonalization.
 Closed-shell calculation:      49 occupied levels.
 NNHCO=    0.
 References:
  H: (AM1): M.J.S. DEWAR ET AL, J. AM. CHEM. SOC. 107 3902-3909 (1985)
  C: (AM1): M.J.S. DEWAR ET AL, J. AM. CHEM. SOC. 107 3902-3909 (1985)
  N: (AM1): M.J.S. DEWAR ET AL, J. AM. CHEM. SOC. 107 3902-3909 (1985)
  O: (AM1): M.J.S. DEWAR ET AL, J. AM. CHEM. SOC. 107 3902-3909 (1985)
 Ext34=T Pulay=F Camp-King=F BShift= 0.00D+00
 It=  1 PL= 0.103D+01 DiagD=T ESCF=     31.564733 Diff= 0.272D+02 RMSDP= 0.152D+00.
 It=  2 PL= 0.114D+00 DiagD=T ESCF=      7.265370 Diff=-0.243D+02 RMSDP= 0.589D-02.
 It=  3 PL= 0.502D-01 DiagD=T ESCF=      5.045680 Diff=-0.222D+01 RMSDP= 0.332D-02.
 It=  4 PL= 0.136D-01 DiagD=F ESCF=      4.555145 Diff=-0.491D+00 RMSDP= 0.543D-03.
 It=  5 PL= 0.609D-02 DiagD=F ESCF=      4.692701 Diff= 0.138D+00 RMSDP= 0.269D-03.
 It=  6 PL= 0.345D-02 DiagD=F ESCF=      4.689186 Diff=-0.351D-02 RMSDP= 0.318D-03.
 It=  7 PL= 0.383D-03 DiagD=F ESCF=      4.685998 Diff=-0.319D-02 RMSDP= 0.271D-04.
 It=  8 PL= 0.132D-03 DiagD=F ESCF=      4.687680 Diff= 0.168D-02 RMSDP= 0.138D-04.
 It=  9 PL= 0.107D-03 DiagD=F ESCF=      4.687673 Diff=-0.743D-05 RMSDP= 0.157D-04.
 It= 10 PL= 0.259D-04 DiagD=F ESCF=      4.687666 Diff=-0.659D-05 RMSDP= 0.228D-05.
 It= 11 PL= 0.184D-04 DiagD=F ESCF=      4.687669 Diff= 0.260D-05 RMSDP= 0.134D-05.
 It= 12 PL= 0.105D-04 DiagD=F ESCF=      4.687669 Diff=-0.686D-07 RMSDP= 0.215D-05.
 4-point extrapolation.
 It= 13 PL= 0.110D-05 DiagD=F ESCF=      4.687669 Diff=-0.111D-06 RMSDP= 0.653D-07.
 Energy=    0.172272018655 NIter=  14.
 Dipole moment=      -0.381825      -0.800778       0.046210

 **********************************************************************

            Population analysis using the SCF density.

 **********************************************************************

 Orbital symmetries:
       Occupied  (A) (A) (A) (A) (A) (A) (A) (A) (A) (A) (A) (A)
                 (A) (A) (A) (A) (A) (A) (A) (A) (A) (A) (A) (A)
                 (A) (A) (A) (A) (A) (A) (A) (A) (A) (A) (A) (A)
                 (A) (A) (A) (A) (A) (A) (A) (A) (A) (A) (A) (A)
                 (A)
       Virtual   (A) (A) (A) (A) (A) (A) (A) (A) (A) (A) (A) (A)
                 (A) (A) (A) (A) (A) (A) (A) (A) (A) (A) (A) (A)
                 (A) (A) (A) (A) (A) (A) (A) (A) (A) (A) (A) (A)
                 (A) (A) (A) (A) (A) (A) (A)
 The electronic state is 1-A.
 Alpha  occ. eigenvalues --   -1.58350  -1.57425  -1.52711  -1.51106  -1.25210
 Alpha  occ. eigenvalues --   -1.24887  -1.22035  -1.16734  -1.16069  -1.15501
 Alpha  occ. eigenvalues --   -1.07395  -0.98857  -0.88155  -0.85791  -0.83620
 Alpha  occ. eigenvalues --   -0.82331  -0.78932  -0.77536  -0.76346  -0.74810
 Alpha  occ. eigenvalues --   -0.72839  -0.70377  -0.64870  -0.62468  -0.61696
 Alpha  occ. eigenvalues --   -0.59845  -0.57658  -0.55736  -0.54477  -0.54330
 Alpha  occ. eigenvalues --   -0.53773  -0.52594  -0.51806  -0.51234  -0.50943
 Alpha  occ. eigenvalues --   -0.50381  -0.50281  -0.49794  -0.49446  -0.49352
 Alpha  occ. eigenvalues --   -0.48747  -0.41003  -0.40238  -0.39541  -0.36780
 Alpha  occ. eigenvalues --   -0.36223  -0.35993  -0.32046  -0.28859
 Alpha virt. eigenvalues --   -0.01478   0.00691   0.03347   0.05037   0.06053
 Alpha virt. eigenvalues --    0.06248   0.07079   0.07612   0.07892   0.08066
 Alpha virt. eigenvalues --    0.08216   0.08413   0.13239   0.13308   0.14166
 Alpha virt. eigenvalues --    0.14357   0.14409   0.14513   0.14841   0.15750
 Alpha virt. eigenvalues --    0.15886   0.16229   0.16420   0.16749   0.17335
 Alpha virt. eigenvalues --    0.17516   0.17602   0.17845   0.17977   0.18642
 Alpha virt. eigenvalues --    0.18807   0.19070   0.19273   0.19952   0.20127
 Alpha virt. eigenvalues --    0.20631   0.21204   0.21482   0.21871   0.22216
 Alpha virt. eigenvalues --    0.22582   0.22889   0.23193
          Condensed to atoms (all electrons):
              1          2          3          4          5          6
     1  C    4.097495   0.000000   0.000000   0.000000   0.000000   0.000000
     2  O    0.000000   6.083752   0.000000   0.000000   0.000000   0.000000
     3  C    0.000000   0.000000   4.195733   0.000000   0.000000   0.000000
     4  C    0.000000   0.000000   0.000000   4.177804   0.000000   0.000000
     5  C    0.000000   0.000000   0.000000   0.000000   3.999549   0.000000
     6  C    0.000000   0.000000   0.000000   0.000000   0.000000   4.006525
     7  N    0.000000   0.000000   0.000000   0.000000   0.000000   0.000000
     8  H    0.000000   0.000000   0.000000   0.000000   0.000000   0.000000
     9  C    0.000000   0.000000   0.000000   0.000000   0.000000   0.000000
    10  C    0.000000   0.000000   0.000000   0.000000   0.000000   0.000000
    11  C    0.000000   0.000000   0.000000   0.000000   0.000000   0.000000
    12  C    0.000000   0.000000   0.000000   0.000000   0.000000   0.000000
    13  O    0.000000   0.000000   0.000000   0.000000   0.000000   0.000000
    14  C    0.000000   0.000000   0.000000   0.000000   0.000000   0.000000
    15  C    0.000000   0.000000   0.000000   0.000000   0.000000   0.000000
    16  C    0.000000   0.000000   0.000000   0.000000   0.000000   0.000000
    17  C    0.000000   0.000000   0.000000   0.000000   0.000000   0.000000
    18  N    0.000000   0.000000   0.000000   0.000000   0.000000   0.000000
    19  H    0.000000   0.000000   0.000000   0.000000   0.000000   0.000000
    20  C    0.000000   0.000000   0.000000   0.000000   0.000000   0.000000
    21  C    0.000000   0.000000   0.000000   0.000000   0.000000   0.000000
    22  C    0.000000   0.000000   0.000000   0.000000   0.000000   0.000000
    23  H    0.000000   0.000000   0.000000   0.000000   0.000000   0.000000
    24  H    0.000000   0.000000   0.000000   0.000000   0.000000   0.000000
    25  H    0.000000   0.000000   0.000000   0.000000   0.000000   0.000000
    26  H    0.000000   0.000000   0.000000   0.000000   0.000000   0.000000
    27  H    0.000000   0.000000   0.000000   0.000000   0.000000   0.000000
    28  H    0.000000   0.000000   0.000000   0.000000   0.000000   0.000000
    29  H    0.000000   0.000000   0.000000   0.000000   0.000000   0.000000
    30  H    0.000000   0.000000   0.000000   0.000000   0.000000   0.000000
    31  H    0.000000   0.000000   0.000000   0.000000   0.000000   0.000000
    32  H    0.000000   0.000000   0.000000   0.000000   0.000000   0.000000
              7          8          9         10         11         12
     1  C    0.000000   0.000000   0.000000   0.000000   0.000000   0.000000
     2  O    0.000000   0.000000   0.000000   0.000000   0.000000   0.000000
     3  C    0.000000   0.000000   0.000000   0.000000   0.000000   0.000000
     4  C    0.000000   0.000000   0.000000   0.000000   0.000000   0.000000
     5  C    0.000000   0.000000   0.000000   0.000000   0.000000   0.000000
     6  C    0.000000   0.000000   0.000000   0.000000   0.000000   0.000000
     7  N    5.150785   0.000000   0.000000   0.000000   0.000000   0.000000
     8  H    0.000000   0.738593   0.000000   0.000000   0.000000   0.000000
     9  C    0.000000   0.000000   4.167530   0.000000   0.000000   0.000000
    10  C    0.000000   0.000000   0.000000   4.167624   0.000000   0.000000
    11  C    0.000000   0.000000   0.000000   0.000000   4.005826   0.000000
    12  C    0.000000   0.000000   0.000000   0.000000   0.000000   3.992752
    13  O    0.000000   0.000000   0.000000   0.000000   0.000000   0.000000
    14  C    0.000000   0.000000   0.000000   0.000000   0.000000   0.000000
    15  C    0.000000   0.000000   0.000000   0.000000   0.000000   0.000000
    16  C    0.000000   0.000000   0.000000   0.000000   0.000000   0.000000
    17  C    0.000000   0.000000   0.000000   0.000000   0.000000   0.000000
    18  N    0.000000   0.000000   0.000000   0.000000   0.000000   0.000000
    19  H    0.000000   0.000000   0.000000   0.000000   0.000000   0.000000
    20  C    0.000000   0.000000   0.000000   0.000000   0.000000   0.000000
    21  C    0.000000   0.000000   0.000000   0.000000   0.000000   0.000000
    22  C    0.000000   0.000000   0.000000   0.000000   0.000000   0.000000
    23  H    0.000000   0.000000   0.000000   0.000000   0.000000   0.000000
    24  H    0.000000   0.000000   0.000000   0.000000   0.000000   0.000000
    25  H    0.000000   0.000000   0.000000   0.000000   0.000000   0.000000
    26  H    0.000000   0.000000   0.000000   0.000000   0.000000   0.000000
    27  H    0.000000   0.000000   0.000000   0.000000   0.000000   0.000000
    28  H    0.000000   0.000000   0.000000   0.000000   0.000000   0.000000
    29  H    0.000000   0.000000   0.000000   0.000000   0.000000   0.000000
    30  H    0.000000   0.000000   0.000000   0.000000   0.000000   0.000000
    31  H    0.000000   0.000000   0.000000   0.000000   0.000000   0.000000
    32  H    0.000000   0.000000   0.000000   0.000000   0.000000   0.000000
             13         14         15         16         17         18
     1  C    0.000000   0.000000   0.000000   0.000000   0.000000   0.000000
     2  O    0.000000   0.000000   0.000000   0.000000   0.000000   0.000000
     3  C    0.000000   0.000000   0.000000   0.000000   0.000000   0.000000
     4  C    0.000000   0.000000   0.000000   0.000000   0.000000   0.000000
     5  C    0.000000   0.000000   0.000000   0.000000   0.000000   0.000000
     6  C    0.000000   0.000000   0.000000   0.000000   0.000000   0.000000
     7  N    0.000000   0.000000   0.000000   0.000000   0.000000   0.000000
     8  H    0.000000   0.000000   0.000000   0.000000   0.000000   0.000000
     9  C    0.000000   0.000000   0.000000   0.000000   0.000000   0.000000
    10  C    0.000000   0.000000   0.000000   0.000000   0.000000   0.000000
    11  C    0.000000   0.000000   0.000000   0.000000   0.000000   0.000000
    12  C    0.000000   0.000000   0.000000   0.000000   0.000000   0.000000
    13  O    6.095637   0.000000   0.000000   0.000000   0.000000   0.000000
    14  C    0.000000   4.171703   0.000000   0.000000   0.000000   0.000000
    15  C    0.000000   0.000000   4.183433   0.000000   0.000000   0.000000
    16  C    0.000000   0.000000   0.000000   3.975613   0.000000   0.000000
    17  C    0.000000   0.000000   0.000000   0.000000   4.031448   0.000000
    18  N    0.000000   0.000000   0.000000   0.000000   0.000000   5.160946
    19  H    0.000000   0.000000   0.000000   0.000000   0.000000   0.000000
    20  C    0.000000   0.000000   0.000000   0.000000   0.000000   0.000000
    21  C    0.000000   0.000000   0.000000   0.000000   0.000000   0.000000
    22  C    0.000000   0.000000   0.000000   0.000000   0.000000   0.000000
    23  H    0.000000   0.000000   0.000000   0.000000   0.000000   0.000000
    24  H    0.000000   0.000000   0.000000   0.000000   0.000000   0.000000
    25  H    0.000000   0.000000   0.000000   0.000000   0.000000   0.000000
    26  H    0.000000   0.000000   0.000000   0.000000   0.000000   0.000000
    27  H    0.000000   0.000000   0.000000   0.000000   0.000000   0.000000
    28  H    0.000000   0.000000   0.000000   0.000000   0.000000   0.000000
    29  H    0.000000   0.000000   0.000000   0.000000   0.000000   0.000000
    30  H    0.000000   0.000000   0.000000   0.000000   0.000000   0.000000
    31  H    0.000000   0.000000   0.000000   0.000000   0.000000   0.000000
    32  H    0.000000   0.000000   0.000000   0.000000   0.000000   0.000000
             19         20         21         22         23         24
     1  C    0.000000   0.000000   0.000000   0.000000   0.000000   0.000000
     2  O    0.000000   0.000000   0.000000   0.000000   0.000000   0.000000
     3  C    0.000000   0.000000   0.000000   0.000000   0.000000   0.000000
     4  C    0.000000   0.000000   0.000000   0.000000   0.000000   0.000000
     5  C    0.000000   0.000000   0.000000   0.000000   0.000000   0.000000
     6  C    0.000000   0.000000   0.000000   0.000000   0.000000   0.000000
     7  N    0.000000   0.000000   0.000000   0.000000   0.000000   0.000000
     8  H    0.000000   0.000000   0.000000   0.000000   0.000000   0.000000
     9  C    0.000000   0.000000   0.000000   0.000000   0.000000   0.000000
    10  C    0.000000   0.000000   0.000000   0.000000   0.000000   0.000000
    11  C    0.000000   0.000000   0.000000   0.000000   0.000000   0.000000
    12  C    0.000000   0.000000   0.000000   0.000000   0.000000   0.000000
    13  O    0.000000   0.000000   0.000000   0.000000   0.000000   0.000000
    14  C    0.000000   0.000000   0.000000   0.000000   0.000000   0.000000
    15  C    0.000000   0.000000   0.000000   0.000000   0.000000   0.000000
    16  C    0.000000   0.000000   0.000000   0.000000   0.000000   0.000000
    17  C    0.000000   0.000000   0.000000   0.000000   0.000000   0.000000
    18  N    0.000000   0.000000   0.000000   0.000000   0.000000   0.000000
    19  H    0.746550   0.000000   0.000000   0.000000   0.000000   0.000000
    20  C    0.000000   4.159801   0.000000   0.000000   0.000000   0.000000
    21  C    0.000000   0.000000   4.199407   0.000000   0.000000   0.000000
    22  C    0.000000   0.000000   0.000000   4.121379   0.000000   0.000000
    23  H    0.000000   0.000000   0.000000   0.000000   0.809016   0.000000
    24  H    0.000000   0.000000   0.000000   0.000000   0.000000   0.836780
    25  H    0.000000   0.000000   0.000000   0.000000   0.000000   0.000000
    26  H    0.000000   0.000000   0.000000   0.000000   0.000000   0.000000
    27  H    0.000000   0.000000   0.000000   0.000000   0.000000   0.000000
    28  H    0.000000   0.000000   0.000000   0.000000   0.000000   0.000000
    29  H    0.000000   0.000000   0.000000   0.000000   0.000000   0.000000
    30  H    0.000000   0.000000   0.000000   0.000000   0.000000   0.000000
    31  H    0.000000   0.000000   0.000000   0.000000   0.000000   0.000000
    32  H    0.000000   0.000000   0.000000   0.000000   0.000000   0.000000
             25         26         27         28         29         30
     1  C    0.000000   0.000000   0.000000   0.000000   0.000000   0.000000
     2  O    0.000000   0.000000   0.000000   0.000000   0.000000   0.000000
     3  C    0.000000   0.000000   0.000000   0.000000   0.000000   0.000000
     4  C    0.000000   0.000000   0.000000   0.000000   0.000000   0.000000
     5  C    0.000000   0.000000   0.000000   0.000000   0.000000   0.000000
     6  C    0.000000   0.000000   0.000000   0.000000   0.000000   0.000000
     7  N    0.000000   0.000000   0.000000   0.000000   0.000000   0.000000
     8  H    0.000000   0.000000   0.000000   0.000000   0.000000   0.000000
     9  C    0.000000   0.000000   0.000000   0.000000   0.000000   0.000000
    10  C    0.000000   0.000000   0.000000   0.000000   0.000000   0.000000
    11  C    0.000000   0.000000   0.000000   0.000000   0.000000   0.000000
    12  C    0.000000   0.000000   0.000000   0.000000   0.000000   0.000000
    13  O    0.000000   0.000000   0.000000   0.000000   0.000000   0.000000
    14  C    0.000000   0.000000   0.000000   0.000000   0.000000   0.000000
    15  C    0.000000   0.000000   0.000000   0.000000   0.000000   0.000000
    16  C    0.000000   0.000000   0.000000   0.000000   0.000000   0.000000
    17  C    0.000000   0.000000   0.000000   0.000000   0.000000   0.000000
    18  N    0.000000   0.000000   0.000000   0.000000   0.000000   0.000000
    19  H    0.000000   0.000000   0.000000   0.000000   0.000000   0.000000
    20  C    0.000000   0.000000   0.000000   0.000000   0.000000   0.000000
    21  C    0.000000   0.000000   0.000000   0.000000   0.000000   0.000000
    22  C    0.000000   0.000000   0.000000   0.000000   0.000000   0.000000
    23  H    0.000000   0.000000   0.000000   0.000000   0.000000   0.000000
    24  H    0.000000   0.000000   0.000000   0.000000   0.000000   0.000000
    25  H    0.837529   0.000000   0.000000   0.000000   0.000000   0.000000
    26  H    0.000000   0.843978   0.000000   0.000000   0.000000   0.000000
    27  H    0.000000   0.000000   0.843365   0.000000   0.000000   0.000000
    28  H    0.000000   0.000000   0.000000   0.836256   0.000000   0.000000
    29  H    0.000000   0.000000   0.000000   0.000000   0.835912   0.000000
    30  H    0.000000   0.000000   0.000000   0.000000   0.000000   0.847474
    31  H    0.000000   0.000000   0.000000   0.000000   0.000000   0.000000
    32  H    0.000000   0.000000   0.000000   0.000000   0.000000   0.000000
             31         32
     1  C    0.000000   0.000000
     2  O    0.000000   0.000000
     3  C    0.000000   0.000000
     4  C    0.000000   0.000000
     5  C    0.000000   0.000000
     6  C    0.000000   0.000000
     7  N    0.000000   0.000000
     8  H    0.000000   0.000000
     9  C    0.000000   0.000000
    10  C    0.000000   0.000000
    11  C    0.000000   0.000000
    12  C    0.000000   0.000000
    13  O    0.000000   0.000000
    14  C    0.000000   0.000000
    15  C    0.000000   0.000000
    16  C    0.000000   0.000000
    17  C    0.000000   0.000000
    18  N    0.000000   0.000000
    19  H    0.000000   0.000000
    20  C    0.000000   0.000000
    21  C    0.000000   0.000000
    22  C    0.000000   0.000000
    23  H    0.000000   0.000000
    24  H    0.000000   0.000000
    25  H    0.000000   0.000000
    26  H    0.000000   0.000000
    27  H    0.000000   0.000000
    28  H    0.000000   0.000000
    29  H    0.000000   0.000000
    30  H    0.000000   0.000000
    31  H    0.845909   0.000000
    32  H    0.000000   0.833895
 Mulliken atomic charges:
              1
     1  C   -0.097495
     2  O   -0.083752
     3  C   -0.195733
     4  C   -0.177804
     5  C    0.000451
     6  C   -0.006525
     7  N   -0.150785
     8  H    0.261407
     9  C   -0.167530
    10  C   -0.167624
    11  C   -0.005826
    12  C    0.007248
    13  O   -0.095637
    14  C   -0.171703
    15  C   -0.183433
    16  C    0.024387
    17  C   -0.031448
    18  N   -0.160946
    19  H    0.253450
    20  C   -0.159801
    21  C   -0.199407
    22  C   -0.121379
    23  H    0.190984
    24  H    0.163220
    25  H    0.162471
    26  H    0.156022
    27  H    0.156635
    28  H    0.163744
    29  H    0.164088
    30  H    0.152526
    31  H    0.154091
    32  H    0.166105
 Sum of Mulliken charges=   0.00000
 Atomic charges with hydrogens summed into heavy atoms:
              1
     1  C    0.093489
     2  O   -0.083752
     3  C   -0.032513
     4  C   -0.015333
     5  C    0.000451
     6  C   -0.006525
     7  N    0.110621
     8  H    0.000000
     9  C   -0.011508
    10  C   -0.010989
    11  C   -0.005826
    12  C    0.007248
    13  O   -0.095637
    14  C   -0.007959
    15  C   -0.019345
    16  C    0.024387
    17  C   -0.031448
    18  N    0.092504
    19  H    0.000000
    20  C   -0.007274
    21  C   -0.045316
    22  C    0.044726
    23  H    0.000000
    24  H    0.000000
    25  H    0.000000
    26  H    0.000000
    27  H    0.000000
    28  H    0.000000
    29  H    0.000000
    30  H    0.000000
    31  H    0.000000
    32  H    0.000000
 Sum of Mulliken charges=   0.00000
 1|1|UNPC-UNK|SP|RAM1|ZDO|C16H12N2O2|PCUSER|04-Jun-2009|0||# AM1 SP||c(
 o1)ccc1~c([nH]1)ccc1~c(o1)ccc1~c([nH]1)ccc1||0,1|C,0,0.02891,1.42338,-
 0.04699|O,0,1.22852,0.78985,-0.06388|C,0,-0.99636,0.511,-0.00955|C,0,-
 0.38073,-0.76403,-0.00011|C,0,0.98817,-0.5607,-0.03023|C,0,2.04224,-1.
 52487,-0.016|N,0,3.36453,-1.15725,-0.08248|H,0,3.69403,-0.20305,-0.150
 41|C,0,2.00424,-2.90214,0.06872|C,0,3.34385,-3.36779,0.08926|C,0,4.170
 83,-2.26542,-0.00008|C,0,5.59634,-2.1757,-0.00977|O,0,6.26751,-1.0711,
 -0.4647|C,0,6.52035,-3.11549,0.4044|C,0,7.80306,-2.56017,0.18822|C,0,7
 .61462,-1.30914,-0.36709|C,0,8.59633,-0.36873,-0.80675|N,0,8.24759,0.7
 9507,-1.44671|H,0,7.29516,1.07129,-1.64607|C,0,9.97518,-0.39708,-0.728
 78|C,0,10.46591,0.7806,-1.34594|C,0,9.3752,1.49799,-1.78408|H,0,0.0702
 ,2.50307,-0.06351|H,0,-2.05279,0.73491,0.01129|H,0,-0.87642,-1.72436,0
 .03056|H,0,1.1126,-3.51238,0.12596|H,0,3.66353,-4.39856,0.15629|H,0,6.
 29331,-4.08703,0.82045|H,0,8.75621,-3.02469,0.39631|H,0,10.57121,-1.18
 143,-0.28174|H,0,11.50268,1.06996,-1.4617|H,0,9.30374,2.44282,-2.30617
 ||Version=IA32W-G03RevE.01|State=1-A|HF=0.172272|RMSD=0.000e+000|Therm
 al=0.|Dipole=-0.4248308,0.7555249,-0.1946073|PG=C01 [X(C16H12N2O2)]||@


 IF AT FIRST YOU DON'T SUCCEED, TRY LOOKING IN 
 THE WASTEBASKET FOR THE DIRECTIONS.
 Job cpu time:  0 days  0 hours  0 minutes  7.0 seconds.
 File lengths (MBytes):  RWF=     11 Int=      0 D2E=      0 Chk=      7 Scr=      1
 Normal termination of Gaussian 03 at Thu Jun 04 11:41:17 2009.
