 Entering Gaussian System, Link 0=g03
 Input=dvb_un_sp.gjf
 Output=dvb_un_sp.log
 Initial command:
 /home/no228/Tools/g03/l1.exe /home/no228/Tools/cclib/cclib/data/Gaussian/basicGaussian03/tmp/Gau-23028.inp -scrdir=/home/no228/Tools/cclib/cclib/data/Gaussian/basicGaussian03/tmp/
 Entering Link 1 = /home/no228/Tools/g03/l1.exe PID=     23029.
  
 Copyright (c) 1988,1990,1992,1993,1995,1998,2003, Gaussian, Inc.
                  All Rights Reserved.
  
 This is the Gaussian(R) 03 program.  It is based on the
 the Gaussian(R) 98 system (copyright 1998, Gaussian, Inc.),
 the Gaussian(R) 94 system (copyright 1995, Gaussian, Inc.),
 the Gaussian 92(TM) system (copyright 1992, Gaussian, Inc.),
 the Gaussian 90(TM) system (copyright 1990, Gaussian, Inc.),
 the Gaussian 88(TM) system (copyright 1988, Gaussian, Inc.),
 the Gaussian 86(TM) system (copyright 1986, Carnegie Mellon
 University), and the Gaussian 82(TM) system (copyright 1983,
 Carnegie Mellon University). Gaussian is a federally registered
 trademark of Gaussian, Inc.
  
 This software contains proprietary and confidential information,
 including trade secrets, belonging to Gaussian, Inc.
  
 This software is provided under written license and may be
 used, copied, transmitted, or stored only in accord with that
 written license.
  
 The following legend is applicable only to US Government
 contracts under DFARS:
  
                    RESTRICTED RIGHTS LEGEND
  
 Use, duplication or disclosure by the US Government is subject
 to restrictions as set forth in subparagraph (c)(1)(ii) of the
 Rights in Technical Data and Computer Software clause at DFARS
 252.227-7013.
  
 Gaussian, Inc.
 Carnegie Office Park, Building 6, Pittsburgh, PA 15106 USA
  
 The following legend is applicable only to US Government
 contracts under FAR:
  
                    RESTRICTED RIGHTS LEGEND
  
 Use, reproduction and disclosure by the US Government is subject
 to restrictions as set forth in subparagraph (c) of the
 Commercial Computer Software - Restricted Rights clause at FAR
 52.227-19.
  
 Gaussian, Inc.
 Carnegie Office Park, Building 6, Pittsburgh, PA 15106 USA
  
  
 ---------------------------------------------------------------
 Warning -- This program may not be used in any manner that
 competes with the business of Gaussian, Inc. or will provide
 assistance to any competitor of Gaussian, Inc.  The licensee
 of this program is prohibited from giving any competitor of
 Gaussian, Inc. access to this program.  By using this program,
 the user acknowledges that Gaussian, Inc. is engaged in the
 business of creating and licensing software in the field of
 computational chemistry and represents and warrants to the
 licensee that it is not a competitor of Gaussian, Inc. and that
 it will not use this program in any manner prohibited above.
 ---------------------------------------------------------------
  

 Cite this work as:
 Gaussian 03, Revision B.04,
 M. J. Frisch, G. W. Trucks, H. B. Schlegel, G. E. Scuseria, 
 M. A. Robb, J. R. Cheeseman, J. A. Montgomery, Jr., T. Vreven, 
 K. N. Kudin, J. C. Burant, J. M. Millam, S. S. Iyengar, J. Tomasi, 
 V. Barone, B. Mennucci, M. Cossi, G. Scalmani, N. Rega, 
 G. A. Petersson, H. Nakatsuji, M. Hada, M. Ehara, K. Toyota, 
 R. Fukuda, J. Hasegawa, M. Ishida, T. Nakajima, Y. Honda, O. Kitao, 
 H. Nakai, M. Klene, X. Li, J. E. Knox, H. P. Hratchian, J. B. Cross, 
 C. Adamo, J. Jaramillo, R. Gomperts, R. E. Stratmann, O. Yazyev, 
 A. J. Austin, R. Cammi, C. Pomelli, J. W. Ochterski, P. Y. Ayala, 
 K. Morokuma, G. A. Voth, P. Salvador, J. J. Dannenberg, 
 V. G. Zakrzewski, S. Dapprich, A. D. Daniels, M. C. Strain, 
 O. Farkas, D. K. Malick, A. D. Rabuck, K. Raghavachari, 
 J. B. Foresman, J. V. Ortiz, Q. Cui, A. G. Baboul, S. Clifford, 
 J. Cioslowski, B. B. Stefanov, G. Liu, A. Liashenko, P. Piskorz, 
 I. Komaromi, R. L. Martin, D. J. Fox, T. Keith, M. A. Al-Laham, 
 C. Y. Peng, A. Nanayakkara, M. Challacombe, P. M. W. Gill, 
 B. Johnson, W. Chen, M. W. Wong, C. Gonzalez, and J. A. Pople, 
 Gaussian, Inc., Pittsburgh PA, 2003.
 
 *********************************************
 Gaussian 03:  x86-Linux-G03RevB.04 2-Jun-2003
                  28-Aug-2006 
 *********************************************
 %chk=PhCCCC.chk
 %mem=100MB
 %nproc=1
 Will use up to    1 processors via shared memory.
 ---------------------------------------------
 #p ub3lyp/sto-3g pop=full iop(3/33=1,3/36=-1)
 ---------------------------------------------
 1/38=1/1;
 2/17=6,18=5,40=1/2;
 3/6=3,11=2,16=1,25=1,30=1,33=1,36=-1,74=-5/1,2,3;
 4/7=2/1;
 5/5=2,32=1,38=5/2;
 6/7=3,28=1/1;
 99/5=1,9=1/99;
 Leave Link    1 at Mon Aug 28 16:45:06 2006, MaxMem=   13107200 cpu:       0.1
 (Enter /home/no228/Tools/g03/l101.exe)
 -------
 Notitle
 -------
 Symbolic Z-matrix:
 Charge =  1 Multiplicity = 2
 C
 C                    1    B1
 C                    2    B2       1    A1
 C                    3    B3       2    A2       1    D1       0
 C                    4    B4       3    A3       2    D2       0
 H                    2    B5       1    A4       5    D3       0
 H                    3    B6       2    A5       1    D4       0
 H                    5    B7       4    A6       3    D5       0
 C                    4    B8       3    A7       2    D6       0
 C                    9    B9       4    A8       3    D7       0
 H                    10   B10      9    A9       4    D8       0
 H                    9    B11      4    A10      3    D9       0
 H                    10   B12      9    A11      4    D10      0
 C                    1    B13      2    A12      3    D11      0
 H                    14   B14      1    A13      2    D12      0
 C                    14   B15      1    A14      2    D13      0
 H                    16   B16      14   A15      1    D14      0
 H                    16   B17      14   A16      1    D15      0
 C                    5    B18      4    A17      3    D16      0
 H                    19   B19      5    A18      4    D17      0
       Variables:
  B1                    1.42115                  
  B2                    1.40217                  
  B3                    1.42245                  
  B4                    1.42115                  
  B5                    1.09762                  
  B6                    1.09866                  
  B7                    1.09762                  
  B8                    1.49761                  
  B9                    1.34427                  
  B10                   1.09599                  
  B11                   1.10041                  
  B12                   1.09623                  
  B13                   1.49761                  
  B14                   1.10041                  
  B15                   1.34427                  
  B16                   1.09599                  
  B17                   1.09623                  
  B18                   1.40217                  
  B19                   1.09866                  
  A1                  120.85705                  
  A2                  121.35373                  
  A3                  117.78922                  
  A4                  119.76456                  
  A5                  119.62884                  
  A6                  119.76456                  
  A7                  119.17162                  
  A8                  126.59341                  
  A9                  122.64703                  
  A10                 114.43382                  
  A11                 121.22829                  
  A12                 123.03917                  
  A13                 114.43382                  
  A14                 126.59341                  
  A15                 122.64703                  
  A16                 121.22829                  
  A17                 120.85705                  
  A18                 119.62884                  
  D1                    0.                       
  D2                    0.                       
  D3                  180.                       
  D4                  180.                       
  D5                  180.                       
  D6                  180.                       
  D7                  180.                       
  D8                    0.                       
  D9                    0.                       
  D10                 180.                       
  D11                 180.                       
  D12                 180.                       
  D13                   0.                       
  D14                   0.                       
  D15                 180.                       
  D16                   0.                       
  D17                 180.                       
 
                    Isotopes and Nuclear Properties:

  Atom         1           2           3           4           5           6           7           8           9          10
 IAtWgt=          12          12          12          12          12           1           1           1          12          12
 AtmWgt=  12.0000000  12.0000000  12.0000000  12.0000000  12.0000000   1.0078250   1.0078250   1.0078250  12.0000000  12.0000000
 IAtSpn=           0           0           0           0           0           1           1           1           0           0
 AtZEff=   0.0000000   0.0000000   0.0000000   0.0000000   0.0000000   0.0000000   0.0000000   0.0000000   0.0000000   0.0000000
 AtQMom=   0.0000000   0.0000000   0.0000000   0.0000000   0.0000000   0.0000000   0.0000000   0.0000000   0.0000000   0.0000000
 AtGFac=   0.0000000   0.0000000   0.0000000   0.0000000   0.0000000   2.7928460   2.7928460   2.7928460   0.0000000   0.0000000

  Atom        11          12          13          14          15          16          17          18          19          20
 IAtWgt=           1           1           1          12           1          12           1           1          12           1
 AtmWgt=   1.0078250   1.0078250   1.0078250  12.0000000   1.0078250  12.0000000   1.0078250   1.0078250  12.0000000   1.0078250
 IAtSpn=           1           1           1           0           1           0           1           1           0           1
 AtZEff=   0.0000000   0.0000000   0.0000000   0.0000000   0.0000000   0.0000000   0.0000000   0.0000000   0.0000000   0.0000000
 AtQMom=   0.0000000   0.0000000   0.0000000   0.0000000   0.0000000   0.0000000   0.0000000   0.0000000   0.0000000   0.0000000
 AtGFac=   2.7928460   2.7928460   2.7928460   0.0000000   2.7928460   0.0000000   2.7928460   2.7928460   0.0000000   2.7928460
 Leave Link  101 at Mon Aug 28 16:45:06 2006, MaxMem=   13107200 cpu:       0.0
 (Enter /home/no228/Tools/g03/l202.exe)
                          Input orientation:                          
 ---------------------------------------------------------------------
 Center     Atomic     Atomic              Coordinates (Angstroms)
 Number     Number      Type              X           Y           Z
 ---------------------------------------------------------------------
    1          6             0        0.000000    0.000000    0.000000
    2          6             0        0.000000    0.000000    1.421154
    3          6             0        1.203695    0.000000    2.140325
    4          6             0        2.462090    0.000000    1.477152
    5          6             0        2.462090    0.000000    0.055998
    6          1             0       -0.952813    0.000000    1.966053
    7          1             0        1.180146    0.000000    3.238735
    8          1             0        3.414904    0.000000   -0.488901
    9          6             0        3.717531    0.000000    2.293665
   10          6             0        4.977755    0.000000    1.825807
   11          1             0        5.210853    0.000000    0.754892
   12          1             0        3.552880    0.000000    3.381684
   13          1             0        5.836811    0.000000    2.506791
   14          6             0       -1.255441    0.000000   -0.816513
   15          1             0       -1.090790    0.000000   -1.904532
   16          6             0       -2.515665    0.000000   -0.348656
   17          1             0       -2.748763    0.000000    0.722260
   18          1             0       -3.374721    0.000000   -1.029640
   19          6             0        1.258395    0.000000   -0.663174
   20          1             0        1.281944    0.000000   -1.761584
 ---------------------------------------------------------------------
                    Distance matrix (angstroms):
                    1          2          3          4          5
     1  C    0.000000
     2  C    1.421154   0.000000
     3  C    2.455580   1.402173   0.000000
     4  C    2.871213   2.462727   1.422448   0.000000
     5  C    2.462727   2.815233   2.434744   1.421154   0.000000
     6  H    2.184769   1.097619   2.163539   3.449723   3.912784
     7  H    3.447049   2.167106   1.098662   2.178660   3.431209
     8  H    3.449723   3.912784   3.435444   2.184769   1.097619
     9  C    4.368173   3.818548   2.518508   1.497607   2.565791
    10  C    5.302039   4.994176   3.787143   2.539711   3.075841
    11  H    5.265250   5.253275   4.239899   2.842069   2.836221
    12  H    4.904971   4.057910   2.656998   2.194781   3.500001
    13  H    6.352351   5.936916   4.647587   3.528300   4.170747
    14  C    1.497607   2.565791   3.845809   4.368173   3.818548
    15  H    2.194781   3.500001   4.650326   4.904971   4.057910
    16  C    2.539711   3.075841   4.475340   5.302039   4.994176
    17  H    2.842069   2.836221   4.199147   5.265250   5.253275
    18  H    3.528300   4.170747   5.568714   6.352351   5.936916
    19  C    1.422448   2.434744   2.804033   2.455580   1.402173
    20  H    2.178660   3.431209   3.902693   3.447049   2.167106
                    6          7          8          9         10
     6  H    0.000000
     7  H    2.483795   0.000000
     8  H    5.010364   4.346195   0.000000
     9  C    4.681821   2.707671   2.798974   0.000000
    10  C    5.932227   4.051938   2.792916   1.344268   0.000000
    11  H    6.281536   4.734562   2.184595   2.144256   1.095990
    12  H    4.722847   2.377036   3.873043   1.100407   2.109744
    13  H    6.811123   4.713839   3.852247   2.129970   1.096228
    14  C    2.798974   4.730446   4.681821   5.865463   6.770125
    15  H    3.873043   5.622308   4.722847   6.383166   7.123389
    16  C    2.792916   5.150572   5.932227   6.770125   7.802541
    17  H    2.184595   4.665723   6.281536   6.654493   7.804928
    18  H    3.852247   6.242262   6.811123   7.832266   8.827086
    19  C    3.435444   3.902693   2.163539   3.845809   4.475340
    20  H    4.346195   5.001355   2.483795   4.730446   5.150572
                   11         12         13         14         15
    11  H    0.000000
    12  H    3.106270   0.000000
    13  H    1.860369   2.445768   0.000000
    14  C    6.654493   6.383166   7.832266   0.000000
    15  H    6.839828   7.036174   8.212882   1.100407   0.000000
    16  C    7.804928   7.123389   8.827086   1.344268   2.109744
    17  H    7.959684   6.839828   8.769073   2.144256   3.106270
    18  H    8.769073   8.212882   9.867050   2.129970   2.445768
    19  C    4.199147   4.650326   5.568714   2.518508   2.656998
    20  H    4.665723   5.622308   6.242262   2.707671   2.377036
                   16         17         18         19         20
    16  C    0.000000
    17  H    1.095990   0.000000
    18  H    1.096228   1.860369   0.000000
    19  C    3.787143   4.239899   4.647587   0.000000
    20  H    4.051938   4.734562   4.713839   1.098662   0.000000
 Stoichiometry    C10H10(1+,2)
 Framework group  C2H[SGH(C10H10)]
 Deg. of freedom    19
 Full point group                 C2H     NOp   4
 Largest Abelian subgroup         C2H     NOp   4
 Largest concise Abelian subgroup C2      NOp   2
                         Standard orientation:                         
 ---------------------------------------------------------------------
 Center     Atomic     Atomic              Coordinates (Angstroms)
 Number     Number      Type              X           Y           Z
 ---------------------------------------------------------------------
    1          6             0        0.269481   -1.410087    0.000000
    2          6             0       -1.064752   -0.920700    0.000000
    3          6             0       -1.325434    0.457029    0.000000
    4          6             0       -0.269481    1.410087    0.000000
    5          6             0        1.064752    0.920700    0.000000
    6          1             0       -1.904434   -1.627596    0.000000
    7          1             0       -2.364772    0.813167    0.000000
    8          1             0        1.904434    1.627596    0.000000
    9          6             0       -0.603732    2.869917    0.000000
   10          6             0        0.269481    3.891952    0.000000
   11          1             0        1.355166    3.742014    0.000000
   12          1             0       -1.681904    3.090005    0.000000
   13          1             0       -0.074029    4.932969    0.000000
   14          6             0        0.603732   -2.869917    0.000000
   15          1             0        1.681904   -3.090005    0.000000
   16          6             0       -0.269481   -3.891952    0.000000
   17          1             0       -1.355166   -3.742014    0.000000
   18          1             0        0.074029   -4.932969    0.000000
   19          6             0        1.325434   -0.457029    0.000000
   20          1             0        2.364772   -0.813167    0.000000
 ---------------------------------------------------------------------
 Rotational constants (GHZ):      4.6264911      0.6849396      0.5966127
 Leave Link  202 at Mon Aug 28 16:45:06 2006, MaxMem=   13107200 cpu:       0.0
 (Enter /home/no228/Tools/g03/l301.exe)
 Standard basis: STO-3G (5D, 7F)
                         Coordinates in L301:                         
 ---------------------------------------------------------------------
 Center     Atomic     Atomic              Coordinates (Angstroms)
 Number     Number      Type              X           Y           Z
 ---------------------------------------------------------------------
    1          6             0        0.269481   -1.410087    0.000000
    2          6             0       -1.064752   -0.920700    0.000000
    3          6             0       -1.325434    0.457029    0.000000
    4          6             0       -0.269481    1.410087    0.000000
    5          6             0        1.064752    0.920700    0.000000
    6          1             0       -1.904434   -1.627596    0.000000
    7          1             0       -2.364772    0.813167    0.000000
    8          1             0        1.904434    1.627596    0.000000
    9          6             0       -0.603732    2.869917    0.000000
   10          6             0        0.269481    3.891952    0.000000
   11          1             0        1.355166    3.742014    0.000000
   12          1             0       -1.681904    3.090005    0.000000
   13          1             0       -0.074029    4.932969    0.000000
   14          6             0        0.603732   -2.869917    0.000000
   15          1             0        1.681904   -3.090005    0.000000
   16          6             0       -0.269481   -3.891952    0.000000
   17          1             0       -1.355166   -3.742014    0.000000
   18          1             0        0.074029   -4.932969    0.000000
   19          6             0        1.325434   -0.457029    0.000000
   20          1             0        2.364772   -0.813167    0.000000
 ---------------------------------------------------------------------
 LdAtmC:  AtmChg=     6.000000     6.000000     6.000000     6.000000     6.000000
 LdAtmC:  AtmChg=     1.000000     1.000000     1.000000     6.000000     6.000000
 LdAtmC:  AtmChg=     1.000000     1.000000     1.000000     6.000000     1.000000
 LdAtmC:  AtmChg=     6.000000     1.000000     1.000000     6.000000     1.000000
 AtZEff=  -3.6000000  -3.6000000  -3.6000000  -3.6000000  -3.6000000  -1.0000000  -1.0000000  -1.0000000  -3.6000000  -3.6000000
 AtZEff=  -1.0000000  -1.0000000  -1.0000000  -3.6000000  -1.0000000  -3.6000000  -1.0000000  -1.0000000  -3.6000000  -1.0000000
 NEqShl: 
              1            2            3            4
     1            1            7            1            7
     2            2            8            2            8
     3            3            9            3            9
     4            4           10            4           10
     5            5           28            5           28
     6            6           29            6           29
     7            7            1            7            1
     8            8            2            8            2
     9            9            3            9            3
    10           10            4           10            4
    11           11           13           11           13
    12           12           30           12           30
    13           13           11           13           11
    14           14           21           14           21
    15           15           22           15           22
    16           16           24           16           24
    17           17           25           17           25
    18           18           26           18           26
    19           19           23           19           23
    20           20           27           20           27
    21           21           14           21           14
    22           22           15           22           15
    23           23           19           23           19
    24           24           16           24           16
    25           25           17           25           17
    26           26           18           26           18
    27           27           20           27           20
    28           28            5           28            5
    29           29            6           29            6
    30           30           12           30           12
 NEqBas: 
              1            2            3            4
     1            1           16            1           16
     2            2           17            2           17
     3            3          -18            3          -18
     4            4          -19            4          -19
     5            5           20           -5          -20
     6            6           21            6           21
     7            7           22            7           22
     8            8          -23            8          -23
     9            9          -24            9          -24
    10           10           25          -10          -25
    11           11           55           11           55
    12           12           56           12           56
    13           13          -57           13          -57
    14           14          -58           14          -58
    15           15           59          -15          -59
    16           16            1           16            1
    17           17            2           17            2
    18           18           -3           18           -3
    19           19           -4           19           -4
    20           20            5          -20           -5
    21           21            6           21            6
    22           22            7           22            7
    23           23           -8           23           -8
    24           24           -9           24           -9
    25           25           10          -25          -10
    26           26           28           26           28
    27           27           60           27           60
    28           28           26           28           26
    29           29           42           29           42
    30           30           43           30           43
    31           31          -44           31          -44
    32           32          -45           32          -45
    33           33           46          -33          -46
    34           34           48           34           48
    35           35           49           35           49
    36           36          -50           36          -50
    37           37          -51           37          -51
    38           38           52          -38          -52
    39           39           53           39           53
    40           40           47           40           47
    41           41           54           41           54
    42           42           29           42           29
    43           43           30           43           30
    44           44          -31           44          -31
    45           45          -32           45          -32
    46           46           33          -46          -33
    47           47           40           47           40
    48           48           34           48           34
    49           49           35           49           35
    50           50          -36           50          -36
    51           51          -37           51          -37
    52           52           38          -52          -38
    53           53           39           53           39
    54           54           41           54           41
    55           55           11           55           11
    56           56           12           56           12
    57           57          -13           57          -13
    58           58          -14           58          -14
    59           59           15          -59          -15
    60           60           27           60           27
 NEqShl: 
              1            2            3            4
     1            1            7            1            7
     2            2            8            2            8
     3            3            9            3            9
     4            4           10            4           10
     5            5           28            5           28
     6            6           29            6           29
     7            7            1            7            1
     8            8            2            8            2
     9            9            3            9            3
    10           10            4           10            4
    11           11           13           11           13
    12           12           30           12           30
    13           13           11           13           11
    14           14           21           14           21
    15           15           22           15           22
    16           16           24           16           24
    17           17           25           17           25
    18           18           26           18           26
    19           19           23           19           23
    20           20           27           20           27
    21           21           14           21           14
    22           22           15           22           15
    23           23           19           23           19
    24           24           16           24           16
    25           25           17           25           17
    26           26           18           26           18
    27           27           20           27           20
    28           28            5           28            5
    29           29            6           29            6
    30           30           12           30           12
 NEqBas: 
              1            2            3            4
     1            1           16            1           16
     2            2           17            2           17
     3            3          -18            3          -18
     4            4          -19            4          -19
     5            5           20           -5          -20
     6            6           21            6           21
     7            7           22            7           22
     8            8          -23            8          -23
     9            9          -24            9          -24
    10           10           25          -10          -25
    11           11           55           11           55
    12           12           56           12           56
    13           13          -57           13          -57
    14           14          -58           14          -58
    15           15           59          -15          -59
    16           16            1           16            1
    17           17            2           17            2
    18           18           -3           18           -3
    19           19           -4           19           -4
    20           20            5          -20           -5
    21           21            6           21            6
    22           22            7           22            7
    23           23           -8           23           -8
    24           24           -9           24           -9
    25           25           10          -25          -10
    26           26           28           26           28
    27           27           60           27           60
    28           28           26           28           26
    29           29           42           29           42
    30           30           43           30           43
    31           31          -44           31          -44
    32           32          -45           32          -45
    33           33           46          -33          -46
    34           34           48           34           48
    35           35           49           35           49
    36           36          -50           36          -50
    37           37          -51           37          -51
    38           38           52          -38          -52
    39           39           53           39           53
    40           40           47           40           47
    41           41           54           41           54
    42           42           29           42           29
    43           43           30           43           30
    44           44          -31           44          -31
    45           45          -32           45          -32
    46           46           33          -46          -33
    47           47           40           47           40
    48           48           34           48           34
    49           49           35           49           35
    50           50          -36           50          -36
    51           51          -37           51          -37
    52           52           38          -52          -38
    53           53           39           53           39
    54           54           41           54           41
    55           55           11           55           11
    56           56           12           56           12
    57           57          -13           57          -13
    58           58          -14           58          -14
    59           59           15          -59          -15
    60           60           27           60           27
 There are    25 symmetry adapted basis functions of AG  symmetry.
   1         1  16  16   1
   2         2  17  17   2
   3         3 -18 -18   3
   4         4 -19 -19   4
   5         6  21  21   6
   6         7  22  22   7
   7         8 -23 -23   8
   8         9 -24 -24   9
   9        11  55  55  11
  10        12  56  56  12
  11        13 -57 -57  13
  12        14 -58 -58  14
  13        26  28  28  26
  14        27  60  60  27
  15        29  42  42  29
  16        30  43  43  30
  17        31 -44 -44  31
  18        32 -45 -45  32
  19        34  48  48  34
  20        35  49  49  35
  21        36 -50 -50  36
  22        37 -51 -51  37
  23        39  53  53  39
  24        40  47  47  40
  25        41  54  54  41
 There are     5 symmetry adapted basis functions of BG  symmetry.
  26         5 -20 -20   5
  27        10 -25 -25  10
  28        15 -59 -59  15
  29        33 -46 -46  33
  30        38 -52 -52  38
 There are     5 symmetry adapted basis functions of AU  symmetry.
  31         5  20  20   5
  32        10  25  25  10
  33        15  59  59  15
  34        33  46  46  33
  35        38  52  52  38
 There are    25 symmetry adapted basis functions of BU  symmetry.
  36         1 -16 -16   1
  37         2 -17 -17   2
  38         3  18  18   3
  39         4  19  19   4
  40         6 -21 -21   6
  41         7 -22 -22   7
  42         8  23  23   8
  43         9  24  24   9
  44        11 -55 -55  11
  45        12 -56 -56  12
  46        13  57  57  13
  47        14  58  58  14
  48        26 -28 -28  26
  49        27 -60 -60  27
  50        29 -42 -42  29
  51        30 -43 -43  30
  52        31  44  44  31
  53        32  45  45  32
  54        34 -48 -48  34
  55        35 -49 -49  35
  56        36  50  50  36
  57        37  51  51  37
  58        39 -53 -53  39
  59        40 -47 -47  40
  60        41 -54 -54  41
 Order= 1 4 2 3
 Reordered character table:
              1            2            3            4
     1            1            1            1            1
     2            1           -1            1           -1
     3            1           -1           -1            1
     4            1            1           -1           -1
 Integral buffers will be    262144 words long.
 Raffenetti 2 integral format.
 Two-electron integral symmetry is turned on.
    60 basis functions,   180 primitive gaussians,    60 cartesian basis functions
    35 alpha electrons       34 beta electrons
       nuclear repulsion energy       445.8993288870 Hartrees.
 IExCor= 402 DFT=T Ex=B+HF Corr=LYP ExCW=0 ScaHFX=  0.200000
 ScaDFX=  0.800000  0.720000  1.000000  0.810000
 IRadAn=      0 IRanWt=     -1 IRanGd=            0 ICorTp=0
 NAtoms=   20 NActive=   20 NUniq=   10 SFac= 5.66D+00 NAtFMM=   60 Big=F
 Leave Link  301 at Mon Aug 28 16:45:07 2006, MaxMem=   13107200 cpu:       0.0
 (Enter /home/no228/Tools/g03/l302.exe)
 NPDir=0 NMtPBC=     1 NCelOv=     1 NCel=       1 NClECP=     1 NCelD=      1
         NCelK=      1 NCelE2=     1 NClLst=     1 CellRange=     0.0.
 One-electron integrals computed using PRISM.
 One-electron integral symmetry used in STVInt
 Entering OneElI...
 Calculate overlap and kinetic energy integrals
    NBasis =  60  MinDer = 0  MaxDer = 0
 Requested accuracy = 0.1000D-12
 Symmetry will be used
 PrsmSu:  NPrtUS=   1 ThrOK=F
 PRISM was handed    13010916 working-precision words and   438 shell-pairs
 *** Overlap *** 
                1             2             3             4             5
      1  0.100000D+01
      2  0.248362D+00  0.100000D+01
      3  0.000000D+00  0.000000D+00  0.100000D+01
      4  0.000000D+00  0.000000D+00  0.000000D+00  0.100000D+01
      5  0.000000D+00  0.000000D+00  0.000000D+00  0.000000D+00  0.100000D+01
      6  0.000000D+00  0.356474D-01 -0.555212D-01  0.203648D-01  0.000000D+00
      7  0.356474D-01  0.354146D+00 -0.356945D+00  0.130925D+00  0.000000D+00
      8  0.555212D-01  0.356945D+00 -0.263845D+00  0.171962D+00  0.000000D+00
      9 -0.203648D-01 -0.130925D+00  0.171962D+00  0.141907D+00  0.000000D+00
     10  0.000000D+00  0.000000D+00  0.000000D+00  0.000000D+00  0.204981D+00
     11  0.000000D+00  0.159334D-02 -0.242051D-02  0.283361D-02  0.000000D+00
     12  0.159334D-02  0.563300D-01 -0.543522D-01  0.636284D-01  0.000000D+00
     13  0.242051D-02  0.543522D-01 -0.343642D-01  0.675905D-01  0.000000D+00
     14 -0.283361D-02 -0.636284D-01  0.675905D-01 -0.557536D-01  0.000000D+00
     15  0.000000D+00  0.000000D+00  0.000000D+00  0.000000D+00  0.233725D-01
     16  0.000000D+00  0.298192D-03 -0.152806D-03  0.799573D-03  0.000000D+00
     17  0.298192D-03  0.216835D-01 -0.665587D-02  0.348275D-01  0.000000D+00
     18  0.152806D-03  0.665587D-02  0.604780D-02  0.114792D-01  0.000000D+00
     19 -0.799573D-03 -0.348275D-01  0.114792D-01 -0.518246D-01  0.000000D+00
     20  0.000000D+00  0.000000D+00  0.000000D+00  0.000000D+00  0.824158D-02
     21  0.000000D+00  0.155148D-02  0.117515D-02  0.344415D-02  0.000000D+00
     22  0.155148D-02  0.554696D-01  0.266571D-01  0.781269D-01  0.000000D+00
     23 -0.117515D-02 -0.266571D-01  0.888093D-02 -0.413135D-01  0.000000D+00
     24 -0.344415D-02 -0.781269D-01 -0.413135D-01 -0.981048D-01  0.000000D+00
     25  0.000000D+00  0.000000D+00  0.000000D+00  0.000000D+00  0.229772D-01
     26  0.503522D-02  0.922542D-01 -0.119236D+00 -0.119301D-01  0.000000D+00
     27  0.802831D-04  0.592140D-02 -0.754660D-02  0.636917D-02  0.000000D+00
     28  0.794271D-04  0.588177D-02  0.465100D-02  0.864138D-02  0.000000D+00
     29  0.000000D+00  0.000000D+00  0.000000D+00  0.000000D+00  0.000000D+00
     30  0.000000D+00  0.256747D-03 -0.113796D-03  0.557764D-03  0.000000D+00
     31  0.000000D+00  0.113796D-03  0.314736D-04  0.250292D-03  0.000000D+00
     32  0.000000D+00 -0.557764D-03  0.250292D-03 -0.114425D-02  0.000000D+00
     33  0.000000D+00  0.000000D+00  0.000000D+00  0.000000D+00  0.825385D-04
     34  0.000000D+00  0.000000D+00  0.000000D+00  0.000000D+00  0.000000D+00
     35  0.000000D+00  0.701408D-05  0.000000D+00  0.186031D-04  0.000000D+00
     36  0.000000D+00  0.000000D+00  0.220756D-05  0.000000D+00  0.000000D+00
     37  0.000000D+00 -0.186031D-04  0.000000D+00 -0.472363D-04  0.000000D+00
     38  0.000000D+00  0.000000D+00  0.000000D+00  0.000000D+00  0.220756D-05
     39  0.000000D+00  0.231864D-04  0.109580D-04  0.520008D-04  0.000000D+00
     40  0.000000D+00  0.819693D-04 -0.701735D-04  0.161827D-03  0.000000D+00
     41  0.000000D+00  0.000000D+00  0.000000D+00  0.000000D+00  0.000000D+00
     42  0.000000D+00  0.295675D-01  0.110071D-01 -0.480731D-01  0.000000D+00
     43  0.295675D-01  0.317716D+00  0.785799D-01 -0.343195D+00  0.000000D+00
     44 -0.110071D-01 -0.785799D-01  0.153182D+00  0.108326D+00  0.000000D+00
     45  0.480731D-01  0.343195D+00  0.108326D+00 -0.295123D+00  0.000000D+00
     46  0.000000D+00  0.000000D+00  0.000000D+00  0.000000D+00  0.177985D+00
     47  0.490723D-02  0.905674D-01  0.758840D-01 -0.902554D-01  0.000000D+00
     48  0.000000D+00  0.115899D-02 -0.594607D-03 -0.273811D-02  0.000000D+00
     49  0.115899D-02  0.468872D-01 -0.150872D-01 -0.694748D-01  0.000000D+00
     50  0.594607D-03  0.150872D-01  0.137702D-01 -0.244691D-01  0.000000D+00
     51  0.273811D-02  0.694748D-01 -0.244691D-01 -0.935939D-01  0.000000D+00
     52  0.000000D+00  0.000000D+00  0.000000D+00  0.000000D+00  0.190839D-01
     53  0.733595D-03  0.245234D-01 -0.209661D-01 -0.300936D-01  0.000000D+00
     54  0.577498D-04  0.481999D-02 -0.451550D-03 -0.813884D-02  0.000000D+00
     55  0.000000D+00  0.355361D-01  0.437662D-01  0.395015D-01  0.000000D+00
     56  0.355361D-01  0.353510D+00  0.281890D+00  0.254422D+00  0.000000D+00
     57 -0.437662D-01 -0.281890D+00 -0.883157D-01 -0.264281D+00  0.000000D+00
     58 -0.395015D-01 -0.254422D+00 -0.264281D+00 -0.340314D-01  0.000000D+00
     59  0.000000D+00  0.000000D+00  0.000000D+00  0.000000D+00  0.204497D+00
     60  0.511469D-02  0.932965D-01  0.116381D+00  0.331554D-01  0.000000D+00
                6             7             8             9            10
      6  0.100000D+01
      7  0.248362D+00  0.100000D+01
      8  0.000000D+00  0.000000D+00  0.100000D+01
      9  0.000000D+00  0.000000D+00  0.000000D+00  0.100000D+01
     10  0.000000D+00  0.000000D+00  0.000000D+00  0.000000D+00  0.100000D+01
     11  0.000000D+00  0.373151D-01 -0.115028D-01  0.607932D-01  0.000000D+00
     12  0.373151D-01  0.363558D+00 -0.719676D-01  0.380356D+00  0.000000D+00
     13  0.115028D-01  0.719676D-01  0.193522D+00  0.986482D-01  0.000000D+00
     14 -0.607932D-01 -0.380356D+00  0.986482D-01 -0.309177D+00  0.000000D+00
     15  0.000000D+00  0.000000D+00  0.000000D+00  0.000000D+00  0.212188D+00
     16  0.000000D+00  0.155148D-02  0.117515D-02  0.344415D-02  0.000000D+00
     17  0.155148D-02  0.554696D-01  0.266571D-01  0.781269D-01  0.000000D+00
     18 -0.117515D-02 -0.266571D-01  0.888093D-02 -0.413135D-01  0.000000D+00
     19 -0.344415D-02 -0.781269D-01 -0.413135D-01 -0.981048D-01  0.000000D+00
     20  0.000000D+00  0.000000D+00  0.000000D+00  0.000000D+00  0.229772D-01
     21  0.000000D+00  0.379395D-03  0.768273D-03  0.664332D-03  0.000000D+00
     22  0.379395D-03  0.248323D-01  0.303413D-01  0.262364D-01  0.000000D+00
     23 -0.768273D-03 -0.303413D-01 -0.303857D-01 -0.345246D-01  0.000000D+00
     24 -0.664332D-03 -0.262364D-01 -0.345246D-01 -0.203131D-01  0.000000D+00
     25  0.000000D+00  0.000000D+00  0.000000D+00  0.000000D+00  0.954059D-02
     26  0.611774D-01  0.486379D+00 -0.355456D+00 -0.299245D+00  0.000000D+00
     27  0.526789D-02  0.952947D-01 -0.739469D-01  0.986247D-01  0.000000D+00
     28  0.109519D-04  0.173132D-02  0.237371D-02  0.203723D-02  0.000000D+00
     29  0.000000D+00  0.247945D-05  0.108466D-05  0.891836D-05  0.000000D+00
     30  0.247945D-05  0.157362D-02  0.377339D-03  0.310257D-02  0.000000D+00
     31 -0.108466D-05 -0.377339D-03  0.431168D-03 -0.765021D-03  0.000000D+00
     32 -0.891836D-05 -0.310257D-02 -0.765021D-03 -0.576598D-02  0.000000D+00
     33  0.000000D+00  0.000000D+00  0.000000D+00  0.000000D+00  0.524211D-03
     34  0.000000D+00  0.000000D+00  0.000000D+00  0.000000D+00  0.000000D+00
     35  0.000000D+00  0.247495D-04  0.165607D-04  0.597353D-04  0.000000D+00
     36  0.000000D+00 -0.165607D-04 -0.330678D-05 -0.401293D-04  0.000000D+00
     37  0.000000D+00 -0.597353D-04 -0.401293D-04 -0.136930D-03  0.000000D+00
     38  0.000000D+00  0.000000D+00  0.000000D+00  0.000000D+00  0.781844D-05
     39  0.000000D+00  0.242135D-04  0.255117D-04  0.491560D-04  0.000000D+00
     40  0.559277D-05  0.115063D-02 -0.324242D-03  0.210716D-02  0.000000D+00
     41  0.000000D+00  0.174863D-05  0.000000D+00  0.442394D-05  0.000000D+00
     42  0.000000D+00  0.104784D-02  0.166396D-02 -0.194394D-02  0.000000D+00
     43  0.104784D-02  0.442500D-01  0.439031D-01 -0.512901D-01  0.000000D+00
     44 -0.166396D-02 -0.439031D-01 -0.296908D-01  0.556056D-01  0.000000D+00
     45  0.194394D-02  0.512901D-01  0.556056D-01 -0.470554D-01  0.000000D+00
     46  0.000000D+00  0.000000D+00  0.000000D+00  0.000000D+00  0.179063D-01
     47  0.648275D-04  0.518029D-02  0.684169D-02 -0.540356D-02  0.000000D+00
     48  0.000000D+00  0.118780D-03  0.897748D-04 -0.335412D-03  0.000000D+00
     49  0.118780D-03  0.129682D-01  0.572733D-02 -0.213982D-01  0.000000D+00
     50 -0.897748D-04 -0.572733D-02  0.206385D-02  0.100423D-01  0.000000D+00
     51  0.335412D-03  0.213982D-01  0.100423D-01 -0.327678D-01  0.000000D+00
     52  0.000000D+00  0.000000D+00  0.000000D+00  0.000000D+00  0.475173D-02
     53  0.747903D-03  0.248392D-01 -0.379959D-02 -0.369122D-01  0.000000D+00
     54  0.326131D-05  0.830279D-03  0.428411D-03 -0.150942D-02  0.000000D+00
     55  0.000000D+00  0.172121D-02  0.391932D-02  0.760306D-03  0.000000D+00
     56  0.172121D-02  0.589034D-01  0.854617D-01  0.165787D-01  0.000000D+00
     57 -0.391932D-02 -0.854617D-01 -0.112157D+00 -0.265217D-01  0.000000D+00
     58 -0.760306D-03 -0.165787D-01 -0.265217D-01  0.194151D-01  0.000000D+00
     59  0.000000D+00  0.000000D+00  0.000000D+00  0.000000D+00  0.245600D-01
     60  0.855323D-04  0.616121D-02  0.102420D-01  0.321137D-03  0.000000D+00
               11            12            13            14            15
     11  0.100000D+01
     12  0.248362D+00  0.100000D+01
     13  0.000000D+00  0.000000D+00  0.100000D+01
     14  0.000000D+00  0.000000D+00  0.000000D+00  0.100000D+01
     15  0.000000D+00  0.000000D+00  0.000000D+00  0.000000D+00  0.100000D+01
     16  0.000000D+00  0.355361D-01  0.437662D-01  0.395015D-01  0.000000D+00
     17  0.355361D-01  0.353510D+00  0.281890D+00  0.254422D+00  0.000000D+00
     18 -0.437662D-01 -0.281890D+00 -0.883157D-01 -0.264281D+00  0.000000D+00
     19 -0.395015D-01 -0.254422D+00 -0.264281D+00 -0.340314D-01  0.000000D+00
     20  0.000000D+00  0.000000D+00  0.000000D+00  0.000000D+00  0.204497D+00
     21  0.000000D+00  0.172121D-02  0.391932D-02  0.760306D-03  0.000000D+00
     22  0.172121D-02  0.589034D-01  0.854617D-01  0.165787D-01  0.000000D+00
     23 -0.391932D-02 -0.854617D-01 -0.112157D+00 -0.265217D-01  0.000000D+00
     24 -0.760306D-03 -0.165787D-01 -0.265217D-01  0.194151D-01  0.000000D+00
     25  0.000000D+00  0.000000D+00  0.000000D+00  0.000000D+00  0.245600D-01
     26  0.531595D-02  0.959187D-01 -0.331767D-01 -0.119449D+00  0.000000D+00
     27  0.610287D-01  0.485781D+00 -0.439215D+00  0.150501D+00  0.000000D+00
     28  0.840987D-04  0.609625D-02  0.953924D-02  0.345721D-02  0.000000D+00
     29  0.000000D+00  0.125704D-02  0.863692D-03  0.288761D-02  0.000000D+00
     30  0.125704D-02  0.491294D-01  0.212383D-01  0.710067D-01  0.000000D+00
     31 -0.863692D-03 -0.212383D-01  0.100286D-01 -0.336456D-01  0.000000D+00
     32 -0.288761D-02 -0.710067D-01 -0.336456D-01 -0.923963D-01  0.000000D+00
     33  0.000000D+00  0.000000D+00  0.000000D+00  0.000000D+00  0.200922D-01
     34  0.000000D+00  0.296951D-05  0.449440D-05  0.967947D-05  0.000000D+00
     35  0.296951D-05  0.173392D-02  0.144120D-02  0.310388D-02  0.000000D+00
     36 -0.449440D-05 -0.144120D-02 -0.653971D-03 -0.265596D-02  0.000000D+00
     37 -0.967947D-05 -0.310388D-02 -0.265596D-02 -0.514082D-02  0.000000D+00
     38  0.000000D+00  0.000000D+00  0.000000D+00  0.000000D+00  0.579254D-03
     39  0.232638D-05  0.677222D-03  0.819016D-03  0.100368D-02  0.000000D+00
     40  0.132621D-02  0.364447D-01 -0.704847D-02  0.520617D-01  0.000000D+00
     41  0.000000D+00  0.191859D-03  0.106210D-03  0.379885D-03  0.000000D+00
     42  0.000000D+00  0.211760D-05  0.387622D-05 -0.668473D-05  0.000000D+00
     43  0.211760D-05  0.144572D-02  0.144828D-02 -0.249764D-02  0.000000D+00
     44 -0.387622D-05 -0.144828D-02 -0.101000D-02  0.257037D-02  0.000000D+00
     45  0.668473D-05  0.249764D-02  0.257037D-02 -0.395228D-02  0.000000D+00
     46  0.000000D+00  0.000000D+00  0.000000D+00  0.000000D+00  0.480457D-03
     47  0.000000D+00  0.190173D-03  0.252971D-03 -0.298370D-03  0.000000D+00
     48  0.000000D+00  0.000000D+00  0.000000D+00  0.000000D+00  0.000000D+00
     49  0.000000D+00  0.175681D-03  0.938805D-04 -0.386650D-03  0.000000D+00
     50  0.000000D+00 -0.938805D-04  0.554381D-05  0.208765D-03  0.000000D+00
     51  0.000000D+00  0.386650D-03  0.208765D-03 -0.803573D-03  0.000000D+00
     52  0.000000D+00  0.000000D+00  0.000000D+00  0.000000D+00  0.562329D-04
     53  0.284072D-05  0.763893D-03 -0.102725D-04 -0.145076D-02  0.000000D+00
     54  0.000000D+00  0.748756D-05  0.454261D-05 -0.174958D-04  0.000000D+00
     55  0.000000D+00  0.397900D-03  0.100304D-02 -0.345863D-03  0.000000D+00
     56  0.397900D-03  0.255085D-01  0.388570D-01 -0.133985D-01  0.000000D+00
     57 -0.100304D-02 -0.388570D-01 -0.539636D-01  0.219942D-01  0.000000D+00
     58  0.345863D-03  0.133985D-01  0.219942D-01  0.223802D-02  0.000000D+00
     59  0.000000D+00  0.000000D+00  0.000000D+00  0.000000D+00  0.982192D-02
     60  0.114654D-04  0.178039D-02  0.303628D-02 -0.104511D-02  0.000000D+00
               16            17            18            19            20
     16  0.100000D+01
     17  0.248362D+00  0.100000D+01
     18  0.000000D+00  0.000000D+00  0.100000D+01
     19  0.000000D+00  0.000000D+00  0.000000D+00  0.100000D+01
     20  0.000000D+00  0.000000D+00  0.000000D+00  0.000000D+00  0.100000D+01
     21  0.000000D+00  0.356474D-01  0.555212D-01 -0.203648D-01  0.000000D+00
     22  0.356474D-01  0.354146D+00  0.356945D+00 -0.130925D+00  0.000000D+00
     23 -0.555212D-01 -0.356945D+00 -0.263845D+00  0.171962D+00  0.000000D+00
     24  0.203648D-01  0.130925D+00  0.171962D+00  0.141907D+00  0.000000D+00
     25  0.000000D+00  0.000000D+00  0.000000D+00  0.000000D+00  0.204981D+00
     26  0.794271D-04  0.588177D-02 -0.465100D-02 -0.864138D-02  0.000000D+00
     27  0.511469D-02  0.932965D-01 -0.116381D+00 -0.331554D-01  0.000000D+00
     28  0.503522D-02  0.922542D-01  0.119236D+00  0.119301D-01  0.000000D+00
     29  0.000000D+00  0.295675D-01 -0.110071D-01  0.480731D-01  0.000000D+00
     30  0.295675D-01  0.317716D+00 -0.785799D-01  0.343195D+00  0.000000D+00
     31  0.110071D-01  0.785799D-01  0.153182D+00  0.108326D+00  0.000000D+00
     32 -0.480731D-01 -0.343195D+00  0.108326D+00 -0.295123D+00  0.000000D+00
     33  0.000000D+00  0.000000D+00  0.000000D+00  0.000000D+00  0.177985D+00
     34  0.000000D+00  0.115899D-02  0.594607D-03  0.273811D-02  0.000000D+00
     35  0.115899D-02  0.468872D-01  0.150872D-01  0.694748D-01  0.000000D+00
     36 -0.594607D-03 -0.150872D-01  0.137702D-01 -0.244691D-01  0.000000D+00
     37 -0.273811D-02 -0.694748D-01 -0.244691D-01 -0.935939D-01  0.000000D+00
     38  0.000000D+00  0.000000D+00  0.000000D+00  0.000000D+00  0.190839D-01
     39  0.733595D-03  0.245234D-01  0.209661D-01  0.300936D-01  0.000000D+00
     40  0.490723D-02  0.905674D-01 -0.758840D-01  0.902554D-01  0.000000D+00
     41  0.577498D-04  0.481999D-02  0.451550D-03  0.813884D-02  0.000000D+00
     42  0.000000D+00  0.000000D+00  0.000000D+00  0.000000D+00  0.000000D+00
     43  0.000000D+00  0.256747D-03  0.113796D-03 -0.557764D-03  0.000000D+00
     44  0.000000D+00 -0.113796D-03  0.314736D-04  0.250292D-03  0.000000D+00
     45  0.000000D+00  0.557764D-03  0.250292D-03 -0.114425D-02  0.000000D+00
     46  0.000000D+00  0.000000D+00  0.000000D+00  0.000000D+00  0.825385D-04
     47  0.000000D+00  0.819693D-04  0.701735D-04 -0.161827D-03  0.000000D+00
     48  0.000000D+00  0.000000D+00  0.000000D+00  0.000000D+00  0.000000D+00
     49  0.000000D+00  0.701408D-05  0.000000D+00 -0.186031D-04  0.000000D+00
     50  0.000000D+00  0.000000D+00  0.220756D-05  0.000000D+00  0.000000D+00
     51  0.000000D+00  0.186031D-04  0.000000D+00 -0.472363D-04  0.000000D+00
     52  0.000000D+00  0.000000D+00  0.000000D+00  0.000000D+00  0.220756D-05
     53  0.000000D+00  0.231864D-04 -0.109580D-04 -0.520008D-04  0.000000D+00
     54  0.000000D+00  0.000000D+00  0.000000D+00  0.000000D+00  0.000000D+00
     55  0.000000D+00  0.159334D-02  0.242051D-02 -0.283361D-02  0.000000D+00
     56  0.159334D-02  0.563300D-01  0.543522D-01 -0.636284D-01  0.000000D+00
     57 -0.242051D-02 -0.543522D-01 -0.343642D-01  0.675905D-01  0.000000D+00
     58  0.283361D-02  0.636284D-01  0.675905D-01 -0.557536D-01  0.000000D+00
     59  0.000000D+00  0.000000D+00  0.000000D+00  0.000000D+00  0.233725D-01
     60  0.802831D-04  0.592140D-02  0.754660D-02 -0.636917D-02  0.000000D+00
               21            22            23            24            25
     21  0.100000D+01
     22  0.248362D+00  0.100000D+01
     23  0.000000D+00  0.000000D+00  0.100000D+01
     24  0.000000D+00  0.000000D+00  0.000000D+00  0.100000D+01
     25  0.000000D+00  0.000000D+00  0.000000D+00  0.000000D+00  0.100000D+01
     26  0.109519D-04  0.173132D-02 -0.237371D-02 -0.203723D-02  0.000000D+00
     27  0.855323D-04  0.616121D-02 -0.102420D-01 -0.321137D-03  0.000000D+00
     28  0.611774D-01  0.486379D+00  0.355456D+00  0.299245D+00  0.000000D+00
     29  0.000000D+00  0.104784D-02 -0.166396D-02  0.194394D-02  0.000000D+00
     30  0.104784D-02  0.442500D-01 -0.439031D-01  0.512901D-01  0.000000D+00
     31  0.166396D-02  0.439031D-01 -0.296908D-01  0.556056D-01  0.000000D+00
     32 -0.194394D-02 -0.512901D-01  0.556056D-01 -0.470554D-01  0.000000D+00
     33  0.000000D+00  0.000000D+00  0.000000D+00  0.000000D+00  0.179063D-01
     34  0.000000D+00  0.118780D-03 -0.897748D-04  0.335412D-03  0.000000D+00
     35  0.118780D-03  0.129682D-01 -0.572733D-02  0.213982D-01  0.000000D+00
     36  0.897748D-04  0.572733D-02  0.206385D-02  0.100423D-01  0.000000D+00
     37 -0.335412D-03 -0.213982D-01  0.100423D-01 -0.327678D-01  0.000000D+00
     38  0.000000D+00  0.000000D+00  0.000000D+00  0.000000D+00  0.475173D-02
     39  0.747903D-03  0.248392D-01  0.379959D-02  0.369122D-01  0.000000D+00
     40  0.648275D-04  0.518029D-02 -0.684169D-02  0.540356D-02  0.000000D+00
     41  0.326131D-05  0.830279D-03 -0.428411D-03  0.150942D-02  0.000000D+00
     42  0.000000D+00  0.247945D-05 -0.108466D-05 -0.891836D-05  0.000000D+00
     43  0.247945D-05  0.157362D-02 -0.377339D-03 -0.310257D-02  0.000000D+00
     44  0.108466D-05  0.377339D-03  0.431168D-03 -0.765021D-03  0.000000D+00
     45  0.891836D-05  0.310257D-02 -0.765021D-03 -0.576598D-02  0.000000D+00
     46  0.000000D+00  0.000000D+00  0.000000D+00  0.000000D+00  0.524211D-03
     47  0.559277D-05  0.115063D-02  0.324242D-03 -0.210716D-02  0.000000D+00
     48  0.000000D+00  0.000000D+00  0.000000D+00  0.000000D+00  0.000000D+00
     49  0.000000D+00  0.247495D-04 -0.165607D-04 -0.597353D-04  0.000000D+00
     50  0.000000D+00  0.165607D-04 -0.330678D-05 -0.401293D-04  0.000000D+00
     51  0.000000D+00  0.597353D-04 -0.401293D-04 -0.136930D-03  0.000000D+00
     52  0.000000D+00  0.000000D+00  0.000000D+00  0.000000D+00  0.781844D-05
     53  0.000000D+00  0.242135D-04 -0.255117D-04 -0.491560D-04  0.000000D+00
     54  0.000000D+00  0.174863D-05  0.000000D+00 -0.442394D-05  0.000000D+00
     55  0.000000D+00  0.373151D-01  0.115028D-01 -0.607932D-01  0.000000D+00
     56  0.373151D-01  0.363558D+00  0.719676D-01 -0.380356D+00  0.000000D+00
     57 -0.115028D-01 -0.719676D-01  0.193522D+00  0.986482D-01  0.000000D+00
     58  0.607932D-01  0.380356D+00  0.986482D-01 -0.309177D+00  0.000000D+00
     59  0.000000D+00  0.000000D+00  0.000000D+00  0.000000D+00  0.212188D+00
     60  0.526789D-02  0.952947D-01  0.739469D-01 -0.986247D-01  0.000000D+00
               26            27            28            29            30
     26  0.100000D+01
     27  0.510439D-01  0.100000D+01
     28  0.104469D-03  0.710598D-03  0.100000D+01
     29  0.000000D+00  0.113217D-02  0.845031D-03  0.100000D+01
     30  0.171760D-03  0.327569D-01  0.269366D-01  0.248362D+00  0.100000D+01
     31 -0.987044D-04 -0.310297D-01  0.357994D-01  0.000000D+00  0.000000D+00
     32 -0.341296D-03 -0.362401D-01 -0.177318D-01  0.000000D+00  0.000000D+00
     33  0.000000D+00  0.000000D+00  0.000000D+00  0.000000D+00  0.000000D+00
     34  0.000000D+00  0.575235D-05  0.861850D-03  0.223823D-05  0.428323D-01
     35  0.178235D-05  0.117043D-02  0.272922D-01  0.428323D-01  0.393136D+00
     36 -0.167467D-05 -0.140841D-02  0.236672D-01 -0.461398D-01 -0.264909D+00
     37 -0.425198D-05 -0.164608D-02 -0.327783D-01 -0.540034D-01 -0.310057D+00
     38  0.000000D+00  0.000000D+00  0.000000D+00  0.000000D+00  0.000000D+00
     39  0.134995D-05  0.238111D-03  0.873781D-01  0.558225D-02  0.993521D-01
     40  0.246372D-03  0.621407D-01  0.243970D-02  0.607807D-01  0.484783D+00
     41  0.000000D+00  0.252906D-03  0.256956D-02  0.578671D-02  0.101962D+00
     42  0.845031D-03  0.000000D+00  0.000000D+00  0.000000D+00  0.000000D+00
     43  0.269366D-01  0.146589D-03  0.171760D-03  0.000000D+00  0.000000D+00
     44 -0.357994D-01 -0.191926D-03  0.987044D-04  0.000000D+00  0.000000D+00
     45  0.177318D-01  0.238126D-03  0.341296D-03  0.000000D+00  0.165043D-05
     46  0.000000D+00  0.000000D+00  0.000000D+00  0.000000D+00  0.000000D+00
     47  0.243970D-02  0.144631D-04  0.246372D-03  0.000000D+00  0.000000D+00
     48  0.861850D-03  0.000000D+00  0.000000D+00  0.000000D+00  0.000000D+00
     49  0.272922D-01  0.349798D-04  0.178235D-05  0.000000D+00  0.000000D+00
     50 -0.236672D-01 -0.319712D-04  0.167467D-05  0.000000D+00  0.000000D+00
     51  0.327783D-01  0.717935D-04  0.425198D-05  0.000000D+00  0.000000D+00
     52  0.000000D+00  0.000000D+00  0.000000D+00  0.000000D+00  0.000000D+00
     53  0.873781D-01  0.290650D-03  0.134995D-05  0.000000D+00  0.000000D+00
     54  0.256956D-02  0.156602D-05  0.000000D+00  0.000000D+00  0.000000D+00
     55  0.840987D-04  0.114654D-04  0.531595D-02  0.000000D+00  0.211760D-05
     56  0.609625D-02  0.178039D-02  0.959187D-01  0.211760D-05  0.144572D-02
     57 -0.953924D-02 -0.303628D-02  0.331767D-01 -0.387622D-05 -0.144828D-02
     58 -0.345721D-02  0.104511D-02  0.119449D+00  0.668473D-05  0.249764D-02
     59  0.000000D+00  0.000000D+00  0.000000D+00  0.000000D+00  0.000000D+00
     60  0.710598D-03  0.107388D-03  0.510439D-01  0.000000D+00  0.146589D-03
               31            32            33            34            35
     31  0.100000D+01
     32  0.000000D+00  0.100000D+01
     33  0.000000D+00  0.000000D+00  0.100000D+01
     34  0.461398D-01  0.540034D-01  0.000000D+00  0.100000D+01
     35  0.264909D+00  0.310057D+00  0.000000D+00  0.248362D+00  0.100000D+01
     36 -0.240345D-02 -0.278418D+00  0.000000D+00  0.000000D+00  0.000000D+00
     37 -0.278418D+00 -0.903959D-01  0.000000D+00  0.000000D+00  0.000000D+00
     38  0.000000D+00  0.000000D+00  0.235473D+00  0.000000D+00  0.000000D+00
     39  0.116775D+00  0.519880D-01  0.000000D+00  0.614106D-01  0.487313D+00
     40 -0.454310D+00  0.927388D-01  0.000000D+00  0.608695D-02  0.105754D+00
     41  0.325135D-01  0.126631D+00  0.000000D+00  0.613764D-01  0.487176D+00
     42  0.000000D+00  0.000000D+00  0.000000D+00  0.000000D+00  0.000000D+00
     43  0.000000D+00 -0.165043D-05  0.000000D+00  0.000000D+00  0.000000D+00
     44  0.000000D+00  0.000000D+00  0.000000D+00  0.000000D+00  0.000000D+00
     45  0.000000D+00 -0.455111D-05  0.000000D+00  0.000000D+00  0.000000D+00
     46  0.000000D+00  0.000000D+00  0.000000D+00  0.000000D+00  0.000000D+00
     47  0.000000D+00  0.000000D+00  0.000000D+00  0.000000D+00  0.000000D+00
     48  0.000000D+00  0.000000D+00  0.000000D+00  0.000000D+00  0.000000D+00
     49  0.000000D+00  0.000000D+00  0.000000D+00  0.000000D+00  0.000000D+00
     50  0.000000D+00  0.000000D+00  0.000000D+00  0.000000D+00  0.000000D+00
     51  0.000000D+00  0.000000D+00  0.000000D+00  0.000000D+00  0.000000D+00
     52  0.000000D+00  0.000000D+00  0.000000D+00  0.000000D+00  0.000000D+00
     53  0.000000D+00  0.000000D+00  0.000000D+00  0.000000D+00  0.000000D+00
     54  0.000000D+00  0.000000D+00  0.000000D+00  0.000000D+00  0.000000D+00
     55  0.387622D-05 -0.668473D-05  0.000000D+00  0.000000D+00  0.000000D+00
     56  0.144828D-02 -0.249764D-02  0.000000D+00  0.000000D+00  0.175681D-03
     57 -0.101000D-02  0.257037D-02  0.000000D+00  0.000000D+00 -0.938805D-04
     58  0.257037D-02 -0.395228D-02  0.000000D+00  0.000000D+00  0.386650D-03
     59  0.000000D+00  0.000000D+00  0.480457D-03  0.000000D+00  0.000000D+00
     60  0.191926D-03 -0.238126D-03  0.000000D+00  0.000000D+00  0.349798D-04
               36            37            38            39            40
     36  0.100000D+01
     37  0.000000D+00  0.100000D+01
     38  0.000000D+00  0.000000D+00  0.100000D+01
     39  0.460836D+00 -0.636438D-01  0.000000D+00  0.100000D+01
     40 -0.124821D+00 -0.512967D-01  0.000000D+00  0.145542D-01  0.100000D+01
     41 -0.145751D+00  0.441702D+00  0.000000D+00  0.149278D+00  0.547832D-01
     42  0.000000D+00  0.000000D+00  0.000000D+00  0.000000D+00  0.000000D+00
     43  0.000000D+00  0.000000D+00  0.000000D+00  0.000000D+00  0.000000D+00
     44  0.000000D+00  0.000000D+00  0.000000D+00  0.000000D+00  0.000000D+00
     45  0.000000D+00  0.000000D+00  0.000000D+00  0.000000D+00  0.000000D+00
     46  0.000000D+00  0.000000D+00  0.000000D+00  0.000000D+00  0.000000D+00
     47  0.000000D+00  0.000000D+00  0.000000D+00  0.000000D+00  0.000000D+00
     48  0.000000D+00  0.000000D+00  0.000000D+00  0.000000D+00  0.000000D+00
     49  0.000000D+00  0.000000D+00  0.000000D+00  0.000000D+00  0.000000D+00
     50  0.000000D+00  0.000000D+00  0.000000D+00  0.000000D+00  0.000000D+00
     51  0.000000D+00  0.000000D+00  0.000000D+00  0.000000D+00  0.000000D+00
     52  0.000000D+00  0.000000D+00  0.000000D+00  0.000000D+00  0.000000D+00
     53  0.000000D+00  0.000000D+00  0.000000D+00  0.000000D+00  0.000000D+00
     54  0.000000D+00  0.000000D+00  0.000000D+00  0.000000D+00  0.000000D+00
     55  0.000000D+00  0.000000D+00  0.000000D+00  0.284072D-05  0.000000D+00
     56  0.938805D-04 -0.386650D-03  0.000000D+00  0.763893D-03  0.190173D-03
     57  0.554381D-05  0.208765D-03  0.000000D+00  0.102725D-04 -0.252971D-03
     58  0.208765D-03 -0.803573D-03  0.000000D+00  0.145076D-02  0.298370D-03
     59  0.000000D+00  0.000000D+00  0.562329D-04  0.000000D+00  0.000000D+00
     60  0.319712D-04 -0.717935D-04  0.000000D+00  0.290650D-03  0.144631D-04
               41            42            43            44            45
     41  0.100000D+01
     42  0.000000D+00  0.100000D+01
     43  0.000000D+00  0.248362D+00  0.100000D+01
     44  0.000000D+00  0.000000D+00  0.000000D+00  0.100000D+01
     45  0.000000D+00  0.000000D+00  0.000000D+00  0.000000D+00  0.100000D+01
     46  0.000000D+00  0.000000D+00  0.000000D+00  0.000000D+00  0.000000D+00
     47  0.000000D+00  0.607807D-01  0.484783D+00  0.454310D+00 -0.927388D-01
     48  0.000000D+00  0.223823D-05  0.428323D-01 -0.461398D-01 -0.540034D-01
     49  0.000000D+00  0.428323D-01  0.393136D+00 -0.264909D+00 -0.310057D+00
     50  0.000000D+00  0.461398D-01  0.264909D+00 -0.240345D-02 -0.278418D+00
     51  0.000000D+00  0.540034D-01  0.310057D+00 -0.278418D+00 -0.903959D-01
     52  0.000000D+00  0.000000D+00  0.000000D+00  0.000000D+00  0.000000D+00
     53  0.000000D+00  0.558225D-02  0.993521D-01 -0.116775D+00 -0.519880D-01
     54  0.000000D+00  0.578671D-02  0.101962D+00 -0.325135D-01 -0.126631D+00
     55  0.000000D+00  0.000000D+00  0.125704D-02  0.863692D-03  0.288761D-02
     56  0.748756D-05  0.125704D-02  0.491294D-01  0.212383D-01  0.710067D-01
     57 -0.454261D-05 -0.863692D-03 -0.212383D-01  0.100286D-01 -0.336456D-01
     58  0.174958D-04 -0.288761D-02 -0.710067D-01 -0.336456D-01 -0.923963D-01
     59  0.000000D+00  0.000000D+00  0.000000D+00  0.000000D+00  0.000000D+00
     60  0.156602D-05  0.113217D-02  0.327569D-01  0.310297D-01  0.362401D-01
               46            47            48            49            50
     46  0.100000D+01
     47  0.000000D+00  0.100000D+01
     48  0.000000D+00  0.608695D-02  0.100000D+01
     49  0.000000D+00  0.105754D+00  0.248362D+00  0.100000D+01
     50  0.000000D+00  0.124821D+00  0.000000D+00  0.000000D+00  0.100000D+01
     51  0.000000D+00  0.512967D-01  0.000000D+00  0.000000D+00  0.000000D+00
     52  0.235473D+00  0.000000D+00  0.000000D+00  0.000000D+00  0.000000D+00
     53  0.000000D+00  0.145542D-01  0.614106D-01  0.487313D+00 -0.460836D+00
     54  0.000000D+00  0.547832D-01  0.613764D-01  0.487176D+00  0.145751D+00
     55  0.000000D+00  0.132621D-02  0.000000D+00  0.296951D-05  0.449440D-05
     56  0.000000D+00  0.364447D-01  0.296951D-05  0.173392D-02  0.144120D-02
     57  0.000000D+00  0.704847D-02 -0.449440D-05 -0.144120D-02 -0.653971D-03
     58  0.000000D+00 -0.520617D-01 -0.967947D-05 -0.310388D-02 -0.265596D-02
     59  0.200922D-01  0.000000D+00  0.000000D+00  0.000000D+00  0.000000D+00
     60  0.000000D+00  0.621407D-01  0.575235D-05  0.117043D-02  0.140841D-02
               51            52            53            54            55
     51  0.100000D+01
     52  0.000000D+00  0.100000D+01
     53  0.636438D-01  0.000000D+00  0.100000D+01
     54 -0.441702D+00  0.000000D+00  0.149278D+00  0.100000D+01
     55  0.967947D-05  0.000000D+00  0.232638D-05  0.000000D+00  0.100000D+01
     56  0.310388D-02  0.000000D+00  0.677222D-03  0.191859D-03  0.248362D+00
     57 -0.265596D-02  0.000000D+00 -0.819016D-03 -0.106210D-03  0.000000D+00
     58 -0.514082D-02  0.000000D+00 -0.100368D-02 -0.379885D-03  0.000000D+00
     59  0.000000D+00  0.579254D-03  0.000000D+00  0.000000D+00  0.000000D+00
     60  0.164608D-02  0.000000D+00  0.238111D-03  0.252906D-03  0.610287D-01
               56            57            58            59            60
     56  0.100000D+01
     57  0.000000D+00  0.100000D+01
     58  0.000000D+00  0.000000D+00  0.100000D+01
     59  0.000000D+00  0.000000D+00  0.000000D+00  0.100000D+01
     60  0.485781D+00  0.439215D+00 -0.150501D+00  0.000000D+00  0.100000D+01
 *** Kinetic Energy *** 
                1             2             3             4             5
      1  0.158911D+02
      2 -0.858900D-01  0.472250D+00
      3  0.000000D+00  0.000000D+00  0.147773D+01
      4  0.000000D+00  0.000000D+00  0.000000D+00  0.147773D+01
      5  0.000000D+00  0.000000D+00  0.000000D+00  0.000000D+00  0.147773D+01
      6 -0.232445D-04 -0.841008D-02  0.111646D-01 -0.409511D-02  0.000000D+00
      7 -0.841008D-02  0.409130D-01 -0.131645D+00  0.482863D-01  0.000000D+00
      8 -0.111646D-01  0.131645D+00 -0.250535D+00  0.116852D+00  0.000000D+00
      9  0.409511D-02 -0.482863D-01  0.116852D+00  0.251822D-01  0.000000D+00
     10  0.000000D+00  0.000000D+00  0.000000D+00  0.000000D+00  0.680428D-01
     11  0.000000D+00 -0.207833D-02  0.216264D-02 -0.253173D-02  0.000000D+00
     12 -0.207833D-02 -0.171082D-01  0.723056D-02 -0.846458D-02  0.000000D+00
     13 -0.216264D-02 -0.723056D-02 -0.561819D-02  0.193258D-02  0.000000D+00
     14  0.253173D-02  0.846458D-02  0.193258D-02 -0.622976D-02  0.000000D+00
     15  0.000000D+00  0.000000D+00  0.000000D+00  0.000000D+00 -0.396735D-02
     16  0.000000D+00 -0.598860D-03  0.242556D-03 -0.126920D-02  0.000000D+00
     17 -0.598860D-03 -0.108352D-01  0.224714D-02 -0.117584D-01  0.000000D+00
     18 -0.242556D-03 -0.224714D-02 -0.267814D-02 -0.209312D-02  0.000000D+00
     19  0.126920D-02  0.117584D-01 -0.209312D-02  0.787434D-02  0.000000D+00
     20  0.000000D+00  0.000000D+00  0.000000D+00  0.000000D+00 -0.307815D-02
     21  0.000000D+00 -0.204093D-02 -0.106247D-02 -0.311389D-02  0.000000D+00
     22 -0.204093D-02 -0.170258D-01 -0.363694D-02 -0.106592D-01  0.000000D+00
     23  0.106247D-02  0.363694D-02 -0.433264D-02 -0.103946D-02  0.000000D+00
     24  0.311389D-02  0.106592D-01 -0.103946D-02 -0.702443D-02  0.000000D+00
     25  0.000000D+00  0.000000D+00  0.000000D+00  0.000000D+00 -0.397798D-02
     26 -0.225903D-02 -0.150264D-01  0.168001D-02  0.168092D-03  0.000000D+00
     27 -0.141372D-03 -0.356656D-02  0.358051D-02 -0.302187D-02  0.000000D+00
     28 -0.140141D-03 -0.354880D-02 -0.221149D-02 -0.410888D-02  0.000000D+00
     29  0.000000D+00  0.000000D+00  0.000000D+00 -0.169535D-05  0.000000D+00
     30  0.000000D+00 -0.356088D-03  0.135920D-03 -0.666202D-03  0.000000D+00
     31  0.000000D+00 -0.135920D-03 -0.477841D-04 -0.254925D-03  0.000000D+00
     32  0.169535D-05  0.666202D-03 -0.254925D-03  0.114971D-02  0.000000D+00
     33  0.000000D+00  0.000000D+00  0.000000D+00  0.000000D+00 -0.997942D-04
     34  0.000000D+00  0.000000D+00  0.000000D+00  0.000000D+00  0.000000D+00
     35  0.000000D+00 -0.151227D-04  0.000000D+00 -0.361206D-04  0.000000D+00
     36  0.000000D+00  0.000000D+00 -0.429456D-05  0.000000D+00  0.000000D+00
     37  0.000000D+00  0.361206D-04  0.000000D+00  0.813617D-04  0.000000D+00
     38  0.000000D+00  0.000000D+00  0.000000D+00  0.000000D+00 -0.429456D-05
     39  0.000000D+00 -0.360087D-04 -0.151091D-04 -0.716998D-04  0.000000D+00
     40  0.000000D+00 -0.108365D-03  0.811531D-04 -0.187147D-03  0.000000D+00
     41  0.000000D+00  0.000000D+00  0.000000D+00 -0.181228D-05  0.000000D+00
     42 -0.639583D-05 -0.818784D-02 -0.255612D-02  0.111638D-01  0.000000D+00
     43 -0.818784D-02  0.274103D-01  0.255175D-01 -0.111447D+00  0.000000D+00
     44  0.255612D-02 -0.255175D-01  0.358549D-01  0.650850D-01  0.000000D+00
     45 -0.111638D-01  0.111447D+00  0.650850D-01 -0.233499D+00  0.000000D+00
     46  0.000000D+00  0.000000D+00  0.000000D+00  0.000000D+00  0.507571D-01
     47 -0.223489D-02 -0.150434D-01 -0.132090D-02  0.157106D-02  0.000000D+00
     48  0.000000D+00 -0.166585D-02  0.607745D-03  0.279861D-02  0.000000D+00
     49 -0.166585D-02 -0.160359D-01  0.261575D-02  0.120453D-01  0.000000D+00
     50 -0.607745D-03 -0.261575D-02 -0.394030D-02  0.299770D-03  0.000000D+00
     51 -0.279861D-02 -0.120453D-01  0.299770D-03 -0.262499D-02  0.000000D+00
     52  0.000000D+00  0.000000D+00  0.000000D+00  0.000000D+00 -0.400540D-02
     53 -0.765003D-03 -0.936445D-02  0.513179D-02  0.736588D-02  0.000000D+00
     54 -0.107868D-03 -0.305714D-02  0.228507D-03  0.411866D-02  0.000000D+00
     55 -0.227575D-04 -0.840812D-02 -0.883239D-02 -0.797174D-02  0.000000D+00
     56 -0.840812D-02  0.406645D-01  0.103748D+00  0.936390D-01  0.000000D+00
     57  0.883239D-02 -0.103748D+00 -0.130849D+00 -0.179215D+00  0.000000D+00
     58  0.797174D-02 -0.936390D-01 -0.179215D+00 -0.940378D-01  0.000000D+00
     59  0.000000D+00  0.000000D+00  0.000000D+00  0.000000D+00  0.677143D-01
     60 -0.227378D-02 -0.150128D-01 -0.140426D-02 -0.400055D-03  0.000000D+00
                6             7             8             9            10
      6  0.158911D+02
      7 -0.858900D-01  0.472250D+00
      8  0.000000D+00  0.000000D+00  0.147773D+01
      9  0.000000D+00  0.000000D+00  0.000000D+00  0.147773D+01
     10  0.000000D+00  0.000000D+00  0.000000D+00  0.000000D+00  0.147773D+01
     11 -0.316269D-04 -0.842909D-02  0.218135D-02 -0.115287D-01  0.000000D+00
     12 -0.842909D-02  0.446381D-01 -0.273521D-01  0.144558D+00  0.000000D+00
     13 -0.218135D-02  0.273521D-01  0.599440D-01  0.690792D-01  0.000000D+00
     14  0.115287D-01 -0.144558D+00  0.690792D-01 -0.292075D+00  0.000000D+00
     15  0.000000D+00  0.000000D+00  0.000000D+00  0.000000D+00  0.730146D-01
     16  0.000000D+00 -0.204093D-02 -0.106247D-02 -0.311389D-02  0.000000D+00
     17 -0.204093D-02 -0.170258D-01 -0.363694D-02 -0.106592D-01  0.000000D+00
     18  0.106247D-02  0.363694D-02 -0.433264D-02 -0.103946D-02  0.000000D+00
     19  0.311389D-02  0.106592D-01 -0.103946D-02 -0.702443D-02  0.000000D+00
     20  0.000000D+00  0.000000D+00  0.000000D+00  0.000000D+00 -0.397798D-02
     21  0.000000D+00 -0.723441D-03 -0.114178D-02 -0.987304D-03  0.000000D+00
     22 -0.723441D-03 -0.117290D-01 -0.938733D-02 -0.811730D-02  0.000000D+00
     23  0.114178D-02  0.938733D-02  0.280384D-02  0.527401D-02  0.000000D+00
     24  0.987304D-03  0.811730D-02  0.527401D-02  0.126514D-02  0.000000D+00
     25  0.000000D+00  0.000000D+00  0.000000D+00  0.000000D+00 -0.329534D-02
     26 -0.107809D-01  0.104392D+00 -0.196227D+00 -0.165196D+00  0.000000D+00
     27 -0.230172D-02 -0.149805D-01  0.609256D-03 -0.812579D-03  0.000000D+00
     28 -0.263627D-04 -0.137915D-02 -0.157067D-02 -0.134802D-02  0.000000D+00
     29  0.000000D+00 -0.997533D-05 -0.390862D-05 -0.321376D-04  0.000000D+00
     30 -0.997533D-05 -0.160263D-02 -0.318912D-03 -0.262217D-02  0.000000D+00
     31  0.390862D-05  0.318912D-03 -0.391685D-03  0.530012D-03  0.000000D+00
     32  0.321376D-04  0.262217D-02  0.530012D-03  0.390174D-02  0.000000D+00
     33  0.000000D+00  0.000000D+00  0.000000D+00  0.000000D+00 -0.456146D-03
     34  0.000000D+00  0.000000D+00  0.000000D+00  0.000000D+00  0.000000D+00
     35  0.000000D+00 -0.465912D-04 -0.277090D-04 -0.999478D-04  0.000000D+00
     36  0.000000D+00  0.277090D-04  0.324669D-05  0.590719D-04  0.000000D+00
     37  0.000000D+00  0.999478D-04  0.590719D-04  0.199946D-03  0.000000D+00
     38  0.000000D+00  0.000000D+00  0.000000D+00  0.000000D+00 -0.131301D-04
     39  0.000000D+00 -0.374099D-04 -0.349780D-04 -0.673959D-04  0.000000D+00
     40 -0.146807D-04 -0.993408D-03  0.234875D-03 -0.152639D-02  0.000000D+00
     41  0.000000D+00 -0.356246D-05 -0.138734D-05 -0.819708D-05  0.000000D+00
     42  0.000000D+00 -0.155035D-02 -0.176938D-02  0.206709D-02  0.000000D+00
     43 -0.155035D-02 -0.156657D-01 -0.816630D-02  0.954033D-02  0.000000D+00
     44  0.176938D-02  0.816630D-02 -0.278809D-02 -0.139652D-02  0.000000D+00
     45 -0.206709D-02 -0.954033D-02 -0.139652D-02 -0.235199D-02  0.000000D+00
     46  0.000000D+00  0.000000D+00  0.000000D+00  0.000000D+00 -0.398348D-02
     47 -0.118655D-03 -0.322760D-02 -0.338671D-02  0.267482D-02  0.000000D+00
     48  0.000000D+00 -0.284617D-03 -0.177303D-03  0.662432D-03  0.000000D+00
     49 -0.284617D-03 -0.781166D-02 -0.253213D-02  0.946041D-02  0.000000D+00
     50  0.177303D-03  0.253213D-02 -0.148233D-02 -0.293191D-02  0.000000D+00
     51 -0.662432D-03 -0.946041D-02 -0.293191D-02  0.868698D-02  0.000000D+00
     52  0.000000D+00  0.000000D+00  0.000000D+00  0.000000D+00 -0.226707D-02
     53 -0.775247D-03 -0.943476D-02  0.921746D-03  0.895456D-02  0.000000D+00
     54 -0.913060D-05 -0.761844D-03 -0.332057D-03  0.116994D-02  0.000000D+00
     55  0.000000D+00 -0.218982D-02 -0.338134D-02 -0.655945D-03  0.000000D+00
     56 -0.218982D-02 -0.173377D-01 -0.105235D-01 -0.204144D-02  0.000000D+00
     57  0.338134D-02  0.105235D-01 -0.919959D-02 -0.102274D-02  0.000000D+00
     58  0.655945D-03  0.204144D-02 -0.102274D-02 -0.412583D-02  0.000000D+00
     59  0.000000D+00  0.000000D+00  0.000000D+00  0.000000D+00 -0.392743D-02
     60 -0.148857D-03 -0.367313D-02 -0.479659D-02 -0.150397D-03  0.000000D+00
               11            12            13            14            15
     11  0.158911D+02
     12 -0.858900D-01  0.472250D+00
     13  0.000000D+00  0.000000D+00  0.147773D+01
     14  0.000000D+00  0.000000D+00  0.000000D+00  0.147773D+01
     15  0.000000D+00  0.000000D+00  0.000000D+00  0.000000D+00  0.147773D+01
     16 -0.227575D-04 -0.840812D-02 -0.883239D-02 -0.797174D-02  0.000000D+00
     17 -0.840812D-02  0.406645D-01  0.103748D+00  0.936390D-01  0.000000D+00
     18  0.883239D-02 -0.103748D+00 -0.130849D+00 -0.179215D+00  0.000000D+00
     19  0.797174D-02 -0.936390D-01 -0.179215D+00 -0.940378D-01  0.000000D+00
     20  0.000000D+00  0.000000D+00  0.000000D+00  0.000000D+00  0.677143D-01
     21  0.000000D+00 -0.218982D-02 -0.338134D-02 -0.655945D-03  0.000000D+00
     22 -0.218982D-02 -0.173377D-01 -0.105235D-01 -0.204144D-02  0.000000D+00
     23  0.338134D-02  0.105235D-01 -0.919959D-02 -0.102274D-02  0.000000D+00
     24  0.655945D-03  0.204144D-02 -0.102274D-02 -0.412583D-02  0.000000D+00
     25  0.000000D+00  0.000000D+00  0.000000D+00  0.000000D+00 -0.392743D-02
     26 -0.231036D-02 -0.149687D-01  0.234152D-03  0.843036D-03  0.000000D+00
     27 -0.108141D-01  0.104056D+00 -0.242052D+00  0.829415D-01  0.000000D+00
     28 -0.146823D-03 -0.364441D-02 -0.448308D-02 -0.162476D-02  0.000000D+00
     29  0.000000D+00 -0.176406D-02 -0.854209D-03 -0.285590D-02  0.000000D+00
     30 -0.176406D-02 -0.163252D-01 -0.346503D-02 -0.115847D-01  0.000000D+00
     31  0.854209D-03  0.346503D-02 -0.399370D-02  0.627396D-04  0.000000D+00
     32  0.285590D-02  0.115847D-01  0.627396D-04 -0.380271D-02  0.000000D+00
     33  0.000000D+00  0.000000D+00  0.000000D+00  0.000000D+00 -0.401247D-02
     34  0.000000D+00 -0.117221D-04 -0.158552D-04 -0.341468D-04  0.000000D+00
     35 -0.117221D-04 -0.173240D-02 -0.119171D-02 -0.256654D-02  0.000000D+00
     36  0.158552D-04  0.119171D-02  0.339258D-03  0.179413D-02  0.000000D+00
     37  0.341468D-04  0.256654D-02  0.179413D-02  0.337016D-02  0.000000D+00
     38  0.000000D+00  0.000000D+00  0.000000D+00  0.000000D+00 -0.493796D-03
     39 -0.676765D-05 -0.644598D-03 -0.661029D-03 -0.810069D-03  0.000000D+00
     40 -0.112977D-02 -0.116084D-01  0.124591D-02 -0.920257D-02  0.000000D+00
     41 -0.101874D-05 -0.224468D-03 -0.107480D-03 -0.384426D-03  0.000000D+00
     42  0.000000D+00 -0.865973D-05 -0.142249D-04  0.245316D-04  0.000000D+00
     43 -0.865973D-05 -0.149681D-02 -0.124720D-02  0.215085D-02  0.000000D+00
     44  0.142249D-04  0.124720D-02  0.629582D-03 -0.181956D-02  0.000000D+00
     45 -0.245316D-04 -0.215085D-02 -0.181956D-02  0.271241D-02  0.000000D+00
     46  0.000000D+00  0.000000D+00  0.000000D+00  0.000000D+00 -0.425507D-03
     47 -0.100512D-05 -0.222792D-03 -0.256369D-03  0.302377D-03  0.000000D+00
     48  0.000000D+00  0.000000D+00  0.000000D+00  0.000000D+00  0.000000D+00
     49  0.000000D+00 -0.257535D-03 -0.119222D-03  0.491021D-03  0.000000D+00
     50  0.000000D+00  0.119222D-03 -0.169315D-04 -0.227360D-03  0.000000D+00
     51  0.000000D+00 -0.491021D-03 -0.227360D-03  0.864256D-03  0.000000D+00
     52  0.000000D+00  0.000000D+00  0.000000D+00  0.000000D+00 -0.721356D-04
     53 -0.808014D-05 -0.711603D-03  0.809629D-05  0.114342D-02  0.000000D+00
     54  0.000000D+00 -0.132036D-04 -0.719433D-05  0.277088D-04  0.000000D+00
     55  0.000000D+00 -0.750744D-03 -0.147064D-02  0.507097D-03  0.000000D+00
     56 -0.750744D-03 -0.119096D-01 -0.118034D-01  0.406997D-02  0.000000D+00
     57  0.147064D-02  0.118034D-01  0.603100D-02 -0.323039D-02  0.000000D+00
     58 -0.507097D-03 -0.406997D-02 -0.323039D-02 -0.222360D-02  0.000000D+00
     59  0.000000D+00  0.000000D+00  0.000000D+00  0.000000D+00 -0.333749D-02
     60 -0.274283D-04 -0.141018D-02 -0.199614D-02  0.687087D-03  0.000000D+00
               16            17            18            19            20
     16  0.158911D+02
     17 -0.858900D-01  0.472250D+00
     18  0.000000D+00  0.000000D+00  0.147773D+01
     19  0.000000D+00  0.000000D+00  0.000000D+00  0.147773D+01
     20  0.000000D+00  0.000000D+00  0.000000D+00  0.000000D+00  0.147773D+01
     21 -0.232445D-04 -0.841008D-02 -0.111646D-01  0.409511D-02  0.000000D+00
     22 -0.841008D-02  0.409130D-01  0.131645D+00 -0.482863D-01  0.000000D+00
     23  0.111646D-01 -0.131645D+00 -0.250535D+00  0.116852D+00  0.000000D+00
     24 -0.409511D-02  0.482863D-01  0.116852D+00  0.251822D-01  0.000000D+00
     25  0.000000D+00  0.000000D+00  0.000000D+00  0.000000D+00  0.680428D-01
     26 -0.140141D-03 -0.354880D-02  0.221149D-02  0.410888D-02  0.000000D+00
     27 -0.227378D-02 -0.150128D-01  0.140426D-02  0.400055D-03  0.000000D+00
     28 -0.225903D-02 -0.150264D-01 -0.168001D-02 -0.168092D-03  0.000000D+00
     29 -0.639583D-05 -0.818784D-02  0.255612D-02 -0.111638D-01  0.000000D+00
     30 -0.818784D-02  0.274103D-01 -0.255175D-01  0.111447D+00  0.000000D+00
     31 -0.255612D-02  0.255175D-01  0.358549D-01  0.650850D-01  0.000000D+00
     32  0.111638D-01 -0.111447D+00  0.650850D-01 -0.233499D+00  0.000000D+00
     33  0.000000D+00  0.000000D+00  0.000000D+00  0.000000D+00  0.507571D-01
     34  0.000000D+00 -0.166585D-02 -0.607745D-03 -0.279861D-02  0.000000D+00
     35 -0.166585D-02 -0.160359D-01 -0.261575D-02 -0.120453D-01  0.000000D+00
     36  0.607745D-03  0.261575D-02 -0.394030D-02  0.299770D-03  0.000000D+00
     37  0.279861D-02  0.120453D-01  0.299770D-03 -0.262499D-02  0.000000D+00
     38  0.000000D+00  0.000000D+00  0.000000D+00  0.000000D+00 -0.400540D-02
     39 -0.765003D-03 -0.936445D-02 -0.513179D-02 -0.736588D-02  0.000000D+00
     40 -0.223489D-02 -0.150434D-01  0.132090D-02 -0.157106D-02  0.000000D+00
     41 -0.107868D-03 -0.305714D-02 -0.228507D-03 -0.411866D-02  0.000000D+00
     42  0.000000D+00  0.000000D+00  0.000000D+00  0.169535D-05  0.000000D+00
     43  0.000000D+00 -0.356088D-03 -0.135920D-03  0.666202D-03  0.000000D+00
     44  0.000000D+00  0.135920D-03 -0.477841D-04 -0.254925D-03  0.000000D+00
     45 -0.169535D-05 -0.666202D-03 -0.254925D-03  0.114971D-02  0.000000D+00
     46  0.000000D+00  0.000000D+00  0.000000D+00  0.000000D+00 -0.997942D-04
     47  0.000000D+00 -0.108365D-03 -0.811531D-04  0.187147D-03  0.000000D+00
     48  0.000000D+00  0.000000D+00  0.000000D+00  0.000000D+00  0.000000D+00
     49  0.000000D+00 -0.151227D-04  0.000000D+00  0.361206D-04  0.000000D+00
     50  0.000000D+00  0.000000D+00 -0.429456D-05  0.000000D+00  0.000000D+00
     51  0.000000D+00 -0.361206D-04  0.000000D+00  0.813617D-04  0.000000D+00
     52  0.000000D+00  0.000000D+00  0.000000D+00  0.000000D+00 -0.429456D-05
[...]
    19  C   -0.000001  -0.000013   0.000033   0.000004  -0.000001   0.000000
    20  H    0.000000   0.000029   0.000000   0.000000   0.000000   0.000000
             13         14         15         16         17         18
     1  C    0.000000  -0.020720  -0.000143  -0.003263   0.000014   0.000004
     2  C    0.000000  -0.000730   0.000001  -0.000386   0.000046   0.000000
     3  C    0.000000   0.000033   0.000000   0.000004  -0.000001   0.000000
     4  C    0.000004   0.000006   0.000000   0.000000   0.000000   0.000000
     5  C    0.000000   0.000035   0.000000   0.000001   0.000000   0.000000
     6  H    0.000000   0.000021   0.000000  -0.000007   0.000018   0.000000
     7  H    0.000000   0.000000   0.000000   0.000000   0.000000   0.000000
     8  H    0.000000   0.000000   0.000000   0.000000   0.000000   0.000000
     9  C   -0.000154   0.000000   0.000000   0.000000   0.000000   0.000000
    10  C   -0.001648   0.000000   0.000000   0.000000   0.000000   0.000000
    11  H   -0.000026   0.000000   0.000000   0.000000   0.000000   0.000000
    12  H    0.000052   0.000000   0.000000   0.000000   0.000000   0.000000
    13  H   -0.012987   0.000000   0.000000   0.000000   0.000000   0.000000
    14  C    0.000000  -0.058227   0.000741   0.024039  -0.000126  -0.000154
    15  H    0.000000   0.000741   0.001623  -0.000331   0.000001   0.000052
    16  C    0.000000   0.024039  -0.000331   0.310592  -0.001593  -0.001648
    17  H    0.000000  -0.000126   0.000001  -0.001593  -0.012695  -0.000026
    18  H    0.000000  -0.000154   0.000052  -0.001648  -0.000026  -0.012987
    19  C    0.000000  -0.000743   0.000032  -0.000042   0.000000   0.000000
    20  H    0.000000   0.000031  -0.000001   0.000000   0.000000   0.000000
             19         20
     1  C    0.017217  -0.000165
     2  C    0.000367   0.000004
     3  C   -0.000500  -0.000001
     4  C   -0.001771   0.000003
     5  C   -0.011975  -0.000013
     6  H    0.000003   0.000000
     7  H   -0.000001   0.000000
     8  H   -0.000013   0.000029
     9  C    0.000033   0.000000
    10  C    0.000004   0.000000
    11  H   -0.000001   0.000000
    12  H    0.000000   0.000000
    13  H    0.000000   0.000000
    14  C   -0.000743   0.000031
    15  H    0.000032  -0.000001
    16  C   -0.000042   0.000000
    17  H    0.000000   0.000000
    18  H    0.000000   0.000000
    19  C    0.016594   0.000118
    20  H    0.000118  -0.001262
 Mulliken atomic spin densities:
              1
     1  C    0.213500
     2  C    0.025537
     3  C    0.019323
     4  C    0.213500
     5  C    0.025537
     6  H   -0.001528
     7  H   -0.001258
     8  H   -0.001528
     9  C   -0.055795
    10  C    0.327367
    11  H   -0.014360
    12  H    0.001974
    13  H   -0.014758
    14  C   -0.055795
    15  H    0.001974
    16  C    0.327367
    17  H   -0.014360
    18  H   -0.014758
    19  C    0.019323
    20  H   -0.001258
 Sum of Mulliken spin densities=   1.00000
 N-N= 4.458993288870D+02 E-N=-1.761452482247D+03  KE= 3.748927361550D+02
 Symmetry AG   KE= 1.816316630097D+02
 Symmetry BG   KE= 6.418598876063D+00
 Symmetry AU   KE= 4.703220519287D+00
 Symmetry BU   KE= 1.821392537500D+02
 Orbital energies and kinetic energies (alpha):
                           1         2
       1  (BU)--O     -10.25358  15.58511
       2  (AG)--O     -10.25354  15.58664
       3  (BU)--O     -10.21937  15.57973
       4  (AG)--O     -10.21933  15.57945
       5  (BU)--O     -10.21781  15.59384
       6  (AG)--O     -10.21780  15.58854
       7  (BU)--O     -10.21779  15.59137
       8  (AG)--O     -10.21769  15.60158
       9  (BU)--O     -10.21538  15.59361
      10  (AG)--O     -10.21538  15.59362
      11  (AG)--O      -1.02076   1.39399
      12  (BU)--O      -0.96195   1.47178
      13  (AG)--O      -0.92167   1.48054
      14  (BU)--O      -0.89903   1.52498
      15  (BU)--O      -0.87688   1.59069
      16  (AG)--O      -0.78725   1.37449
      17  (AG)--O      -0.75962   1.38623
      18  (BU)--O      -0.72275   1.36457
      19  (AG)--O      -0.70380   1.18201
      20  (AG)--O      -0.65031   1.05514
      21  (BU)--O      -0.63513   1.09744
      22  (BU)--O      -0.60374   1.30022
      23  (BU)--O      -0.59604   1.14039
      24  (AG)--O      -0.58792   1.13002
      25  (BU)--O      -0.56837   1.15748
      26  (BU)--O      -0.55243   1.31262
      27  (AG)--O      -0.53736   1.20529
      28  (AU)--O      -0.53365   1.06552
      29  (BU)--O      -0.50120   1.18240
      30  (AG)--O      -0.49297   1.37288
      31  (AG)--O      -0.48269   1.30278
      32  (BG)--O      -0.47370   1.18411
      33  (AU)--O      -0.41796   1.28520
      34  (BG)--O      -0.39417   1.32258
      35  (BG)--O      -0.36976   1.40644
      36  (AU)--V      -0.17751   1.70291
      37  (AU)--V      -0.11124   1.81829
      38  (BG)--V      -0.09444   1.83410
      39  (AU)--V      -0.02963   2.00930
      40  (BG)--V       0.06019   2.20948
      41  (AG)--V       0.13950   2.35590
      42  (BU)--V       0.14907   2.17078
      43  (BU)--V       0.17923   2.60724
      44  (AG)--V       0.19662   2.21855
      45  (AG)--V       0.21542   2.94176
      46  (BU)--V       0.22102   2.75556
      47  (AG)--V       0.23990   3.09487
      48  (BU)--V       0.24157   2.26278
      49  (BU)--V       0.26213   2.76488
      50  (AG)--V       0.28528   2.79696
      51  (AG)--V       0.32050   2.88008
      52  (BU)--V       0.34375   2.84746
      53  (AG)--V       0.37961   2.64245
      54  (BU)--V       0.39898   3.20946
      55  (BU)--V       0.42556   2.91300
      56  (AG)--V       0.43815   2.92753
      57  (AG)--V       0.47767   3.13638
      58  (BU)--V       0.50598   3.40108
      59  (AG)--V       0.56819   3.42507
      60  (BU)--V       0.58203   3.46361
 Orbital energies and kinetic energies (beta):
                           1         2
       1  (BU)--O     -10.25059  15.58815
       2  (AG)--O     -10.25055  15.58963
       3  (BU)--O     -10.21906  15.57994
       4  (AG)--O     -10.21902  15.57947
       5  (BU)--O     -10.21863  15.58983
       6  (AG)--O     -10.21863  15.58982
       7  (BU)--O     -10.21759  15.59773
       8  (AG)--O     -10.21749  15.60281
       9  (AG)--O     -10.21092  15.59593
      10  (BU)--O     -10.21092  15.59592
      11  (AG)--O      -1.01470   1.39075
      12  (BU)--O      -0.95450   1.46455
      13  (AG)--O      -0.91381   1.47352
      14  (BU)--O      -0.89740   1.52598
      15  (BU)--O      -0.86467   1.58016
      16  (AG)--O      -0.78194   1.35408
      17  (AG)--O      -0.75557   1.38933
      18  (BU)--O      -0.71884   1.34897
      19  (AG)--O      -0.70067   1.16705
      20  (AG)--O      -0.64811   1.05801
      21  (BU)--O      -0.63306   1.09824
      22  (BU)--O      -0.60100   1.29785
      23  (BU)--O      -0.59325   1.13705
      24  (AG)--O      -0.58503   1.13152
      25  (BU)--O      -0.56766   1.15352
      26  (BU)--O      -0.54949   1.31801
      27  (AG)--O      -0.53540   1.20325
      28  (AU)--O      -0.51735   1.06386
      29  (BU)--O      -0.49959   1.17711
      30  (AG)--O      -0.49147   1.37168
      31  (AG)--O      -0.48112   1.30162
      32  (BG)--O      -0.45083   1.18290
      33  (BG)--O      -0.39103   1.32257
      34  (AU)--O      -0.38884   1.28864
      35  (BG)--V      -0.30053   1.40992
      36  (AU)--V      -0.14705   1.70146
      37  (AU)--V      -0.10317   1.81836
      38  (BG)--V      -0.07374   1.83037
      39  (AU)--V      -0.00823   2.00889
      40  (BG)--V       0.07640   2.21096
      41  (AG)--V       0.14194   2.33333
      42  (BU)--V       0.15096   2.14468
      43  (BU)--V       0.18110   2.61489
      44  (AG)--V       0.19811   2.20349
      45  (AG)--V       0.22105   2.96426
      46  (BU)--V       0.22637   2.78127
      47  (BU)--V       0.24293   2.25298
      48  (AG)--V       0.24659   3.13437
      49  (BU)--V       0.26928   2.76308
      50  (AG)--V       0.29046   2.77878
      51  (AG)--V       0.32424   2.88761
      52  (BU)--V       0.34722   2.85292
      53  (AG)--V       0.38108   2.64389
      54  (BU)--V       0.40112   3.20903
      55  (BU)--V       0.42989   2.92534
      56  (AG)--V       0.44071   2.93394
      57  (AG)--V       0.48146   3.14403
      58  (BU)--V       0.51138   3.41431
      59  (AG)--V       0.57192   3.43058
      60  (BU)--V       0.58520   3.47055
 Total kinetic energy from orbitals= 3.748927361550D+02
                          Isotropic Fermi Contact Couplings
        Atom                 a.u.       MegaHertz       Gauss      10(-4) cm-1
     1  C(13)              0.02557      28.74505      10.25695       9.58832
     2  C(13)             -0.00085      -0.95335      -0.34018      -0.31800
     3  C(13)             -0.00179      -2.01669      -0.71961      -0.67270
     4  C(13)              0.02557      28.74505      10.25695       9.58832
     5  C(13)             -0.00085      -0.95335      -0.34018      -0.31800
     6  H(1)              -0.00061      -2.70539      -0.96535      -0.90242
     7  H(1)              -0.00051      -2.26376      -0.80777      -0.75511
     8  H(1)              -0.00061      -2.70539      -0.96535      -0.90242
     9  C(13)             -0.01547     -17.38777      -6.20439      -5.79994
    10  C(13)              0.03898      43.82536      15.63798      14.61857
    11  H(1)              -0.00507     -22.65201      -8.08280      -7.55590
    12  H(1)               0.00064       2.84599       1.01552       0.94932
    13  H(1)              -0.00521     -23.30132      -8.31449      -7.77248
    14  C(13)             -0.01547     -17.38777      -6.20439      -5.79994
    15  H(1)               0.00064       2.84599       1.01552       0.94932
    16  C(13)              0.03898      43.82536      15.63798      14.61857
    17  H(1)              -0.00507     -22.65201      -8.08280      -7.55590
    18  H(1)              -0.00521     -23.30132      -8.31449      -7.77248
    19  C(13)             -0.00179      -2.01669      -0.71961      -0.67270
    20  H(1)              -0.00051      -2.26376      -0.80777      -0.75511
 --------------------------------------------------------
       Center         ----  Spin Dipole Couplings  ----
                      3XX-RR        3YY-RR        3ZZ-RR
 --------------------------------------------------------
     1   Atom       -0.113327     -0.110184      0.223511
     2   Atom       -0.012158     -0.017719      0.029876
     3   Atom       -0.011097     -0.012806      0.023902
     4   Atom       -0.113327     -0.110184      0.223511
     5   Atom       -0.012158     -0.017719      0.029876
     6   Atom        0.005610     -0.000560     -0.005050
     7   Atom        0.007304     -0.003284     -0.004020
     8   Atom        0.005610     -0.000560     -0.005050
     9   Atom        0.014916      0.030188     -0.045104
    10   Atom       -0.168714     -0.164700      0.333414
    11   Atom        0.029727     -0.020755     -0.008972
    12   Atom        0.002102      0.002379     -0.004481
    13   Atom       -0.019478      0.027759     -0.008281
    14   Atom        0.014916      0.030188     -0.045104
    15   Atom        0.002102      0.002379     -0.004481
    16   Atom       -0.168714     -0.164700      0.333414
    17   Atom        0.029727     -0.020755     -0.008972
    18   Atom       -0.019478      0.027759     -0.008281
    19   Atom       -0.011097     -0.012806      0.023902
    20   Atom        0.007304     -0.003284     -0.004020
 --------------------------------------------------------
                        XY            XZ            YZ
 --------------------------------------------------------
     1   Atom        0.002742      0.000000      0.000000
     2   Atom       -0.002503      0.000000      0.000000
     3   Atom        0.005019      0.000000      0.000000
     4   Atom        0.002742      0.000000      0.000000
     5   Atom       -0.002503      0.000000      0.000000
     6   Atom        0.002278      0.000000      0.000000
     7   Atom        0.000007      0.000000      0.000000
     8   Atom        0.002278      0.000000      0.000000
     9   Atom        0.012938      0.000000      0.000000
    10   Atom       -0.001128      0.000000      0.000000
    11   Atom       -0.005515      0.000000      0.000000
    12   Atom        0.003022      0.000000      0.000000
    13   Atom       -0.016083      0.000000      0.000000
    14   Atom        0.012938      0.000000      0.000000
    15   Atom        0.003022      0.000000      0.000000
    16   Atom       -0.001128      0.000000      0.000000
    17   Atom       -0.005515      0.000000      0.000000
    18   Atom       -0.016083      0.000000      0.000000
    19   Atom        0.005019      0.000000      0.000000
    20   Atom        0.000007      0.000000      0.000000
 --------------------------------------------------------


 ---------------------------------------------------------------------------------
              Anisotropic Spin Dipole Couplings in Principal Axis System
 ---------------------------------------------------------------------------------

       Atom             a.u.   MegaHertz   Gauss  10(-4) cm-1        Axes

              Baa    -0.1149   -15.421    -5.502    -5.144  0.8652 -0.5014  0.0000
     1 C(13)  Bbb    -0.1086   -14.572    -5.200    -4.861  0.5014  0.8652  0.0000
              Bcc     0.2235    29.993    10.702    10.005  0.0000  0.0000  1.0000
 
              Baa    -0.0187    -2.507    -0.894    -0.836  0.3583  0.9336  0.0000
     2 C(13)  Bbb    -0.0112    -1.503    -0.536    -0.501  0.9336 -0.3583  0.0000
              Bcc     0.0299     4.009     1.431     1.337  0.0000  0.0000  1.0000
 
              Baa    -0.0170    -2.287    -0.816    -0.763 -0.6450  0.7641  0.0000
     3 C(13)  Bbb    -0.0069    -0.921    -0.328    -0.307  0.7641  0.6450  0.0000
              Bcc     0.0239     3.207     1.145     1.070  0.0000  0.0000  1.0000
 
              Baa    -0.1149   -15.421    -5.502    -5.144  0.8652 -0.5014  0.0000
     4 C(13)  Bbb    -0.1086   -14.572    -5.200    -4.861  0.5014  0.8652  0.0000
              Bcc     0.2235    29.993    10.702    10.005  0.0000  0.0000  1.0000
 
              Baa    -0.0187    -2.507    -0.894    -0.836  0.3583  0.9336  0.0000
     5 C(13)  Bbb    -0.0112    -1.503    -0.536    -0.501  0.9336 -0.3583  0.0000
              Bcc     0.0299     4.009     1.431     1.337  0.0000  0.0000  1.0000
 
              Baa    -0.0050    -2.694    -0.961    -0.899  0.0000  0.0000  1.0000
     6 H(1)   Bbb    -0.0013    -0.699    -0.249    -0.233 -0.3127  0.9498  0.0000
              Bcc     0.0064     3.394     1.211     1.132  0.9498  0.3127  0.0000
 
              Baa    -0.0040    -2.145    -0.765    -0.715  0.0000  0.0000  1.0000
     7 H(1)   Bbb    -0.0033    -1.752    -0.625    -0.584 -0.0007  1.0000  0.0000
              Bcc     0.0073     3.897     1.391     1.300  1.0000  0.0007  0.0000
 
              Baa    -0.0050    -2.694    -0.961    -0.899  0.0000  0.0000  1.0000
     8 H(1)   Bbb    -0.0013    -0.699    -0.249    -0.233 -0.3127  0.9498  0.0000
              Bcc     0.0064     3.394     1.211     1.132  0.9498  0.3127  0.0000
 
              Baa    -0.0451    -6.053    -2.160    -2.019  0.0000  0.0000  1.0000
     9 C(13)  Bbb     0.0075     1.010     0.360     0.337  0.8684 -0.4958  0.0000
              Bcc     0.0376     5.042     1.799     1.682  0.4958  0.8684  0.0000
 
              Baa    -0.1690   -22.679    -8.093    -7.565  0.9674  0.2533  0.0000
    10 C(13)  Bbb    -0.1644   -22.062    -7.872    -7.359 -0.2533  0.9674  0.0000
              Bcc     0.3334    44.741    15.965    14.924  0.0000  0.0000  1.0000
 
              Baa    -0.0214   -11.392    -4.065    -3.800  0.1074  0.9942  0.0000
    11 H(1)   Bbb    -0.0090    -4.787    -1.708    -1.597  0.0000  0.0000  1.0000
              Bcc     0.0303    16.179     5.773     5.397  0.9942 -0.1074  0.0000
 
              Baa    -0.0045    -2.391    -0.853    -0.797  0.0000  0.0000  1.0000
    12 H(1)   Bbb    -0.0008    -0.419    -0.149    -0.140  0.7231 -0.6907  0.0000
              Bcc     0.0053     2.809     1.002     0.937  0.6907  0.7231  0.0000
 
              Baa    -0.0244   -13.037    -4.652    -4.349  0.9557  0.2945  0.0000
    13 H(1)   Bbb    -0.0083    -4.419    -1.577    -1.474  0.0000  0.0000  1.0000
              Bcc     0.0327    17.455     6.228     5.822 -0.2945  0.9557  0.0000
 
              Baa    -0.0451    -6.053    -2.160    -2.019  0.0000  0.0000  1.0000
    14 C(13)  Bbb     0.0075     1.010     0.360     0.337  0.8684 -0.4958  0.0000
              Bcc     0.0376     5.042     1.799     1.682  0.4958  0.8684  0.0000
 
              Baa    -0.0045    -2.391    -0.853    -0.797  0.0000  0.0000  1.0000
    15 H(1)   Bbb    -0.0008    -0.419    -0.149    -0.140  0.7231 -0.6907  0.0000
              Bcc     0.0053     2.809     1.002     0.937  0.6907  0.7231  0.0000
 
              Baa    -0.1690   -22.679    -8.093    -7.565  0.9674  0.2533  0.0000
    16 C(13)  Bbb    -0.1644   -22.062    -7.872    -7.359 -0.2533  0.9674  0.0000
              Bcc     0.3334    44.741    15.965    14.924  0.0000  0.0000  1.0000
 
              Baa    -0.0214   -11.392    -4.065    -3.800  0.1074  0.9942  0.0000
    17 H(1)   Bbb    -0.0090    -4.787    -1.708    -1.597  0.0000  0.0000  1.0000
              Bcc     0.0303    16.179     5.773     5.397  0.9942 -0.1074  0.0000
 
              Baa    -0.0244   -13.037    -4.652    -4.349  0.9557  0.2945  0.0000
    18 H(1)   Bbb    -0.0083    -4.419    -1.577    -1.474  0.0000  0.0000  1.0000
              Bcc     0.0327    17.455     6.228     5.822 -0.2945  0.9557  0.0000
 
              Baa    -0.0170    -2.287    -0.816    -0.763 -0.6450  0.7641  0.0000
    19 C(13)  Bbb    -0.0069    -0.921    -0.328    -0.307  0.7641  0.6450  0.0000
              Bcc     0.0239     3.207     1.145     1.070  0.0000  0.0000  1.0000
 
              Baa    -0.0040    -2.145    -0.765    -0.715  0.0000  0.0000  1.0000
    20 H(1)   Bbb    -0.0033    -1.752    -0.625    -0.584 -0.0007  1.0000  0.0000
              Bcc     0.0073     3.897     1.391     1.300  1.0000  0.0007  0.0000
 

 ---------------------------------------------------------------------------------

 No NMR shielding tensors so no spin-rotation constants.
 Leave Link  601 at Mon Aug 28 16:45:18 2006, MaxMem=   13107200 cpu:       0.4
 (Enter /home/no228/Tools/g03/l9999.exe)

 Test job not archived.
 1\1\GINC-SANDWI\SP\UB3LYP\STO-3G\C10H10(1+,2)\NO228\28-Aug-2006\0\\#P 
 UB3LYP/STO-3G POP=FULL IOP(3/33=1,3/36=-1)\\Notitle\\1,2\C\C,1,1.42115
 359\C,2,1.4021734,1,120.85704891\C,3,1.42244766,2,121.35373441,1,0.,0\
 C,4,1.42115359,3,117.78921668,2,0.,0\H,2,1.09761941,1,119.76455629,5,1
 80.,0\H,3,1.09866227,2,119.62884041,1,180.,0\H,5,1.09761941,4,119.7645
 5629,3,180.,0\C,4,1.49760663,3,119.17161712,2,180.,0\C,9,1.34426798,4,
 126.5934113,3,180.,0\H,10,1.09599008,9,122.64703396,4,0.,0\H,9,1.10040
 656,4,114.43382075,3,0.,0\H,10,1.09622825,9,121.22829314,4,180.,0\C,1,
 1.49760663,2,123.0391662,3,180.,0\H,14,1.10040656,1,114.43382075,2,180
 .,0\C,14,1.34426798,1,126.5934113,2,0.,0\H,16,1.09599008,14,122.647033
 96,1,0.,0\H,16,1.09622825,14,121.22829314,1,180.,0\C,5,1.4021734,4,120
 .85704891,3,0.,0\H,19,1.09866227,5,119.62884041,4,180.,0\\Version=x86-
 Linux-G03RevB.04\State=2-BG\HF=-382.0813786\S2=0.777714\S2-1=0.\S2A=0.
 750383\RMSD=1.776e-05\PG=C02H [SGH(C10H10)]\\@


 WE THE UNWILLING
 LED BY THE UNQUALIFIED
 HAVE BEEN DOING THE UNBELIEVABLE SO LONG WITH SO LITTLE
 THAT WE NOW ATTEMPT THE IMPOSSIBLE WITH NOTHING.

                                    -- ANONYMOUS
 Job cpu time:  0 days  0 hours  0 minutes 11.9 seconds.
 File lengths (MBytes):  RWF=     11 Int=      0 D2E=      0 Chk=      8 Scr=      1
 Normal termination of Gaussian 03 at Mon Aug 28 16:45:19 2006.
