 Entering Gaussian System, Link 0=/opt/g03/g03
 Input=edtpbc.com
 Output=edtpbc.log
 Initial command:
 /opt/g03/l1.exe /scratch/ksksat/Gau-1286382.inp -scrdir=/scratch/ksksat/
 Entering Link 1 = /opt/g03/l1.exe PID=   1347690.
  
 Copyright (c) 1988,1990,1992,1993,1995,1998,2003,2004,2007, Gaussian, Inc.
                  All Rights Reserved.
  
 This is the Gaussian(R) 03 program.  It is based on the
 the Gaussian(R) 98 system (copyright 1998, Gaussian, Inc.),
 the Gaussian(R) 94 system (copyright 1995, Gaussian, Inc.),
 the Gaussian 92(TM) system (copyright 1992, Gaussian, Inc.),
 the Gaussian 90(TM) system (copyright 1990, Gaussian, Inc.),
 the Gaussian 88(TM) system (copyright 1988, Gaussian, Inc.),
 the Gaussian 86(TM) system (copyright 1986, Carnegie Mellon
 University), and the Gaussian 82(TM) system (copyright 1983,
 Carnegie Mellon University). Gaussian is a federally registered
 trademark of Gaussian, Inc.
  
 This software contains proprietary and confidential information,
 including trade secrets, belonging to Gaussian, Inc.
  
 This software is provided under written license and may be
 used, copied, transmitted, or stored only in accord with that
 written license.
  
 The following legend is applicable only to US Government
 contracts under FAR:
  
                    RESTRICTED RIGHTS LEGEND
  
 Use, reproduction and disclosure by the US Government is
 subject to restrictions as set forth in subparagraphs (a)
 and (c) of the Commercial Computer Software - Restricted
 Rights clause in FAR 52.227-19.
  
 Gaussian, Inc.
 340 Quinnipiac St., Bldg. 40, Wallingford CT 06492
  
  
 ---------------------------------------------------------------
 Warning -- This program may not be used in any manner that
 competes with the business of Gaussian, Inc. or will provide
 assistance to any competitor of Gaussian, Inc.  The licensee
 of this program is prohibited from giving any competitor of
 Gaussian, Inc. access to this program.  By using this program,
 the user acknowledges that Gaussian, Inc. is engaged in the
 business of creating and licensing software in the field of
 computational chemistry and represents and warrants to the
 licensee that it is not a competitor of Gaussian, Inc. and that
 it will not use this program in any manner prohibited above.
 ---------------------------------------------------------------
  

 Cite this work as:
 Gaussian 03, Revision E.01,
 M. J. Frisch, G. W. Trucks, H. B. Schlegel, G. E. Scuseria, 
 M. A. Robb, J. R. Cheeseman, J. A. Montgomery, Jr., T. Vreven, 
 K. N. Kudin, J. C. Burant, J. M. Millam, S. S. Iyengar, J. Tomasi, 
 V. Barone, B. Mennucci, M. Cossi, G. Scalmani, N. Rega, 
 G. A. Petersson, H. Nakatsuji, M. Hada, M. Ehara, K. Toyota, 
 R. Fukuda, J. Hasegawa, M. Ishida, T. Nakajima, Y. Honda, O. Kitao, 
 H. Nakai, M. Klene, X. Li, J. E. Knox, H. P. Hratchian, J. B. Cross, 
 V. Bakken, C. Adamo, J. Jaramillo, R. Gomperts, R. E. Stratmann, 
 O. Yazyev, A. J. Austin, R. Cammi, C. Pomelli, J. W. Ochterski, 
 P. Y. Ayala, K. Morokuma, G. A. Voth, P. Salvador, J. J. Dannenberg, 
 V. G. Zakrzewski, S. Dapprich, A. D. Daniels, M. C. Strain, 
 O. Farkas, D. K. Malick, A. D. Rabuck, K. Raghavachari, 
 J. B. Foresman, J. V. Ortiz, Q. Cui, A. G. Baboul, S. Clifford, 
 J. Cioslowski, B. B. Stefanov, G. Liu, A. Liashenko, P. Piskorz, 
 I. Komaromi, R. L. Martin, D. J. Fox, T. Keith, M. A. Al-Laham, 
 C. Y. Peng, A. Nanayakkara, M. Challacombe, P. M. W. Gill, 
 B. Johnson, W. Chen, M. W. Wong, C. Gonzalez, and J. A. Pople, 
 Gaussian, Inc., Wallingford CT, 2004.
 
 ******************************************
 Gaussian 03:  IBM64-G03RevE.01 11-Sep-2007
                 1-Jul-2009 
 ******************************************
 %NProcs=8
 Will use up to    8 processors via shared memory.
 %chk=edt.chk
 %mem=8GB
 %nproc=8
 Will use up to    8 processors via shared memory.
 -------------------------------
 #p opt b3lyp/6-31g iop(5/103=4)
 -------------------------------
 1/14=-1,18=20,26=3,38=1/1,3;
 2/9=110,17=6,18=5,40=1/2;
 3/5=1,6=6,11=2,16=1,25=1,30=1,74=-5/1,2,3;
 4//1;
 5/5=2,38=5,103=4/2;
 6/7=2,8=2,9=2,10=2,28=1/1;
 7//1,2,3,16;
 1/14=-1,18=20/3(3);
 2/9=110/2;
 6/7=2,8=2,9=2,10=2,19=2,28=1/1;
 99//99;
 2/9=110/2;
 3/5=1,6=6,11=2,16=1,25=1,30=1,74=-5/1,2,3;
 4/5=5,16=3/1;
 5/5=2,38=5,103=4/2;
 7//1,2,3,16;
 1/14=-1,18=20/3(-5);
 2/9=110/2;
 6/7=2,8=2,9=2,10=2,19=2,28=1/1;
 99/9=1/99;
 Leave Link    1 at Wed Jul  1 15:29:34 2009, MaxMem= 1073741824 cpu:       0.2
 (Enter /opt/g03/l101.exe)
 ---
 edt
 ---
 Symbolic Z-matrix:
 Charge =  0 Multiplicity = 1
 C                     0.69329   0.16542   0.00008 
 C                     1.28704   1.40823  -0.00041 
 S                     1.99786  -1.12662  -0.00541 
 C                     2.70945   1.40882   0.00169 
 C                     3.30504   0.16525  -0.0045 
 C                     4.68853  -0.16295  -0.00468 
 C                     5.28433  -1.40686  -0.01103 
 S                     5.99562   1.12866  -0.00339 
 C                     6.70542  -1.40736  -0.0091 
 C                     7.30197  -0.16379  -0.00602 
 O                     3.44694   2.59563  -0.00261 
 O                     0.54859   2.5945    0.0102 
 O                     7.44367  -2.59386  -0.02268 
 O                     4.54554  -2.5931   -0.0078 
 C                     1.33473   3.7792   -0.36383 
 C                     2.66027   3.7764    0.38146 
 C                     6.65724  -3.77874   0.34831 
 C                     5.33089  -3.77325  -0.39585 
 H                     6.49198  -3.77702   1.43175 
 H                     7.27594  -4.6323    0.06927 
 H                     4.71181  -4.63025  -0.1285 
 H                     5.49581  -3.75643  -1.47921 
 H                     3.27905   4.63297   0.11215 
 H                     2.4943    3.76256   1.46472 
 H                     0.71515   4.63301  -0.08763 
 H                     1.50075   3.77437  -1.44709 
 Tv                    7.9938    0.        0. 
 
                    Isotopes and Nuclear Properties:
 (Nuclear quadrupole moments (NQMom) in fm**2, nuclear magnetic moments (NMagM)
  in nuclear magnetons)

  Atom         1           2           3           4           5           6           7           8           9          10
 IAtWgt=          12          12          32          12          12          12          12          32          12          12
 AtmWgt=  12.0000000  12.0000000  31.9720718  12.0000000  12.0000000  12.0000000  12.0000000  31.9720718  12.0000000  12.0000000
 NucSpn=           0           0           0           0           0           0           0           0           0           0
 AtZEff=   0.0000000   0.0000000   0.0000000   0.0000000   0.0000000   0.0000000   0.0000000   0.0000000   0.0000000   0.0000000
 NQMom=    0.0000000   0.0000000   0.0000000   0.0000000   0.0000000   0.0000000   0.0000000   0.0000000   0.0000000   0.0000000
 NMagM=    0.0000000   0.0000000   0.0000000   0.0000000   0.0000000   0.0000000   0.0000000   0.0000000   0.0000000   0.0000000

  Atom        11          12          13          14          15          16          17          18          19          20
 IAtWgt=          16          16          16          16          12          12          12          12           1           1
 AtmWgt=  15.9949146  15.9949146  15.9949146  15.9949146  12.0000000  12.0000000  12.0000000  12.0000000   1.0078250   1.0078250
 NucSpn=           0           0           0           0           0           0           0           0           1           1
 AtZEff=   0.0000000   0.0000000   0.0000000   0.0000000   0.0000000   0.0000000   0.0000000   0.0000000   0.0000000   0.0000000
 NQMom=    0.0000000   0.0000000   0.0000000   0.0000000   0.0000000   0.0000000   0.0000000   0.0000000   0.0000000   0.0000000
 NMagM=    0.0000000   0.0000000   0.0000000   0.0000000   0.0000000   0.0000000   0.0000000   0.0000000   2.7928460   2.7928460

  Atom        21          22          23          24          25          26
 IAtWgt=           1           1           1           1           1           1
 AtmWgt=   1.0078250   1.0078250   1.0078250   1.0078250   1.0078250   1.0078250
 NucSpn=           1           1           1           1           1           1
 AtZEff=   0.0000000   0.0000000   0.0000000   0.0000000   0.0000000   0.0000000
 NQMom=    0.0000000   0.0000000   0.0000000   0.0000000   0.0000000   0.0000000
 NMagM=    2.7928460   2.7928460   2.7928460   2.7928460   2.7928460   2.7928460
 Leave Link  101 at Wed Jul  1 15:29:37 2009, MaxMem= 1073741824 cpu:       0.1
 (Enter /opt/g03/l103.exe)

 GradGradGradGradGradGradGradGradGradGradGradGradGradGradGradGradGradGrad
 Berny optimization.
 Initialization pass.
                           ----------------------------
                           !    Initial Parameters    !
                           ! (Angstroms and Degrees)  !
 --------------------------                            --------------------------
 ! Name  Definition              Value          Derivative Info.                !
 --------------------------------------------------------------------------------
 ! R1    R(1,2)                  1.3774         estimate D2E/DX2                !
 ! R2    R(1,3)                  1.8361         estimate D2E/DX2                !
 ! R3    R(2,4)                  1.4224         estimate D2E/DX2                !
 ! R4    R(2,12)                 1.3974         estimate D2E/DX2                !
 ! R5    R(3,5)                  1.8378         estimate D2E/DX2                !
 ! R6    R(4,5)                  1.3788         estimate D2E/DX2                !
 ! R7    R(4,11)                 1.3973         estimate D2E/DX2                !
 ! R8    R(5,6)                  1.4219         estimate D2E/DX2                !
 ! R9    R(6,7)                  1.3792         estimate D2E/DX2                !
 ! R10   R(6,8)                  1.8376         estimate D2E/DX2                !
 ! R11   R(7,9)                  1.4211         estimate D2E/DX2                !
 ! R12   R(7,14)                 1.3975         estimate D2E/DX2                !
 ! R13   R(8,10)                 1.8377         estimate D2E/DX2                !
 ! R14   R(9,10)                 1.3793         estimate D2E/DX2                !
 ! R15   R(9,13)                 1.3975         estimate D2E/DX2                !
 ! R16   R(10,28)                1.4237         estimate D2E/DX2                !
 ! R17   R(11,16)                1.4699         estimate D2E/DX2                !
 ! R18   R(12,15)                1.4702         estimate D2E/DX2                !
 ! R19   R(13,17)                1.4697         estimate D2E/DX2                !
 ! R20   R(14,18)                1.4697         estimate D2E/DX2                !
 ! R21   R(15,16)                1.5207         estimate D2E/DX2                !
 ! R22   R(15,25)                1.0905         estimate D2E/DX2                !
 ! R23   R(15,26)                1.0959         estimate D2E/DX2                !
 ! R24   R(16,23)                1.0905         estimate D2E/DX2                !
 ! R25   R(16,24)                1.096          estimate D2E/DX2                !
 ! R26   R(17,18)                1.5209         estimate D2E/DX2                !
 ! R27   R(17,19)                1.096          estimate D2E/DX2                !
 ! R28   R(17,20)                1.0905         estimate D2E/DX2                !
 ! R29   R(18,21)                1.0905         estimate D2E/DX2                !
 ! R30   R(18,22)                1.096          estimate D2E/DX2                !
 ! A1    A(2,1,3)              109.1874         estimate D2E/DX2                !
 ! A2    A(1,2,4)              115.5593         estimate D2E/DX2                !
 ! A3    A(1,2,12)             122.5607         estimate D2E/DX2                !
 ! A4    A(4,2,12)             121.8769         estimate D2E/DX2                !
 ! A5    A(1,3,5)               90.614          estimate D2E/DX2                !
 ! A6    A(2,4,5)              115.5672         estimate D2E/DX2                !
 ! A7    A(2,4,11)             121.8801         estimate D2E/DX2                !
 ! A8    A(5,4,11)             122.55           estimate D2E/DX2                !
 ! A9    A(3,5,4)              109.071          estimate D2E/DX2                !
 ! A10   A(3,5,6)              121.9922         estimate D2E/DX2                !
 ! A11   A(4,5,6)              128.9364         estimate D2E/DX2                !
 ! A12   A(5,6,7)              128.9379         estimate D2E/DX2                !
 ! A13   A(5,6,8)              121.9959         estimate D2E/DX2                !
 ! A14   A(7,6,8)              109.0657         estimate D2E/DX2                !
 ! A15   A(6,7,9)              115.6127         estimate D2E/DX2                !
 ! A16   A(6,7,14)             122.4912         estimate D2E/DX2                !
 ! A17   A(9,7,14)             121.8938         estimate D2E/DX2                !
 ! A18   A(6,8,10)              90.6478         estimate D2E/DX2                !
 ! A19   A(7,9,10)             115.6067         estimate D2E/DX2                !
 ! A20   A(7,9,13)             121.908          estimate D2E/DX2                !
 ! A21   A(10,9,13)            122.4825         estimate D2E/DX2                !
 ! A22   A(8,10,9)             109.0665         estimate D2E/DX2                !
 ! A23   A(8,10,28)            121.9362         estimate D2E/DX2                !
 ! A24   A(9,10,28)            128.9968         estimate D2E/DX2                !
 ! A25   A(4,11,16)            113.517          estimate D2E/DX2                !
 ! A26   A(2,12,15)            113.5512         estimate D2E/DX2                !
 ! A27   A(9,13,17)            113.5379         estimate D2E/DX2                !
 ! A28   A(7,14,18)            113.4839         estimate D2E/DX2                !
 ! A29   A(12,15,16)           109.8729         estimate D2E/DX2                !
 ! A30   A(12,15,25)           105.2287         estimate D2E/DX2                !
 ! A31   A(12,15,26)           109.2037         estimate D2E/DX2                !
 ! A32   A(16,15,25)           111.8736         estimate D2E/DX2                !
 ! A33   A(16,15,26)           110.6335         estimate D2E/DX2                !
 ! A34   A(25,15,26)           109.869          estimate D2E/DX2                !
 ! A35   A(11,16,15)           109.8722         estimate D2E/DX2                !
 ! A36   A(11,16,23)           105.2349         estimate D2E/DX2                !
 ! A37   A(11,16,24)           109.2176         estimate D2E/DX2                !
 ! A38   A(15,16,23)           111.8478         estimate D2E/DX2                !
 ! A39   A(15,16,24)           110.636          estimate D2E/DX2                !
 ! A40   A(23,16,24)           109.8738         estimate D2E/DX2                !
 ! A41   A(13,17,18)           109.8916         estimate D2E/DX2                !
 ! A42   A(13,17,19)           109.2057         estimate D2E/DX2                !
 ! A43   A(13,17,20)           105.2392         estimate D2E/DX2                !
 ! A44   A(18,17,19)           110.6218         estimate D2E/DX2                !
 ! A45   A(18,17,20)           111.8648         estimate D2E/DX2                !
 ! A46   A(19,17,20)           109.8598         estimate D2E/DX2                !
 ! A47   A(14,18,17)           109.8599         estimate D2E/DX2                !
 ! A48   A(14,18,21)           105.2453         estimate D2E/DX2                !
 ! A49   A(14,18,22)           109.2129         estimate D2E/DX2                !
 ! A50   A(17,18,21)           111.8579         estimate D2E/DX2                !
 ! A51   A(17,18,22)           110.6399         estimate D2E/DX2                !
 ! A52   A(21,18,22)           109.8662         estimate D2E/DX2                !
 ! A53   A(10,28,29)           128.905          estimate D2E/DX2                !
 ! A54   A(10,28,30)           121.9056         estimate D2E/DX2                !
 ! D1    D(3,1,2,4)             -0.2914         estimate D2E/DX2                !
 ! D2    D(3,1,2,12)          -179.6593         estimate D2E/DX2                !
 ! D3    D(2,1,3,5)              0.111          estimate D2E/DX2                !
 ! D4    D(1,2,4,5)              0.3881         estimate D2E/DX2                !
 ! D5    D(1,2,4,11)           179.8029         estimate D2E/DX2                !
 ! D6    D(12,2,4,5)           179.7607         estimate D2E/DX2                !
 ! D7    D(12,2,4,11)           -0.8245         estimate D2E/DX2                !
 ! D8    D(1,2,12,15)         -163.9908         estimate D2E/DX2                !
 ! D9    D(4,2,12,15)           16.6808         estimate D2E/DX2                !
 ! D10   D(1,3,5,4)              0.0908         estimate D2E/DX2                !
 ! D11   D(1,3,5,6)            179.8544         estimate D2E/DX2                !
 ! D12   D(2,4,5,3)             -0.2755         estimate D2E/DX2                !
 ! D13   D(2,4,5,6)            179.9823         estimate D2E/DX2                !
 ! D14   D(11,4,5,3)          -179.686          estimate D2E/DX2                !
 ! D15   D(11,4,5,6)             0.5718         estimate D2E/DX2                !
 ! D16   D(2,4,11,16)           16.8451         estimate D2E/DX2                !
 ! D17   D(5,4,11,16)         -163.7812         estimate D2E/DX2                !
 ! D18   D(3,5,6,7)              0.2959         estimate D2E/DX2                !
 ! D19   D(3,5,6,8)           -179.9862         estimate D2E/DX2                !
 ! D20   D(4,5,6,7)           -179.9914         estimate D2E/DX2                !
 ! D21   D(4,5,6,8)             -0.2735         estimate D2E/DX2                !
 ! D22   D(5,6,7,9)           -179.9917         estimate D2E/DX2                !
 ! D23   D(5,6,7,14)            -0.529          estimate D2E/DX2                !
 ! D24   D(8,6,7,9)              0.2615         estimate D2E/DX2                !
 ! D25   D(8,6,7,14)           179.7242         estimate D2E/DX2                !
 ! D26   D(5,6,8,10)          -179.9509         estimate D2E/DX2                !
 ! D27   D(7,6,8,10)            -0.1831         estimate D2E/DX2                !
 ! D28   D(6,7,9,10)            -0.2249         estimate D2E/DX2                !
 ! D29   D(6,7,9,13)          -179.6258         estimate D2E/DX2                !
 ! D30   D(14,7,9,10)         -179.6912         estimate D2E/DX2                !
 ! D31   D(14,7,9,13)            0.908          estimate D2E/DX2                !
 ! D32   D(6,7,14,18)          163.6065         estimate D2E/DX2                !
 ! D33   D(9,7,14,18)          -16.9641         estimate D2E/DX2                !
 ! D34   D(6,8,10,9)             0.0664         estimate D2E/DX2                !
 ! D35   D(6,8,10,28)         -179.7008         estimate D2E/DX2                !
 ! D36   D(7,9,10,8)             0.067          estimate D2E/DX2                !
 ! D37   D(7,9,10,28)          179.8128         estimate D2E/DX2                !
 ! D38   D(13,9,10,8)          179.464          estimate D2E/DX2                !
 ! D39   D(13,9,10,28)          -0.7902         estimate D2E/DX2                !
 ! D40   D(7,9,13,17)          -16.6728         estimate D2E/DX2                !
 ! D41   D(10,9,13,17)         163.9677         estimate D2E/DX2                !
 ! D42   D(8,10,28,29)          -0.4732         estimate D2E/DX2                !
 ! D43   D(8,10,28,30)        -179.8949         estimate D2E/DX2                !
 ! D44   D(9,10,28,29)         179.8099         estimate D2E/DX2                !
 ! D45   D(9,10,28,30)           0.3882         estimate D2E/DX2                !
 ! D46   D(4,11,16,15)         -46.5879         estimate D2E/DX2                !
 ! D47   D(4,11,16,23)        -167.1557         estimate D2E/DX2                !
 ! D48   D(4,11,16,24)          74.9359         estimate D2E/DX2                !
 ! D49   D(2,12,15,16)         -46.4211         estimate D2E/DX2                !
 ! D50   D(2,12,15,25)        -167.0163         estimate D2E/DX2                !
 ! D51   D(2,12,15,26)          75.0912         estimate D2E/DX2                !
 ! D52   D(9,13,17,18)          46.3657         estimate D2E/DX2                !
 ! D53   D(9,13,17,19)         -75.1451         estimate D2E/DX2                !
 ! D54   D(9,13,17,20)         166.9665         estimate D2E/DX2                !
 ! D55   D(7,14,18,17)          46.6432         estimate D2E/DX2                !
 ! D56   D(7,14,18,21)         167.2225         estimate D2E/DX2                !
 ! D57   D(7,14,18,22)         -74.8747         estimate D2E/DX2                !
 ! D58   D(12,15,16,11)         62.3671         estimate D2E/DX2                !
 ! D59   D(12,15,16,23)        178.8516         estimate D2E/DX2                !
 ! D60   D(12,15,16,24)        -58.3043         estimate D2E/DX2                !
 ! D61   D(25,15,16,11)        178.8599         estimate D2E/DX2                !
 ! D62   D(25,15,16,23)        -64.6556         estimate D2E/DX2                !
 ! D63   D(25,15,16,24)         58.1885         estimate D2E/DX2                !
 ! D64   D(26,15,16,11)        -58.2857         estimate D2E/DX2                !
 ! D65   D(26,15,16,23)         58.1988         estimate D2E/DX2                !
 ! D66   D(26,15,16,24)       -178.957          estimate D2E/DX2                !
 ! D67   D(13,17,18,14)        -62.3548         estimate D2E/DX2                !
 ! D68   D(13,17,18,21)       -178.8504         estimate D2E/DX2                !
 ! D69   D(13,17,18,22)         58.3052         estimate D2E/DX2                !
 ! D70   D(19,17,18,14)         58.3051         estimate D2E/DX2                !
 ! D71   D(19,17,18,21)        -58.1905         estimate D2E/DX2                !
 ! D72   D(19,17,18,22)        178.965          estimate D2E/DX2                !
 ! D73   D(20,17,18,14)       -178.867          estimate D2E/DX2                !
 ! D74   D(20,17,18,21)         64.6374         estimate D2E/DX2                !
 ! D75   D(20,17,18,22)        -58.207          estimate D2E/DX2                !
 ! D76   D(10,28,29,31)       -179.7716         estimate D2E/DX2                !
 ! D77   D(10,28,29,39)          0.8605         estimate D2E/DX2                !
 ! D78   D(10,28,30,32)        179.6345         estimate D2E/DX2                !
 --------------------------------------------------------------------------------
 Trust Radius=3.00D-01 FncErr=1.00D-07 GrdErr=1.00D-06
 Number of steps in this run= 162 maximum allowed number of steps= 162.
 GradGradGradGradGradGradGradGradGradGradGradGradGradGradGradGradGradGrad

 Leave Link  103 at Wed Jul  1 15:29:40 2009, MaxMem= 1073741824 cpu:       0.0
 (Enter /opt/g03/l202.exe)
                           Before rotation:                           
 ---------------------------------------------------------------------
 Center     Atomic     Atomic              Coordinates (Angstroms)
 Number     Number      Type              X           Y           Z
 ---------------------------------------------------------------------
    1          6             0        0.693292    0.165420    0.000078
    2          6             0        1.287040    1.408233   -0.000406
    3         16             0        1.997861   -1.126615   -0.005409
    4          6             0        2.709449    1.408817    0.001688
    5          6             0        3.305038    0.165250   -0.004502
    6          6             0        4.688535   -0.162951   -0.004675
    7          6             0        5.284329   -1.406857   -0.011027
    8         16             0        5.995618    1.128655   -0.003392
    9          6             0        6.705424   -1.407364   -0.009102
   10          6             0        7.301967   -0.163787   -0.006018
   11          8             0        3.446942    2.595630   -0.002606
   12          8             0        0.548590    2.594501    0.010205
   13          8             0        7.443670   -2.593862   -0.022679
   14          8             0        4.545537   -2.593102   -0.007804
   15          6             0        1.334735    3.779196   -0.363830
   16          6             0        2.660268    3.776404    0.381462
   17          6             0        6.657237   -3.778737    0.348305
   18          6             0        5.330891   -3.773248   -0.395851
   19          1             0        6.491976   -3.777023    1.431747
   20          1             0        7.275942   -4.632301    0.069273
   21          1             0        4.711806   -4.630251   -0.128502
   22          1             0        5.495812   -3.756435   -1.479211
   23          1             0        3.279051    4.632972    0.112153
   24          1             0        2.494296    3.762563    1.464716
   25          1             0        0.715148    4.633015   -0.087632
   26          1             0        1.500749    3.774367   -1.447093
   27         -2             0        7.993797    0.000000    0.000000
 ---------------------------------------------------------------------
 Lengths of translation vectors:      7.993797
 ---------------------------------------------------------------------
                          Input orientation:                          
 ---------------------------------------------------------------------
 Center     Atomic     Atomic              Coordinates (Angstroms)
 Number     Number      Type              X           Y           Z
 ---------------------------------------------------------------------
    1          6             0       -3.302908    0.164673    0.000000
    2          6             0       -2.709160    1.406577   -0.047550
    3         16             0       -1.998339   -1.126643    0.043447
    4          6             0       -1.286751    1.407239   -0.045480
    5          6             0       -0.691162    0.164330   -0.004570
    6          6             0        0.692335   -0.163642    0.007686
    7          6             0        1.288128   -1.406897    0.048446
    8         16             0        1.999418    1.127086   -0.039946
    9          6             0        2.709224   -1.407330    0.050389
   10          6             0        3.305767   -0.164529    0.006376
   11          8             0       -0.549258    2.593038   -0.094716
   12          8             0       -3.447610    2.592395   -0.081872
   13          8             0        3.447470   -2.593491    0.081756
   14          8             0        0.549337   -2.592169    0.096591
   15          6             0       -2.661465    3.762075   -0.500504
   16          6             0       -1.335932    3.787510    0.244359
   17          6             0        2.661036   -3.763467    0.497346
   18          6             0        1.334691   -3.786164   -0.246485
   19          1             0        2.495775   -3.720723    1.579945
   20          1             0        3.279742   -4.626985    0.250839
   21          1             0        0.715606   -4.632427    0.053128
   22          1             0        1.499612   -3.810390   -1.329704
   23          1             0       -0.717149    4.633265   -0.057195
   24          1             0       -1.501904    3.814702    1.327360
   25          1             0       -3.281052    4.625741   -0.256839
   26          1             0       -2.495451    3.716225   -1.582807
   27         -2             0        7.993797    0.000000    0.000000
 ---------------------------------------------------------------------
 Lengths of translation vectors:      7.993797
 ---------------------------------------------------------------------
                    Distance matrix (angstroms):
                    1          2          3          4          5
     1  C    0.000000
     2  C    1.377361   0.000000
     3  S    1.836106   2.632632   0.000000
     4  C    2.368739   1.422411   2.633406   0.000000
     5  C    2.611750   2.370093   1.837833   1.378849   0.000000
     6  C    4.008717   3.746840   2.858037   2.527306   1.421893
     7  C    4.852813   4.889086   3.298399   3.815519   2.527678
     8  S    5.389109   4.716872   4.590023   3.298094   2.857861
     9  C    6.214456   6.106271   4.715929   4.888641   3.746433
    10  C    6.616872   6.216963   5.390787   4.854315   4.010451
    11  O    3.672672   2.464770   3.994365   1.397297   2.434520
    12  O    2.433409   1.397373   3.993412   2.464798   3.674164
    13  O    7.292582   7.343116   5.640031   6.199587   4.974064
    14  O    4.738069   5.160286   2.939600   4.403030   3.024460
    15  C    3.688259   2.399128   4.963384   2.764441   4.131805
    16  C    4.129607   2.764020   4.962665   2.398356   3.688513
    17  C    7.158650   7.474308   5.372955   6.528085   5.188135
    18  C    6.097310   6.584593   4.273898   5.820979   4.446235
    19  H    7.156624   7.485272   5.411760   6.576133   5.268862
    20  H    8.145808   8.506460   6.336683   7.573146   6.228163
    21  H    6.258071   6.943251   4.433522   6.363704   4.999121
    22  H    6.374436   6.824546   4.617760   6.052827   4.727988
    23  H    5.163112   3.792059   5.901535   3.275946   4.469320
    24  H    4.281146   3.024387   5.129500   2.779723   3.969453
    25  H    4.468509   3.276260   5.901309   3.792184   5.164819
    26  H    3.971245   2.781575   5.132757   3.025846   4.285119
    27  TV  11.297905  10.795092  10.055546   9.386745   8.686515
                    6          7          8          9         10
     6  C    0.000000
     7  C    1.379244   0.000000
     8  S    1.837584   2.633404   0.000000
     9  C    2.369900   1.421097   2.633487   0.000000
    10  C    2.613433   2.369834   1.837652   1.379260   0.000000
    11  O    3.025116   4.404085   2.940708   5.161560   4.740845
    12  O    4.974224   6.199882   5.640833   7.343153   7.294966
    13  O    3.674292   2.464117   3.994291   1.397487   2.434259
    14  O    2.434357   1.397498   3.994275   2.463958   3.674164
    15  C    5.188207   6.528316   5.373929   7.474660   7.161216
    16  C    4.447638   5.822880   4.275891   6.586902   6.100870
    17  C    4.132105   2.764021   4.964265   2.398640   3.689049
    18  C    3.687802   2.397929   4.962312   2.763390   4.131019
    19  H    4.286866   3.026169   5.135336   2.781527   3.972245
    20  H    5.164807   3.791630   5.901959   3.275950   4.469224
    21  H    4.469076   3.275950   5.901595   3.791539   5.164614
    22  H    3.967251   2.778634   5.127568   3.023659   4.282477
    23  H    5.000117   6.365206   4.435462   6.945531   6.261527
    24  H    4.731115   6.056814   4.620829   6.828900   6.379105
    25  H    6.228641   7.573858   6.338059   8.507394   8.148752
    26  H    5.267354   6.574408   5.411830   7.483769   7.158204
    27  TV   7.303300   6.851839   6.099550   5.468989   4.690921
                   11         12         13         14         15
    11  O    0.000000
    12  O    2.898381   0.000000
    13  O    6.550195   8.629155   0.000000
    14  O    5.303761   6.548828   2.898171   0.000000
    15  C    2.448006   1.470179   8.834667   7.144382   0.000000
    16  C    1.469895   2.448246   7.976500   6.654050   1.520693
    17  C    7.145746   8.834480   1.469706   2.447819   9.271381
    18  C    6.653308   7.973927   2.448274   1.469729   8.544571
    19  H    7.206962   8.828417   2.102605   2.694921   9.322965
    20  H    8.179816   9.873572   2.047394   3.408721  10.307221
    21  H    7.336831   8.339584   3.408983   2.047483   9.065251
    22  H    6.835712   8.187048   2.695777   2.102713   8.680113
    23  H    2.047467   3.408984   8.342024   7.337202   2.176203
    24  H    2.102926   2.695504   8.192239   6.838888   2.165280
    25  H    3.408939   2.047645   9.874461   8.178938   1.090495
    26  H    2.695113   2.102951   8.826188   7.203260   1.095921
    27  TV   8.928416  11.731710   5.234689   7.883442  11.310983
                   16         17         18         19         20
    16  C    0.000000
    17  C    8.547339   0.000000
    18  C    8.045724   1.520852   0.000000
    19  H    8.534597   1.095974   2.165236   0.000000
    20  H    9.597303   1.090517   2.176588   1.789535   0.000000
    21  H    8.668374   2.176493   1.090503   2.516223   2.571753
    22  H    8.261118   2.165461   1.095970   3.076758   2.516706
    23  H    1.090471   9.067787   8.667909   9.099024  10.090702
    24  H    1.095983   8.686060   8.264165   8.533925   9.761410
    25  H    2.176540  10.308056   9.595068  10.315473  11.354061
    26  H    2.165202   9.319989   8.528868   9.498608  10.311366
    27  TV  10.072179   6.545943   7.664169   6.824094   6.610161
                   21         22         23         24         25
    21  H    0.000000
    22  H    1.789591   0.000000
    23  H    9.376460   8.822053   0.000000
    24  H    8.825815   8.614588   1.789659   0.000000
    25  H   10.088758   9.755721   2.571675   2.516513   0.000000
    26  H    9.093249   8.524936   2.516110   3.076671   1.789575
    27  TV   8.627530   7.646020   9.866661  10.319020  12.189573
                   26         27
    26  H    0.000000
    27  TV  11.240104   0.000000
          Unit Cell Distance matrix (angstroms):
                    1          2          3          4          5
     1  C    0.000000
     2  C    1.377361   0.000000
     3  S    1.836106   2.632632   0.000000
     4  C    2.368739   1.422411   2.633406   0.000000
     5  C    2.611750   2.370093   1.837833   1.378849   0.000000
     6  C    4.012018   4.853646   5.389969   6.216691   6.618443
     7  C    3.748461   4.888449   4.715668   6.106788   6.216579
     8  S    2.858646   3.297096   4.588528   4.715960   5.390015
     9  C    2.529967   3.815812   3.298207   4.890151   4.855159
    10  C    1.423720   2.527292   2.856829   3.747245   4.010389
    11  O    3.672672   2.464770   3.994365   1.397297   2.434520
    12  O    2.433409   1.397373   3.993412   2.464798   3.674164
    13  O    3.026590   4.403685   2.940298   5.162060   4.740815
    14  O    4.976140   6.199501   5.640109   7.343898   7.294899
    15  C    3.688259   2.399128   4.963384   2.764441   4.131805
    16  C    4.129607   2.764020   4.962665   2.398356   3.688513
    17  C    4.449488   5.823190   4.275188   6.587948   6.101143
    18  C    5.189791   6.527343   5.373999   7.474894   7.161095
    19  H    4.734032   6.059348   4.619292   6.831750   6.380457
    20  H    5.001425   6.364944   4.435146   6.945940   6.261438
    21  H    6.230399   7.573358   6.337780   8.507917   8.148691
    22  H    5.268158   6.571688   5.413010   7.482664   7.157476
    23  H    5.163112   3.792059   5.901535   3.275946   4.469320
    24  H    4.281146   3.024387   5.129500   2.779723   3.969453
    25  H    4.468509   3.276260   5.901309   3.792184   5.164819
    26  H    3.971245   2.781575   5.132757   3.025846   4.285119
                    6          7          8          9         10
     6  C    0.000000
     7  C    1.379244   0.000000
     8  S    1.837584   2.633404   0.000000
     9  C    2.369900   1.421097   2.633487   0.000000
    10  C    2.613433   2.369834   1.837652   1.379260   0.000000
    11  O    7.293973   7.343117   5.639270   6.200582   4.974317
    12  O    4.738770   5.160065   2.938524   4.403378   3.024411
    13  O    3.674292   2.464117   3.994291   1.397487   2.434259
    14  O    2.434357   1.397498   3.994275   2.463958   3.674164
    15  C    6.099105   6.585985   4.273593   5.822966   4.447708
    16  C    7.159272   7.473575   5.372134   6.528075   5.187659
    17  C    4.132105   2.764021   4.964265   2.398640   3.689049
    18  C    3.687802   2.397929   4.962312   2.763390   4.131019
    19  H    4.286866   3.026169   5.135336   2.781527   3.972245
    20  H    5.164807   3.791630   5.901959   3.275950   4.469224
    21  H    4.469076   3.275950   5.901595   3.791539   5.164614
    22  H    3.967251   2.778634   5.127568   3.023659   4.282477
    23  H    8.146638   8.506296   6.335830   7.573752   6.228223
    24  H    7.155673   7.481971   5.410651   6.573346   5.265993
    25  H    6.258743   6.943624   4.432807   6.364467   4.999556
    26  H    6.378149   6.828858   4.618069   6.057834   4.732141
                   11         12         13         14         15
    11  O    0.000000
    12  O    2.898381   0.000000
    13  O    6.550404   5.303524   0.000000
    14  O    8.629414   6.548768   2.898171   0.000000
    15  C    2.448006   1.470179   6.654694   7.975586   0.000000
    16  C    1.469895   2.448246   7.144946   8.833813   1.520693
    17  C    7.977318   6.654793   1.469706   2.447819   8.047689
    18  C    8.834450   7.143306   2.448274   1.469729   8.545266
    19  H    8.195019   6.842609   2.102605   2.694921   8.268409
    20  H    8.342283   7.337168   2.047394   3.408721   8.669139
    21  H    9.874602   8.178609   3.408983   2.047483   9.596267
    22  H    8.824469   7.199609   2.695777   2.102713   8.527575
    23  H    2.047467   3.408984   8.179725   9.873563   2.176203
    24  H    2.102926   2.695504   7.203124   8.824782   2.165280
    25  H    3.408939   2.047645   7.337089   8.340090   1.090495
    26  H    2.695113   2.102951   6.840276   8.192002   1.095921
                   16         17         18         19         20
    16  C    0.000000
    17  C    8.547274   0.000000
    18  C    9.270256   1.520852   0.000000
    19  H    8.687943   1.095974   2.165236   0.000000
    20  H    9.067276   1.090517   2.176588   1.789535   0.000000
    21  H   10.307393   2.176493   1.090503   2.516223   2.571753
    22  H    9.317368   2.165461   1.095970   3.076758   2.516706
    23  H    1.090471   9.597733  10.306768   9.763508  10.090707
    24  H    1.095983   8.531884   9.319168   8.533194   9.096093
    25  H    2.176540   8.669320   9.064850   8.829055   9.376790
    26  H    2.165202   8.265782   8.683756   8.621290   8.825737
                   21         22         23         24         25
    21  H    0.000000
    22  H    1.789591   0.000000
    23  H   11.353964  10.309643   0.000000
    24  H   10.312282   9.493414   1.789659   0.000000
    25  H   10.088949   9.090851   2.571675   2.516513   0.000000
    26  H    9.759656   8.526657   2.516110   3.076671   1.789575
                   26
    26  H    0.000000
 Symmetry turned off:
 Cannot cope with ghost atoms or with translation vectors.
 Stoichiometry    C12H8O4S2
 Framework group  C1[X(C12H8O4S2)]
 Deg. of freedom    72
 Full point group                 C1
 Leave Link  202 at Wed Jul  1 15:29:43 2009, MaxMem= 1073741824 cpu:       0.1
 (Enter /opt/g03/l301.exe)
 Standard basis: 6-31G (6D, 7F)
 Integral buffers will be    131072 words long.
 Raffenetti 2 integral format.
 Two-electron integral symmetry is turned off.
   186 basis functions,   476 primitive gaussians,   186 cartesian basis functions
    72 alpha electrons       72 beta electrons
       nuclear repulsion energy      1533.6231459584 Hartrees.
 IExCor= 402 DFT=T Ex=B+HF Corr=LYP ExCW=0 ScaHFX=  0.200000
 ScaDFX=  0.800000  0.720000  1.000000  0.810000
 IRadAn=      0 IRanWt=     -1 IRanGd=            0 ICorTp=0
 NAtoms=   26 NActive=   26 NUniq=   26 SFac= 7.50D-01 NAtFMM=   80 NAOKFM=F Big=F
 Leave Link  301 at Wed Jul  1 15:29:44 2009, MaxMem= 1073741824 cpu:       0.1
 (Enter /opt/g03/l302.exe)
 FOutLm=  100.00.
 Periodicity:                           1               0               0
 Max integer dimensions:                7               0               0
   PBC vector 1 X=    15.1061 Y=    0.0000 Z=    0.0000
  Recp vector 1 X=     0.0662 Y=    0.0000 Z=    0.0000
 Generated k point mesh (from -Pi to Pi):
 K space mesh: X=      84 Y=       0 Z=       0
 A half-cell shift: 1
 Using k point mesh (from -Pi to Pi):
 K space mesh: X=      84 Y=       0 Z=       0
 A half-cell shift: 1
 CountK=T Total number of k points:       0
 CountK=T Total number of k points:      42
 NPDir=1 NMtPBC=    15 NCelOv=    11 NCel=      15 NClECP=    11 NCelD=     11
         NCelK=     15 NCelE2=    15 NClLst=     5 CellRange=   100.0.
 One-electron integrals computed using PRISM.
 NBasis=   186 RedAO= T  NBF=   186
 NBsUse=   186 1.00D-06 NBFU=   186
 Precomputing XC quadrature grid using
 IXCGrd= 2 IRadAn=           0 IRanWt=          -1 IRanGd=           0.
 RepCel:  MaxNCR=      11 NClRep=      11 NMtPBC=      15.
 NRdTot=    1776 NPtTot=      229248 NUsed=      242825 NTot=      242857
 NSgBfM=   522   523   531   531.
 Leave Link  302 at Wed Jul  1 15:29:53 2009, MaxMem= 1073741824 cpu:       7.3
 (Enter /opt/g03/l303.exe)
 DipDrv:  MaxL=1.
 Leave Link  303 at Wed Jul  1 15:29:56 2009, MaxMem= 1073741824 cpu:       0.3
 (Enter /opt/g03/l401.exe)
 Harris functional with IExCor=  402 diagonalized for initial guess.
 RepCel:  MaxNCR=      11 NClRep=      11 NMtPBC=      15.
 HarFok:  IExCor= 402 AccDes= 0.00D+00 IRadAn=         0 IDoV=1
 ScaDFX=  1.000000  1.000000  1.000000  1.000000
 Harris En= -5833.05550571919    
 Leave Link  401 at Wed Jul  1 15:30:02 2009, MaxMem= 1073741824 cpu:      22.7
 (Enter /opt/g03/l502.exe)
 Closed shell SCF:
 Requested convergence on RMS density matrix=1.00D-07 within 128 cycles.
 Requested convergence on MAX density matrix=1.00D-05.
 Requested convergence on             energy=1.00D-05.
 No special actions if energy rises.
 Using DIIS extrapolation, IDIIS=  1040.
 NCelOv=    11 NClRep=    11 NMtPBC=    15 NRecip=    84 NKPnt=      42.
 Two-electron integral symmetry not used.
       242824 words used for storage of precomputed grid.
 IEnd=   2092065 IEndB=   2092065 NGot=1073741824 MDV=1072188130
 LenX=1072188130
 Threshold for overlap eigenvalues 1.000D-06
           Ratio       Low      Low      Low      Low      Low     High
 Min    1.097D-04    5.4D+00  5.3D+00  5.2D+00  5.1D+00  4.5D+00  6.1D-04
 Max    1.747D-04    5.6D+00  5.4D+00  5.3D+00  5.3D+00  5.1D+00  9.4D-04
 S in ortho basis: MxErrOnDiag=  0.1561D-11 MxErrOfDiag=  0.9804D-12
 Fock matrices will be formed incrementally for  20 cycles.

 Cycle   1  Pass 0  IDiag  1:
 E=   (Non-Variational)  
 Sum_Occ: Avg-Min  3.67727D-01 Max-Avg  4.56231D-01 Dif  8.23958D-01 (eV)
 Alpha HOCO:  -6.158604 LUCO:  -4.941554 indirect gap:   1.217051 direct gap:   1.217051 (eV)

 Diagonalized old Fock matrix for initial guess.
 Cycle   1  Pass 1  IDiag  1:
 FoFJK:  IHMeth= 1 ICntrl=     0 DoSepK=T KAlg= 1 I1Cent= 0 FoldK=F
 FoFCou: FMM=T IPFlag=           0 FMFlag=      990000 FMFlg1=        4097
 NFxFlg=           0 DoJE=T BraDBF=F KetDBF=F FulRan=T.
 Symmetry not used in FoFCou.
 FMM levels:   5  Number of levels for PrismC:   3
 PrismC:  NFx=  31457280 NFxT=       128 NFxU=       125.
 PrismC:  NFx=  31457280 NFxT=       127 NFxU=       125.
 PrismC:  NFx=  31457280 NFxT=       128 NFxU=       125.
 PrismC:  NFx=  31457280 NFxT=       128 NFxU=       125.
 PrismC:  NFx=  31457280 NFxT=       128 NFxU=       126.
 PrismC:  NFx=  31457280 NFxT=       128 NFxU=       125.
 PrismC:  NFx=  31457280 NFxT=       127 NFxU=       125.
 PrismC:  NFx=  31457280 NFxT=       128 NFxU=       125.
 RepCel:  MaxNCR=      11 NClRep=      11 NMtPBC=      15.
 E= -1558.74172450682    
 DIIS: error= 2.80D-02 at cycle   1 NSaved=   1.
 NSaved= 1 IEnMin= 1 EnMin= -1558.74172450682     IErMin= 1 ErrMin= 2.80D-02
 ErrMax= 2.80D-02 EMaxC= 1.00D-01 BMatC= 2.53D-01 BMatP= 2.53D-01
 IDIUse=3 WtCom= 7.20D-01 WtEn= 2.80D-01
 Coeff-Com:  0.100D+01
 Coeff-En:   0.100D+01
 Coeff:      0.100D+01
 Sum_Occ: Avg-Min  5.81412D-01 Max-Avg  7.89109D-01 Dif  1.37052D+00 (eV)
 Alpha HOCO:  -0.718586 LUCO:   0.481694 indirect gap:   1.200280 direct gap:   1.200280 (eV)
 GapD=    2.000 DampG=2.000 DampE=0.250 DampFc=0.5000 IDamp=-1.
 Damping current iteration by 5.00D-01
 RMSDP=1.83D-03 MaxDP=1.37D-01              OVMax= 0.00D+00

 Cycle   2  Pass 1  IDiag  1:
 RMSU=  9.13D-04    CP:  9.93D-01
 FoFJK:  IHMeth= 1 ICntrl=     0 DoSepK=T KAlg= 1 I1Cent= 0 FoldK=F
 PrismC:  NFx=  31457280 NFxT=       128 NFxU=       125.
 PrismC:  NFx=  31457280 NFxT=       128 NFxU=       125.
 PrismC:  NFx=  31457280 NFxT=       127 NFxU=       125.
 PrismC:  NFx=  31457280 NFxT=       127 NFxU=       125.
 PrismC:  NFx=  31457280 NFxT=       128 NFxU=       126.
 PrismC:  NFx=  31457280 NFxT=       128 NFxU=       125.
 PrismC:  NFx=  31457280 NFxT=       128 NFxU=       125.
 PrismC:  NFx=  31457280 NFxT=       128 NFxU=       125.
 RepCel:  MaxNCR=      11 NClRep=      11 NMtPBC=      15.
 E= -1558.85938163628     Delta-E=       -0.117657129464 Rises=F Damp=T
 DIIS: error= 2.09D-02 at cycle   2 NSaved=   2.
 NSaved= 2 IEnMin= 2 EnMin= -1558.85938163628     IErMin= 2 ErrMin= 2.09D-02
 ErrMax= 2.09D-02 EMaxC= 1.00D-01 BMatC= 7.63D-02 BMatP= 2.53D-01
 IDIUse=3 WtCom= 7.91D-01 WtEn= 2.09D-01
 Coeff-Com:  0.348D+00 0.652D+00
 Coeff-En:   0.111D+00 0.889D+00
 Coeff:      0.298D+00 0.702D+00
 Sum_Occ: Avg-Min  5.46525D-01 Max-Avg  7.11040D-01 Dif  1.25757D+00 (eV)
 Alpha HOCO:  -2.914293 LUCO:  -1.355240 indirect gap:   1.559053 direct gap:   1.559053 (eV)
 RMSDP=6.43D-04 MaxDP=4.34D-02 DE=-1.18D-01 OVMax= 0.00D+00

 Cycle   3  Pass 1  IDiag  1:
 RMSU=  6.03D-04    CP:  9.94D-01  1.24D+00
 FoFJK:  IHMeth= 1 ICntrl=     0 DoSepK=T KAlg= 1 I1Cent= 0 FoldK=F
 PrismC:  NFx=  31457280 NFxT=       128 NFxU=       125.
 PrismC:  NFx=  31457280 NFxT=       128 NFxU=       126.
 PrismC:  NFx=  31457280 NFxT=       128 NFxU=       125.
 PrismC:  NFx=  31457280 NFxT=       128 NFxU=       125.
 PrismC:  NFx=  31457280 NFxT=       128 NFxU=       125.
 PrismC:  NFx=  31457280 NFxT=       128 NFxU=       125.
 PrismC:  NFx=  31457280 NFxT=       127 NFxU=       125.
 PrismC:  NFx=  31457280 NFxT=       127 NFxU=       125.
 RepCel:  MaxNCR=      11 NClRep=      11 NMtPBC=      15.
 E= -1558.99374187369     Delta-E=       -0.134360237408 Rises=F Damp=F
 DIIS: error= 6.62D-03 at cycle   3 NSaved=   3.
 NSaved= 3 IEnMin= 3 EnMin= -1558.99374187369     IErMin= 3 ErrMin= 6.62D-03
 ErrMax= 6.62D-03 EMaxC= 1.00D-01 BMatC= 1.32D-02 BMatP= 7.63D-02
 IDIUse=3 WtCom= 9.34D-01 WtEn= 6.62D-02
 Coeff-Com:  0.179D+00-0.104D-02 0.822D+00
 Coeff-En:   0.000D+00 0.000D+00 0.100D+01
 Coeff:      0.167D+00-0.970D-03 0.833D+00
 Sum_Occ: Avg-Min  5.23248D-01 Max-Avg  6.70091D-01 Dif  1.19334D+00 (eV)
 Alpha HOCO:  -3.712570 LUCO:  -2.027325 indirect gap:   1.685245 direct gap:   1.685245 (eV)
 RMSDP=2.40D-04 MaxDP=1.44D-02 DE=-1.34D-01 OVMax= 0.00D+00

 Cycle   4  Pass 1  IDiag  1:
 RMSU=  1.19D-04    CP:  9.98D-01  1.03D+00  1.10D+00
 FoFJK:  IHMeth= 1 ICntrl=     0 DoSepK=T KAlg= 1 I1Cent= 0 FoldK=F
 PrismC:  NFx=  31457280 NFxT=       128 NFxU=       125.
 PrismC:  NFx=  31457280 NFxT=       128 NFxU=       125.
 PrismC:  NFx=  31457280 NFxT=       128 NFxU=       125.
 PrismC:  NFx=  31457280 NFxT=       127 NFxU=       126.
 PrismC:  NFx=  31457280 NFxT=       128 NFxU=       125.
 PrismC:  NFx=  31457280 NFxT=       128 NFxU=       125.
 PrismC:  NFx=  31457280 NFxT=       128 NFxU=       125.
 PrismC:  NFx=  31457280 NFxT=       128 NFxU=       125.
 RepCel:  MaxNCR=      11 NClRep=      11 NMtPBC=      15.
 E= -1559.00693787263     Delta-E=       -0.013195998944 Rises=F Damp=F
 DIIS: error= 2.26D-03 at cycle   4 NSaved=   4.
 NSaved= 4 IEnMin= 4 EnMin= -1559.00693787263     IErMin= 4 ErrMin= 2.26D-03
 ErrMax= 2.26D-03 EMaxC= 1.00D-01 BMatC= 8.80D-04 BMatP= 1.32D-02
 IDIUse=3 WtCom= 9.77D-01 WtEn= 2.26D-02
 Coeff-Com:  0.520D-01-0.542D-01 0.425D+00 0.577D+00
 Coeff-En:   0.000D+00 0.000D+00 0.000D+00 0.100D+01
 Coeff:      0.508D-01-0.529D-01 0.415D+00 0.587D+00
 Sum_Occ: Avg-Min  5.24623D-01 Max-Avg  6.71793D-01 Dif  1.19642D+00 (eV)
 Alpha HOCO:  -3.729392 LUCO:  -2.039709 indirect gap:   1.689684 direct gap:   1.689684 (eV)
 RMSDP=7.47D-05 MaxDP=4.88D-03 DE=-1.32D-02 OVMax= 0.00D+00

 Cycle   5  Pass 1  IDiag  1:
 RMSU=  5.02D-05    CP:  9.97D-01  1.02D+00  1.06D+00  6.01D-01
 FoFJK:  IHMeth= 1 ICntrl=     0 DoSepK=T KAlg= 1 I1Cent= 0 FoldK=F
 PrismC:  NFx=  31457280 NFxT=       128 NFxU=       125.
 PrismC:  NFx=  31457280 NFxT=       128 NFxU=       125.
 PrismC:  NFx=  31457280 NFxT=       128 NFxU=       125.
 PrismC:  NFx=  31457280 NFxT=       128 NFxU=       125.
 PrismC:  NFx=  31457280 NFxT=       128 NFxU=       125.
 PrismC:  NFx=  31457280 NFxT=       128 NFxU=       125.
 PrismC:  NFx=  31457280 NFxT=       127 NFxU=       126.
 PrismC:  NFx=  31457280 NFxT=       128 NFxU=       125.
 RepCel:  MaxNCR=      11 NClRep=      11 NMtPBC=      15.
 E= -1559.00765046931     Delta-E=       -0.000712596682 Rises=F Damp=F
 DIIS: error= 1.22D-03 at cycle   5 NSaved=   5.
 NSaved= 5 IEnMin= 5 EnMin= -1559.00765046931     IErMin= 5 ErrMin= 1.22D-03
 ErrMax= 1.22D-03 EMaxC= 1.00D-01 BMatC= 2.84D-04 BMatP= 8.80D-04
 IDIUse=3 WtCom= 9.88D-01 WtEn= 1.22D-02
 Coeff-Com:  0.805D-02 0.636D-02 0.120D+00 0.297D+00 0.568D+00
 Coeff-En:   0.000D+00 0.000D+00 0.000D+00 0.737D-01 0.926D+00
 Coeff:      0.796D-02 0.628D-02 0.118D+00 0.295D+00 0.573D+00
 Sum_Occ: Avg-Min  5.24531D-01 Max-Avg  6.71692D-01 Dif  1.19622D+00 (eV)
 Alpha HOCO:  -3.627937 LUCO:  -1.944104 indirect gap:   1.683833 direct gap:   1.683833 (eV)
 RMSDP=3.26D-05 MaxDP=2.55D-03 DE=-7.13D-04 OVMax= 0.00D+00

 Cycle   6  Pass 1  IDiag  1:
 RMSU=  1.23D-05    CP:  9.97D-01  1.05D+00  1.04D+00  6.34D-01  6.32D-01
 FoFJK:  IHMeth= 1 ICntrl=     0 DoSepK=T KAlg= 1 I1Cent= 0 FoldK=F
 PrismC:  NFx=  31457280 NFxT=       127 NFxU=       126.
 PrismC:  NFx=  31457280 NFxT=       127 NFxU=       125.
 PrismC:  NFx=  31457280 NFxT=       128 NFxU=       125.
 PrismC:  NFx=  31457280 NFxT=       127 NFxU=       125.
 PrismC:  NFx=  31457280 NFxT=       128 NFxU=       125.
 PrismC:  NFx=  31457280 NFxT=       127 NFxU=       125.
 PrismC:  NFx=  31457280 NFxT=       128 NFxU=       125.
 PrismC:  NFx=  31457280 NFxT=       127 NFxU=       125.
 RepCel:  MaxNCR=      11 NClRep=      11 NMtPBC=      15.
 E= -1559.00791170149     Delta-E=       -0.000261232173 Rises=F Damp=F
 DIIS: error= 2.46D-04 at cycle   6 NSaved=   6.
 NSaved= 6 IEnMin= 6 EnMin= -1559.00791170149     IErMin= 6 ErrMin= 2.46D-04
 ErrMax= 2.46D-04 EMaxC= 1.00D-01 BMatC= 1.11D-05 BMatP= 2.84D-04
 IDIUse=3 WtCom= 9.98D-01 WtEn= 2.46D-03
 Coeff-Com:  0.874D-03 0.121D-02 0.342D-01 0.111D+00 0.279D+00 0.574D+00
 Coeff-En:   0.000D+00 0.000D+00 0.000D+00 0.000D+00 0.000D+00 0.100D+01
 Coeff:      0.871D-03 0.120D-02 0.341D-01 0.110D+00 0.278D+00 0.575D+00
 Sum_Occ: Avg-Min  5.24375D-01 Max-Avg  6.71228D-01 Dif  1.19560D+00 (eV)
 Alpha HOCO:  -3.635730 LUCO:  -1.949132 indirect gap:   1.686598 direct gap:   1.686598 (eV)
 RMSDP=5.75D-06 MaxDP=4.60D-04 DE=-2.61D-04 OVMax= 0.00D+00

 Cycle   7  Pass 1  IDiag  1:
 RMSU=  3.87D-06    CP:  9.97D-01  1.04D+00  1.05D+00  6.34D-01  6.73D-01
                    CP:  8.00D-01
 FoFJK:  IHMeth= 1 ICntrl=     0 DoSepK=T KAlg= 1 I1Cent= 0 FoldK=F
 PrismC:  NFx=  31457280 NFxT=       128 NFxU=       126.
 PrismC:  NFx=  31457280 NFxT=       127 NFxU=       125.
 PrismC:  NFx=  31457280 NFxT=       128 NFxU=       125.
 PrismC:  NFx=  31457280 NFxT=       127 NFxU=       125.
 PrismC:  NFx=  31457280 NFxT=       127 NFxU=       125.
 PrismC:  NFx=  31457280 NFxT=       127 NFxU=       125.
 PrismC:  NFx=  31457280 NFxT=       127 NFxU=       125.
 PrismC:  NFx=  31457280 NFxT=       128 NFxU=       125.
 RepCel:  MaxNCR=      11 NClRep=      11 NMtPBC=      15.
 E= -1559.00792223502     Delta-E=       -0.000010533535 Rises=F Damp=F
 DIIS: error= 6.62D-05 at cycle   7 NSaved=   7.
 NSaved= 7 IEnMin= 7 EnMin= -1559.00792223502     IErMin= 7 ErrMin= 6.62D-05
 ErrMax= 6.62D-05 EMaxC= 1.00D-01 BMatC= 9.74D-07 BMatP= 1.11D-05
 IDIUse=1 WtCom= 1.00D+00 WtEn= 0.00D+00
 Coeff-Com: -0.173D-03-0.953D-03 0.842D-02 0.341D-01 0.100D+00 0.328D+00
 Coeff-Com:  0.530D+00
 Coeff:     -0.173D-03-0.953D-03 0.842D-02 0.341D-01 0.100D+00 0.328D+00
 Coeff:      0.530D+00
 Sum_Occ: Avg-Min  5.24125D-01 Max-Avg  6.70704D-01 Dif  1.19483D+00 (eV)
 Alpha HOCO:  -3.642506 LUCO:  -1.954161 indirect gap:   1.688345 direct gap:   1.688345 (eV)
 RMSDP=2.93D-06 MaxDP=1.83D-04 DE=-1.05D-05 OVMax= 0.00D+00

 Cycle   8  Pass 1  IDiag  1:
 RMSU=  1.50D-06    CP:  9.97D-01  1.04D+00  1.05D+00  6.38D-01  6.71D-01
                    CP:  8.10D-01  5.66D-01
 FoFJK:  IHMeth= 1 ICntrl=     0 DoSepK=T KAlg= 1 I1Cent= 0 FoldK=F
 PrismC:  NFx=  31457280 NFxT=       128 NFxU=       125.
 PrismC:  NFx=  31457280 NFxT=       127 NFxU=       125.
 PrismC:  NFx=  31457280 NFxT=       128 NFxU=       125.
 PrismC:  NFx=  31457280 NFxT=       127 NFxU=       126.
 PrismC:  NFx=  31457280 NFxT=       127 NFxU=       125.
 PrismC:  NFx=  31457280 NFxT=       128 NFxU=       125.
 PrismC:  NFx=  31457280 NFxT=       127 NFxU=       125.
 PrismC:  NFx=  31457280 NFxT=       128 NFxU=       125.
 RepCel:  MaxNCR=      11 NClRep=      11 NMtPBC=      15.
 E= -1559.00792304434     Delta-E=       -0.000000809314 Rises=F Damp=F
 DIIS: error= 4.16D-05 at cycle   8 NSaved=   8.
 NSaved= 8 IEnMin= 8 EnMin= -1559.00792304434     IErMin= 8 ErrMin= 4.16D-05
 ErrMax= 4.16D-05 EMaxC= 1.00D-01 BMatC= 2.32D-07 BMatP= 9.74D-07
 IDIUse=1 WtCom= 1.00D+00 WtEn= 0.00D+00
 Coeff-Com: -0.218D-03-0.558D-03 0.285D-02 0.138D-01 0.440D-01 0.181D+00
 Coeff-Com:  0.376D+00 0.382D+00
 Coeff:     -0.218D-03-0.558D-03 0.285D-02 0.138D-01 0.440D-01 0.181D+00
 Coeff:      0.376D+00 0.382D+00
 Sum_Occ: Avg-Min  5.24071D-01 Max-Avg  6.70578D-01 Dif  1.19465D+00 (eV)
 Alpha HOCO:  -3.643052 LUCO:  -1.954346 indirect gap:   1.688706 direct gap:   1.688706 (eV)
 RMSDP=9.58D-07 MaxDP=7.71D-05 DE=-8.09D-07 OVMax= 0.00D+00

 Cycle   9  Pass 1  IDiag  1:
 RMSU=  6.60D-07    CP:  9.97D-01  1.04D+00  1.05D+00  6.39D-01  6.72D-01
                    CP:  8.00D-01  6.30D-01  6.02D-01
 FoFJK:  IHMeth= 1 ICntrl=     0 DoSepK=T KAlg= 1 I1Cent= 0 FoldK=F
 PrismC:  NFx=  31457280 NFxT=       127 NFxU=       125.
 PrismC:  NFx=  31457280 NFxT=       128 NFxU=       125.
 PrismC:  NFx=  31457280 NFxT=       127 NFxU=       125.
 PrismC:  NFx=  31457280 NFxT=       127 NFxU=       125.
 PrismC:  NFx=  31457280 NFxT=       127 NFxU=       125.
 PrismC:  NFx=  31457280 NFxT=       128 NFxU=       125.
 PrismC:  NFx=  31457280 NFxT=       128 NFxU=       125.
 PrismC:  NFx=  31457280 NFxT=       128 NFxU=       125.
 RepCel:  MaxNCR=      11 NClRep=      11 NMtPBC=      15.
 E= -1559.00792325972     Delta-E=       -0.000000215383 Rises=F Damp=F
 DIIS: error= 1.04D-05 at cycle   9 NSaved=   9.
 NSaved= 9 IEnMin= 9 EnMin= -1559.00792325972     IErMin= 9 ErrMin= 1.04D-05
 ErrMax= 1.04D-05 EMaxC= 1.00D-01 BMatC= 3.00D-08 BMatP= 2.32D-07
 IDIUse=1 WtCom= 1.00D+00 WtEn= 0.00D+00
 Coeff-Com: -0.917D-04 0.184D-03-0.261D-03-0.717D-04 0.329D-03 0.251D-01
 Coeff-Com:  0.845D-01 0.172D+00 0.718D+00
 Coeff:     -0.917D-04 0.184D-03-0.261D-03-0.717D-04 0.329D-03 0.251D-01
 Coeff:      0.845D-01 0.172D+00 0.718D+00
 Sum_Occ: Avg-Min  5.24040D-01 Max-Avg  6.70494D-01 Dif  1.19453D+00 (eV)
 Alpha HOCO:  -3.642115 LUCO:  -1.953196 indirect gap:   1.688919 direct gap:   1.688919 (eV)
 RMSDP=4.46D-07 MaxDP=3.04D-05 DE=-2.15D-07 OVMax= 0.00D+00

 Cycle  10  Pass 1  IDiag  1:
 RMSU=  1.83D-07    CP:  9.97D-01  1.04D+00  1.05D+00  6.38D-01  6.73D-01
                    CP:  8.07D-01  6.34D-01  6.98D-01  9.58D-01
 FoFJK:  IHMeth= 1 ICntrl=     0 DoSepK=T KAlg= 1 I1Cent= 0 FoldK=F
 PrismC:  NFx=  31457280 NFxT=       127 NFxU=       125.
 PrismC:  NFx=  31457280 NFxT=       127 NFxU=       125.
 PrismC:  NFx=  31457280 NFxT=       127 NFxU=       125.
 PrismC:  NFx=  31457280 NFxT=       127 NFxU=       125.
 PrismC:  NFx=  31457280 NFxT=       127 NFxU=       125.
 PrismC:  NFx=  31457280 NFxT=       127 NFxU=       125.
 PrismC:  NFx=  31457280 NFxT=       128 NFxU=       125.
 PrismC:  NFx=  31457280 NFxT=       128 NFxU=       125.
 RepCel:  MaxNCR=      11 NClRep=      11 NMtPBC=      15.
 E= -1559.00792328767     Delta-E=       -0.000000027955 Rises=F Damp=F
 DIIS: error= 4.50D-06 at cycle  10 NSaved=  10.
 NSaved=10 IEnMin=10 EnMin= -1559.00792328767     IErMin=10 ErrMin= 4.50D-06
 ErrMax= 4.50D-06 EMaxC= 1.00D-01 BMatC= 5.45D-09 BMatP= 3.00D-08
 IDIUse=1 WtCom= 1.00D+00 WtEn= 0.00D+00
 Coeff-Com: -0.247D-04 0.117D-03-0.471D-03-0.168D-02-0.549D-02-0.715D-02
 Coeff-Com:  0.444D-02 0.626D-01 0.499D+00 0.449D+00
 Coeff:     -0.247D-04 0.117D-03-0.471D-03-0.168D-02-0.549D-02-0.715D-02
 Coeff:      0.444D-02 0.626D-01 0.499D+00 0.449D+00
 Sum_Occ: Avg-Min  5.24017D-01 Max-Avg  6.70445D-01 Dif  1.19446D+00 (eV)
 Alpha HOCO:  -3.642072 LUCO:  -1.953004 indirect gap:   1.689068 direct gap:   1.689068 (eV)
 RMSDP=1.23D-07 MaxDP=8.07D-06 DE=-2.80D-08 OVMax= 0.00D+00

 Cycle  11  Pass 1  IDiag  1:
 RMSU=  6.21D-08    CP:  9.97D-01  1.04D+00  1.05D+00  6.38D-01  6.73D-01
                    CP:  8.11D-01  6.49D-01  7.03D-01  9.90D-01  6.76D-01
 FoFJK:  IHMeth= 1 ICntrl=     0 DoSepK=T KAlg= 1 I1Cent= 0 FoldK=F
 PrismC:  NFx=  31457280 NFxT=       127 NFxU=       125.
 PrismC:  NFx=  31457280 NFxT=       127 NFxU=       125.
 PrismC:  NFx=  31457280 NFxT=       128 NFxU=       125.
 PrismC:  NFx=  31457280 NFxT=       128 NFxU=       125.
 PrismC:  NFx=  31457280 NFxT=       127 NFxU=       125.
 PrismC:  NFx=  31457280 NFxT=       127 NFxU=       125.
 PrismC:  NFx=  31457280 NFxT=       127 NFxU=       125.
 PrismC:  NFx=  31457280 NFxT=       127 NFxU=       125.
 RepCel:  MaxNCR=      11 NClRep=      11 NMtPBC=      15.
 E= -1559.00792329185     Delta-E=       -0.000000004179 Rises=F Damp=F
 DIIS: error= 2.66D-06 at cycle  11 NSaved=  11.
 NSaved=11 IEnMin=11 EnMin= -1559.00792329185     IErMin=11 ErrMin= 2.66D-06
 ErrMax= 2.66D-06 EMaxC= 1.00D-01 BMatC= 1.09D-09 BMatP= 5.45D-09
 IDIUse=1 WtCom= 1.00D+00 WtEn= 0.00D+00
 Coeff-Com:  0.724D-05-0.897D-04-0.239D-04-0.252D-03-0.118D-02-0.267D-02
 Coeff-Com: -0.431D-02 0.336D-02 0.751D-01 0.127D+00 0.803D+00
 Coeff:      0.724D-05-0.897D-04-0.239D-04-0.252D-03-0.118D-02-0.267D-02
 Coeff:     -0.431D-02 0.336D-02 0.751D-01 0.127D+00 0.803D+00
 Sum_Occ: Avg-Min  5.23998D-01 Max-Avg  6.70404D-01 Dif  1.19440D+00 (eV)
 Alpha HOCO:  -3.642427 LUCO:  -1.953219 indirect gap:   1.689208 direct gap:   1.689208 (eV)
 RMSDP=1.18D-07 MaxDP=1.10D-05 DE=-4.18D-09 OVMax= 0.00D+00

 Cycle  12  Pass 1  IDiag  1:
 RMSU=  2.85D-08    CP:  9.97D-01  1.04D+00  1.05D+00  6.39D-01  6.73D-01
                    CP:  8.11D-01  6.49D-01  7.11D-01  1.01D+00  7.17D-01
                    CP:  1.07D+00
 FoFJK:  IHMeth= 1 ICntrl=     0 DoSepK=T KAlg= 1 I1Cent= 0 FoldK=F
 PrismC:  NFx=  31457280 NFxT=       127 NFxU=       125.
 PrismC:  NFx=  31457280 NFxT=       128 NFxU=       125.
 PrismC:  NFx=  31457280 NFxT=       127 NFxU=       125.
 PrismC:  NFx=  31457280 NFxT=       128 NFxU=       125.
 PrismC:  NFx=  31457280 NFxT=       127 NFxU=       125.
 PrismC:  NFx=  31457280 NFxT=       127 NFxU=       125.
 PrismC:  NFx=  31457280 NFxT=       127 NFxU=       125.
 PrismC:  NFx=  31457280 NFxT=       127 NFxU=       125.
 RepCel:  MaxNCR=      11 NClRep=      11 NMtPBC=      15.
 E= -1559.00792329238     Delta-E=       -0.000000000527 Rises=F Damp=F
 DIIS: error= 2.03D-06 at cycle  12 NSaved=  12.
 NSaved=12 IEnMin=12 EnMin= -1559.00792329238     IErMin=12 ErrMin= 2.03D-06
 ErrMax= 2.03D-06 EMaxC= 1.00D-01 BMatC= 7.01D-10 BMatP= 1.09D-09
 IDIUse=1 WtCom= 1.00D+00 WtEn= 0.00D+00
 Coeff-Com:  0.265D-05-0.102D-05-0.343D-04-0.155D-03-0.578D-03-0.219D-02
 Coeff-Com: -0.495D-02-0.418D-02 0.465D-02 0.320D-01 0.451D+00 0.524D+00
 Coeff:      0.265D-05-0.102D-05-0.343D-04-0.155D-03-0.578D-03-0.219D-02
 Coeff:     -0.495D-02-0.418D-02 0.465D-02 0.320D-01 0.451D+00 0.524D+00
 Sum_Occ: Avg-Min  5.23998D-01 Max-Avg  6.70404D-01 Dif  1.19440D+00 (eV)
 Alpha HOCO:  -3.642315 LUCO:  -1.953113 indirect gap:   1.689202 direct gap:   1.689202 (eV)
 RMSDP=5.03D-08 MaxDP=5.05D-06 DE=-5.27D-10 OVMax= 0.00D+00

 SCF Done:  E(RB+HF-LYP) =  -1559.00792329     A.U. after   12 cycles
             Convg  =    0.5029D-07             -V/T =  2.0040
             S**2   =   0.0000
 KE= 1.552857485765D+03 PE= 3.588872912085D-01 EE=-3.112224296349D+03
   72 alpha orbitals occupied out of  186 functions.
 alpha orb energies kxyz=     0     0     0   0.000  -0.274  -0.216  -0.208  -0.134 |  -0.072   0.015   0.044   0.049   0.000 eV
 alpha orb energies kxyz=    84     1     1   0.000  -0.225  -0.224  -0.205  -0.204 |   0.004   0.006   0.032   0.032   0.000 eV
 alpha orb energies kxyz=    83     1     1   0.000  -0.226  -0.223  -0.205  -0.203 |   0.002   0.008   0.031   0.032   0.000 eV
 alpha orb energies kxyz=    82     1     1   0.000  -0.228  -0.222  -0.206  -0.202 |   0.000   0.010   0.031   0.032   0.000 eV
 alpha orb energies kxyz=    81     1     1   0.000  -0.229  -0.221  -0.206  -0.201 |  -0.002   0.012   0.031   0.032   0.000 eV
 alpha orb energies kxyz=    80     1     1   0.000  -0.231  -0.220  -0.207  -0.200 |  -0.004   0.014   0.031   0.033   0.000 eV
 alpha orb energies kxyz=    79     1     1   0.000  -0.232  -0.219  -0.207  -0.198 |  -0.006   0.016   0.031   0.033   0.000 eV
 alpha orb energies kxyz=    78     1     1   0.000  -0.234  -0.219  -0.207  -0.197 |  -0.008   0.018   0.031   0.033   0.000 eV
 alpha orb energies kxyz=    77     1     1   0.000  -0.236  -0.218  -0.207  -0.195 |  -0.010   0.020   0.031   0.034   0.000 eV
 alpha orb energies kxyz=    76     1     1   0.000  -0.237  -0.218  -0.208  -0.193 |  -0.012   0.022   0.031   0.034   0.000 eV
 alpha orb energies kxyz=    75     1     1   0.000  -0.239  -0.217  -0.208  -0.192 |  -0.014   0.023   0.031   0.034   0.000 eV
 alpha orb energies kxyz=    74     1     1   0.000  -0.241  -0.217  -0.208  -0.190 |  -0.016   0.025   0.031   0.035   0.000 eV
 alpha orb energies kxyz=    73     1     1   0.000  -0.242  -0.217  -0.208  -0.188 |  -0.019   0.027   0.031   0.035   0.000 eV
 alpha orb energies kxyz=    72     1     1   0.000  -0.244  -0.217  -0.208  -0.186 |  -0.021   0.028   0.032   0.036   0.000 eV
 alpha orb energies kxyz=    71     1     1   0.000  -0.246  -0.217  -0.208  -0.184 |  -0.023   0.029   0.032   0.036   0.000 eV
 alpha orb energies kxyz=    70     1     1   0.000  -0.247  -0.217  -0.208  -0.182 |  -0.025   0.030   0.033   0.036   0.000 eV
 alpha orb energies kxyz=    69     1     1   0.000  -0.249  -0.216  -0.208  -0.180 |  -0.027   0.030   0.034   0.037   0.000 eV
 alpha orb energies kxyz=    68     1     1   0.000  -0.250  -0.216  -0.208  -0.177 |  -0.029   0.030   0.035   0.037   0.000 eV
 alpha orb energies kxyz=    67     1     1   0.000  -0.252  -0.216  -0.208  -0.175 |  -0.031   0.030   0.036   0.038   0.000 eV
 alpha orb energies kxyz=    66     1     1   0.000  -0.253  -0.216  -0.208  -0.173 |  -0.033   0.029   0.036   0.039   0.000 eV
 alpha orb energies kxyz=    65     1     1   0.000  -0.255  -0.216  -0.208  -0.171 |  -0.036   0.028   0.037   0.039   0.000 eV
 alpha orb energies kxyz=    64     1     1   0.000  -0.256  -0.216  -0.208  -0.169 |  -0.038   0.028   0.037   0.040   0.000 eV
 alpha orb energies kxyz=    63     1     1   0.000  -0.258  -0.216  -0.208  -0.167 |  -0.040   0.027   0.037   0.040   0.000 eV
 alpha orb energies kxyz=    62     1     1   0.000  -0.259  -0.216  -0.208  -0.164 |  -0.042   0.026   0.037   0.041   0.000 eV
 alpha orb energies kxyz=    61     1     1   0.000  -0.260  -0.216  -0.208  -0.162 |  -0.044   0.025   0.038   0.041   0.000 eV
 alpha orb energies kxyz=    60     1     1   0.000  -0.262  -0.216  -0.208  -0.160 |  -0.046   0.024   0.038   0.042   0.000 eV
 alpha orb energies kxyz=    59     1     1   0.000  -0.263  -0.216  -0.208  -0.158 |  -0.048   0.023   0.038   0.043   0.000 eV
 alpha orb energies kxyz=    58     1     1   0.000  -0.264  -0.216  -0.208  -0.156 |  -0.051   0.022   0.039   0.043   0.000 eV
 alpha orb energies kxyz=    57     1     1   0.000  -0.265  -0.216  -0.208  -0.154 |  -0.053   0.021   0.039   0.044   0.000 eV
 alpha orb energies kxyz=    56     1     1   0.000  -0.266  -0.216  -0.208  -0.151 |  -0.055   0.021   0.040   0.044   0.000 eV
 alpha orb energies kxyz=    55     1     1   0.000  -0.267  -0.216  -0.208  -0.149 |  -0.057   0.020   0.040   0.045   0.000 eV
 alpha orb energies kxyz=    54     1     1   0.000  -0.268  -0.216  -0.208  -0.147 |  -0.058   0.019   0.040   0.046   0.000 eV
 alpha orb energies kxyz=    53     1     1   0.000  -0.269  -0.216  -0.208  -0.146 |  -0.060   0.018   0.041   0.046   0.000 eV
 alpha orb energies kxyz=    52     1     1   0.000  -0.270  -0.216  -0.208  -0.144 |  -0.062   0.018   0.041   0.047   0.000 eV
 alpha orb energies kxyz=    51     1     1   0.000  -0.271  -0.216  -0.208  -0.142 |  -0.064   0.017   0.042   0.047   0.000 eV
 alpha orb energies kxyz=    50     1     1   0.000  -0.271  -0.216  -0.208  -0.140 |  -0.065   0.017   0.042   0.048   0.000 eV
 alpha orb energies kxyz=    49     1     1   0.000  -0.272  -0.216  -0.208  -0.139 |  -0.067   0.016   0.042   0.048   0.000 eV
 alpha orb energies kxyz=    48     1     1   0.000  -0.273  -0.216  -0.208  -0.138 |  -0.068   0.016   0.043   0.048   0.000 eV
 alpha orb energies kxyz=    47     1     1   0.000  -0.273  -0.216  -0.208  -0.136 |  -0.069   0.015   0.043   0.049   0.000 eV
 alpha orb energies kxyz=    46     1     1   0.000  -0.273  -0.216  -0.208  -0.135 |  -0.070   0.015   0.043   0.049   0.000 eV
 alpha orb energies kxyz=    45     1     1   0.000  -0.274  -0.216  -0.208  -0.135 |  -0.071   0.015   0.043   0.049   0.000 eV
 alpha orb energies kxyz=    44     1     1   0.000  -0.274  -0.216  -0.208  -0.134 |  -0.072   0.015   0.043   0.049   0.000 eV
 alpha orb energies kxyz=    43     1     1   0.000  -0.274  -0.216  -0.208  -0.134 |  -0.072   0.015   0.044   0.049   0.000 eV
 HOCO           at k-point     0 kxyz=     0     0     0  -3.641425 eV
 LUCO           at k-point     0 kxyz=     0     0     0  -1.953984 eV
 Indirect gap                                              1.687441 eV
 Max direct gap at k-point     1 kxyz=    84     1     1   5.662572 eV
 Min direct gap at k-point     0 kxyz=     0     0     0   1.687441 eV
 Leave Link  502 at Wed Jul  1 15:44:25 2009, MaxMem= 1073741824 cpu:    2555.7
 (Enter /opt/g03/l601.exe)
 Copying SCF densities to generalized density rwf, ISCF=0 IROHF=0.

 **********************************************************************

            Population analysis using the SCF density.

 **********************************************************************

 Alpha  occ. eigenvalues --  -88.87983 -88.87981 -19.17836 -19.17829 -19.17828
 Alpha  occ. eigenvalues --  -19.17825 -10.25324 -10.25313 -10.25309 -10.25299
 Alpha  occ. eigenvalues --  -10.24364 -10.24363 -10.24328 -10.24327 -10.22042
 Alpha  occ. eigenvalues --  -10.22038 -10.22004 -10.22002  -7.95478  -7.95473
 Alpha  occ. eigenvalues --   -5.91883  -5.91878  -5.91487  -5.91485  -5.90808
 Alpha  occ. eigenvalues --   -5.90808  -1.08038  -1.07978  -1.04445  -1.04391
 Alpha  occ. eigenvalues --   -0.88599  -0.85092  -0.79219  -0.78042  -0.77751
 Alpha  occ. eigenvalues --   -0.70596  -0.70437  -0.70165  -0.66043  -0.63305
 Alpha  occ. eigenvalues --   -0.61900  -0.57272  -0.54408  -0.53256  -0.53162
 Alpha  occ. eigenvalues --   -0.52163  -0.50633  -0.48412  -0.48310  -0.45773
 Alpha  occ. eigenvalues --   -0.43951  -0.43917  -0.43857  -0.43102  -0.42697
 Alpha  occ. eigenvalues --   -0.40685  -0.38827  -0.38188  -0.37783  -0.35576
 Alpha  occ. eigenvalues --   -0.34095  -0.33783  -0.33450  -0.32485  -0.31654
 Alpha  occ. eigenvalues --   -0.30441  -0.29408  -0.28515  -0.27395  -0.21634
 Alpha  occ. eigenvalues --   -0.20772  -0.13382
 Alpha virt. eigenvalues --   -0.07181   0.01464   0.04352   0.04930   0.07288
 Alpha virt. eigenvalues --    0.07400   0.08217   0.08365   0.09888   0.11257
 Alpha virt. eigenvalues --    0.12230   0.13091   0.13470   0.14705   0.14816
 Alpha virt. eigenvalues --    0.15026   0.15893   0.16472   0.18063   0.18757
 Alpha virt. eigenvalues --    0.18769   0.20739   0.21334   0.24681   0.27003
 Alpha virt. eigenvalues --    0.29434   0.29907   0.30000   0.31630   0.34882
 Alpha virt. eigenvalues --    0.38133   0.38670   0.39173   0.39467   0.39868
 Alpha virt. eigenvalues --    0.42343   0.42480   0.45821   0.47477   0.47778
 Alpha virt. eigenvalues --    0.52741   0.53509   0.53633   0.54066   0.54949
 Alpha virt. eigenvalues --    0.55327   0.56807   0.56913   0.57625   0.59896
 Alpha virt. eigenvalues --    0.60702   0.61027   0.61439   0.63007   0.63252
 Alpha virt. eigenvalues --    0.63708   0.64727   0.65539   0.66349   0.66575
 Alpha virt. eigenvalues --    0.74225   0.76212   0.77113   0.78884   0.79124
 Alpha virt. eigenvalues --    0.79432   0.80831   0.81286   0.81970   0.82857
 Alpha virt. eigenvalues --    0.83581   0.87019   0.87399   0.87652   0.89114
 Alpha virt. eigenvalues --    0.89656   0.91647   0.91777   0.96771   0.96927
 Alpha virt. eigenvalues --    0.99125   1.03929   1.08239   1.09889   1.12231
 Alpha virt. eigenvalues --    1.12783   1.12839   1.13257   1.17342   1.17561
 Alpha virt. eigenvalues --    1.20045   1.20808   1.21239   1.21327   1.24640
 Alpha virt. eigenvalues --    1.26540   1.29582   1.32465   1.37394   1.44731
 Alpha virt. eigenvalues --    1.48942   1.51013   1.53847   1.54839   1.55535
 Alpha virt. eigenvalues --    1.58125   1.61044   1.65831   1.74951   1.77407
 Alpha virt. eigenvalues --    2.00240   2.04568   2.13928   2.23505
          Condensed to atoms (all electrons):
              1          2          3          4          5          6
     1  C    5.753318   0.282667   0.221008  -0.017704  -0.047430   0.006664
     2  C    0.282667   5.202958  -0.063379   0.146371  -0.017793   0.008963
     3  S    0.221008  -0.063379  15.188883  -0.063367   0.221412  -0.055527
     4  C   -0.017704   0.146371  -0.063367   5.203423   0.283121  -0.004093
     5  C   -0.047430  -0.017793   0.221412   0.283121   5.751155   0.284805
     6  C    0.006664   0.008963  -0.055527  -0.004093   0.284805   5.751941
     7  C    0.008927  -0.001185  -0.000121   0.004915  -0.004009   0.282601
     8  S   -0.055437  -0.000124   0.000405  -0.000114  -0.055599   0.221252
     9  C   -0.004055   0.004910  -0.000114  -0.001185   0.008952  -0.017315
    10  C    0.284670  -0.003787  -0.055616   0.008892   0.006716  -0.047545
    11  O    0.004873  -0.065398   0.002040   0.224642  -0.091920   0.005715
    12  O   -0.092050   0.224654   0.002041  -0.065327   0.004843   0.000178
    13  O    0.005679   0.000391   0.013448  -0.000023   0.000177   0.004844
    14  O    0.000179  -0.000023   0.013495   0.000392   0.005725  -0.091953
    15  C    0.005070  -0.021995  -0.000079  -0.027937  -0.000109   0.000005
    16  C   -0.000105  -0.027855  -0.000079  -0.022101   0.005044  -0.000182
    17  C   -0.000178   0.000003   0.000112   0.000000   0.000005  -0.000108
    18  C    0.000005   0.000000   0.000111   0.000003  -0.000183   0.005028
    19  H    0.000010  -0.000001   0.000030   0.000000   0.000006  -0.000422
    20  H   -0.000006   0.000000  -0.000210   0.000000  -0.000001   0.000039
    21  H   -0.000001   0.000000  -0.000212   0.000000  -0.000006  -0.000127
    22  H    0.000006   0.000000   0.000030  -0.000001   0.000011   0.000314
    23  H    0.000039   0.000802   0.000007   0.002791  -0.000126  -0.000006
    24  H   -0.000430   0.001003  -0.000036   0.000028   0.000303   0.000010
    25  H   -0.000127   0.002786   0.000007   0.000805   0.000039  -0.000001
    26  H    0.000291  -0.000006  -0.000035   0.000990  -0.000424   0.000006
              7          8          9         10         11         12
     1  C    0.008927  -0.055437  -0.004055   0.284670   0.004873  -0.092050
     2  C   -0.001185  -0.000124   0.004910  -0.003787  -0.065398   0.224654
     3  S   -0.000121   0.000405  -0.000114  -0.055616   0.002040   0.002041
     4  C    0.004915  -0.000114  -0.001185   0.008892   0.224642  -0.065327
     5  C   -0.004009  -0.055599   0.008952   0.006716  -0.091920   0.004843
     6  C    0.282601   0.221252  -0.017315  -0.047545   0.005715   0.000178
     7  C    5.204864  -0.063210   0.144861  -0.017335   0.000390  -0.000023
     8  S   -0.063210  15.188897  -0.063537   0.221664   0.013458   0.013482
     9  C    0.144861  -0.063537   5.205022   0.282652  -0.000023   0.000391
    10  C   -0.017335   0.221664   0.282652   5.750709   0.000176   0.005742
    11  O    0.000390   0.013458  -0.000023   0.000176   8.379923  -0.002747
    12  O   -0.000023   0.013482   0.000391   0.005742  -0.002747   8.380065
    13  O   -0.065472   0.002042   0.224715  -0.091767   0.000000   0.000000
    14  O    0.224929   0.002042  -0.065580   0.004846   0.000000   0.000000
    15  C    0.000000   0.000114   0.000003  -0.000177  -0.049955   0.204604
    16  C    0.000003   0.000114   0.000000   0.000005   0.204627  -0.049885
    17  C   -0.028059  -0.000081  -0.021975   0.005063   0.000000   0.000000
    18  C   -0.022111  -0.000079  -0.027916  -0.000101   0.000000   0.000000
    19  H    0.000992  -0.000035  -0.000013   0.000291   0.000000   0.000000
    20  H    0.000808   0.000007   0.002786  -0.000128   0.000000   0.000000
    21  H    0.002801   0.000007   0.000801   0.000039   0.000000   0.000000
    22  H    0.000035  -0.000036   0.000997  -0.000431   0.000000   0.000000
    23  H    0.000000  -0.000211   0.000000  -0.000001  -0.034633   0.002945
    24  H   -0.000001   0.000030   0.000000   0.000006  -0.044037  -0.000955
    25  H    0.000000  -0.000211   0.000000  -0.000006   0.002947  -0.034639
    26  H    0.000000   0.000030  -0.000001   0.000009  -0.000948  -0.044016
             13         14         15         16         17         18
     1  C    0.005679   0.000179   0.005070  -0.000105  -0.000178   0.000005
     2  C    0.000391  -0.000023  -0.021995  -0.027855   0.000003   0.000000
     3  S    0.013448   0.013495  -0.000079  -0.000079   0.000112   0.000111
     4  C   -0.000023   0.000392  -0.027937  -0.022101   0.000000   0.000003
     5  C    0.000177   0.005725  -0.000109   0.005044   0.000005  -0.000183
     6  C    0.004844  -0.091953   0.000005  -0.000182  -0.000108   0.005028
     7  C   -0.065472   0.224929   0.000000   0.000003  -0.028059  -0.022111
     8  S    0.002042   0.002042   0.000114   0.000114  -0.000081  -0.000079
     9  C    0.224715  -0.065580   0.000003   0.000000  -0.021975  -0.027916
    10  C   -0.091767   0.004846  -0.000177   0.000005   0.005063  -0.000101
    11  O    0.000000   0.000000  -0.049955   0.204627   0.000000   0.000000
    12  O    0.000000   0.000000   0.204604  -0.049885   0.000000   0.000000
    13  O    8.379989  -0.002753   0.000000   0.000000   0.204549  -0.049895
    14  O   -0.002753   8.379805   0.000000   0.000000  -0.050003   0.204613
    15  C    0.000000   0.000000   5.036843   0.262056   0.000000   0.000000
    16  C    0.000000   0.000000   0.262056   5.037099   0.000000   0.000000
    17  C    0.204549  -0.050003   0.000000   0.000000   5.037001   0.262046
    18  C   -0.049895   0.204613   0.000000   0.000000   0.262046   5.037414
    19  H   -0.044067  -0.000944   0.000000   0.000000   0.356669  -0.048460
    20  H   -0.034677   0.002949   0.000000   0.000000   0.360364  -0.027733
    21  H    0.002943  -0.034625   0.000000   0.000000  -0.027754   0.360458
    22  H   -0.000949  -0.044083   0.000000   0.000000  -0.048513   0.356581
    23  H    0.000000   0.000000  -0.027776   0.360443   0.000000   0.000000
    24  H    0.000000   0.000000  -0.048496   0.356613   0.000000   0.000000
    25  H    0.000000   0.000000   0.360384  -0.027728   0.000000   0.000000
    26  H    0.000000   0.000000   0.356662  -0.048451   0.000000   0.000000
             19         20         21         22         23         24
     1  C    0.000010  -0.000006  -0.000001   0.000006   0.000039  -0.000430
     2  C   -0.000001   0.000000   0.000000   0.000000   0.000802   0.001003
     3  S    0.000030  -0.000210  -0.000212   0.000030   0.000007  -0.000036
     4  C    0.000000   0.000000   0.000000  -0.000001   0.002791   0.000028
     5  C    0.000006  -0.000001  -0.000006   0.000011  -0.000126   0.000303
     6  C   -0.000422   0.000039  -0.000127   0.000314  -0.000006   0.000010
     7  C    0.000992   0.000808   0.002801   0.000035   0.000000  -0.000001
     8  S   -0.000035   0.000007   0.000007  -0.000036  -0.000211   0.000030
     9  C   -0.000013   0.002786   0.000801   0.000997   0.000000   0.000000
    10  C    0.000291  -0.000128   0.000039  -0.000431  -0.000001   0.000006
    11  O    0.000000   0.000000   0.000000   0.000000  -0.034633  -0.044037
    12  O    0.000000   0.000000   0.000000   0.000000   0.002945  -0.000955
    13  O   -0.044067  -0.034677   0.002943  -0.000949   0.000000   0.000000
    14  O   -0.000944   0.002949  -0.034625  -0.044083   0.000000   0.000000
    15  C    0.000000   0.000000   0.000000   0.000000  -0.027776  -0.048496
    16  C    0.000000   0.000000   0.000000   0.000000   0.360443   0.356613
    17  C    0.356669   0.360364  -0.027754  -0.048513   0.000000   0.000000
    18  C   -0.048460  -0.027733   0.360458   0.356581   0.000000   0.000000
    19  H    0.595553  -0.036569  -0.001724   0.005903   0.000000   0.000000
    20  H   -0.036569   0.565970   0.000704  -0.001710   0.000000   0.000000
    21  H   -0.001724   0.000704   0.565703  -0.036507   0.000000   0.000000
    22  H    0.005903  -0.001710  -0.036507   0.595563   0.000000   0.000000
    23  H    0.000000   0.000000   0.000000   0.000000   0.565719  -0.036501
    24  H    0.000000   0.000000   0.000000   0.000000  -0.036501   0.595405
    25  H    0.000000   0.000000   0.000000   0.000000   0.000706  -0.001716
    26  H    0.000000   0.000000   0.000000   0.000000  -0.001724   0.005903
             25         26
     1  C   -0.000127   0.000291
     2  C    0.002786  -0.000006
     3  S    0.000007  -0.000035
     4  C    0.000805   0.000990
     5  C    0.000039  -0.000424
     6  C   -0.000001   0.000006
     7  C    0.000000   0.000000
     8  S   -0.000211   0.000030
     9  C    0.000000  -0.000001
    10  C   -0.000006   0.000009
    11  O    0.002947  -0.000948
    12  O   -0.034639  -0.044016
    13  O    0.000000   0.000000
    14  O    0.000000   0.000000
    15  C    0.360384   0.356662
    16  C   -0.027728  -0.048451
    17  C    0.000000   0.000000
    18  C    0.000000   0.000000
    19  H    0.000000   0.000000
    20  H    0.000000   0.000000
    21  H    0.000000   0.000000
    22  H    0.000000   0.000000
    23  H    0.000706  -0.001724
    24  H   -0.001716   0.005903
    25  H    0.565804  -0.036553
    26  H   -0.036553   0.595428
 Mulliken atomic charges:
              1
     1  C   -0.355882
     2  C    0.326036
     3  S    0.575748
     4  C    0.325480
     5  C   -0.354712
     6  C   -0.355086
     7  C    0.325401
     8  S    0.575131
     9  C    0.325624
    10  C   -0.354586
    11  O   -0.549129
    12  O   -0.549303
    13  O   -0.549173
    14  O   -0.549011
    15  C   -0.049217
    16  C   -0.049618
    17  C   -0.049142
    18  C   -0.049781
    19  H    0.172780
    20  H    0.167406
    21  H    0.167501
    22  H    0.172790
    23  H    0.167528
    24  H    0.172871
    25  H    0.167503
    26  H    0.172840
 Sum of Mulliken charges=   0.00000
 Atomic charges with hydrogens summed into heavy atoms:
              1
     1  C   -0.355882
     2  C    0.326036
     3  S    0.575748
     4  C    0.325480
     5  C   -0.354712
     6  C   -0.355086
     7  C    0.325401
     8  S    0.575131
     9  C    0.325624
    10  C   -0.354586
    11  O   -0.549129
    12  O   -0.549303
    13  O   -0.549173
    14  O   -0.549011
    15  C    0.291126
    16  C    0.290781
    17  C    0.291045
    18  C    0.290510
    19  H    0.000000
    20  H    0.000000
    21  H    0.000000
    22  H    0.000000
    23  H    0.000000
    24  H    0.000000
    25  H    0.000000
    26  H    0.000000
 Sum of Mulliken charges=   0.00000
[...]
    23  H    5.165726   3.791131   5.902749   3.276070   4.469892
    24  H    4.285492   3.024392   5.133832   2.780897   3.973109
    25  H    4.469583   3.276004   5.902470   3.791077   5.165550
    26  H    3.969029   2.778741   5.129339   3.022593   4.282002
                    6          7          8          9         10
     6  C    0.000000
     7  C    1.380582   0.000000
     8  S    1.838683   2.634260   0.000000
     9  C    2.370433   1.419670   2.634144   0.000000
    10  C    2.615648   2.370609   1.838654   1.380601   0.000000
    11  O    7.295345   7.342508   5.639984   6.200579   4.972882
    12  O    4.740664   5.160350   2.939558   4.403575   3.023278
    13  O    3.675253   2.463207   3.995131   1.397808   2.434890
    14  O    2.434966   1.397862   3.995297   2.463345   3.675489
    15  C    6.099660   6.584738   4.273512   5.821625   4.445013
    16  C    7.160483   7.473267   5.372197   6.528055   5.186217
    17  C    4.131637   2.762744   4.963274   2.397708   3.688596
    18  C    3.689654   2.398290   4.964497   2.763137   4.132437
    19  H    4.282268   3.022695   5.129387   2.778840   3.969231
    20  H    5.165537   3.791065   5.902474   3.275955   4.469589
    21  H    4.469878   3.276046   5.902807   3.791138   5.165745
    22  H    3.972744   2.780712   5.133801   3.024244   4.285297
    23  H    8.148008   8.506043   6.336198   7.573729   6.226771
    24  H    7.156413   7.482010   5.409401   6.573883   5.265119
    25  H    6.259792   6.943411   4.432741   6.363964   4.997814
    26  H    6.378608   6.826621   4.618927   6.055246   4.728295
                   11         12         13         14         15
    11  O    0.000000
    12  O    2.897727   0.000000
    13  O    6.549414   5.302998   0.000000
    14  O    8.629113   6.549410   2.897754   0.000000
    15  C    2.447818   1.469223   6.652686   7.974646   0.000000
    16  C    1.469428   2.447405   7.144037   8.833886   1.520988
    17  C    7.974643   6.652681   1.469212   2.447794   8.044365
    18  C    8.833884   7.144001   2.447416   1.469419   8.544481
    19  H    8.189846   6.836938   2.102550   2.694492   8.261862
    20  H    8.340206   7.335976   2.047261   3.408643   8.666811
    21  H    9.873652   8.178802   3.408456   2.047283   9.595114
    22  H    8.825353   7.202781   2.693964   2.102660   8.529041
    23  H    2.047295   3.408450   8.178823   9.873655   2.176958
    24  H    2.102691   2.693956   7.202894   8.825363   2.165127
    25  H    3.408660   2.047317   7.336022   8.340235   1.090534
    26  H    2.694515   2.102586   6.836917   8.189889   1.096022
                   16         17         18         19         20
    16  C    0.000000
    17  C    8.544516   0.000000
    18  C    9.269944   1.520972   0.000000
    19  H    8.682255   1.096019   2.165211   0.000000
    20  H    9.065061   1.090534   2.176707   1.789633   0.000000
    21  H   10.306618   2.176948   1.090547   2.516969   2.571821
    22  H    9.318884   2.165121   1.096028   3.076475   2.516564
    23  H    1.090546   9.595135  10.306608   9.757983  10.088739
    24  H    1.096031   8.529158   9.318932   8.527435   9.093558
    25  H    2.176713   8.666858   9.065052   8.823207   9.375221
    26  H    2.165215   8.261833   8.682222   8.614346   8.823106
                   21         22         23         24         25
    21  H    0.000000
    22  H    1.789575   0.000000
    23  H   11.353381  10.311344   0.000000
    24  H   10.311406   9.494987   1.789565   0.000000
    25  H   10.088751   9.093438   2.571812   2.516553   0.000000
    26  H    9.757960   8.527320   2.516957   3.076476   1.789621
                   26
    26  H    0.000000
 Symmetry turned off by external request.
 Symmetry turned off:
 Cannot cope with ghost atoms or with translation vectors.
 Stoichiometry    C12H8O4S2
 Framework group  C1[X(C12H8O4S2)]
 Deg. of freedom    72
 Full point group                 C1
 Leave Link  202 at Wed Jul  1 17:15:13 2009, MaxMem= 1073741824 cpu:       0.1
 (Enter /opt/g03/l601.exe)
 Copying SCF densities to generalized density rwf, ISCF=0 IROHF=0.

 **********************************************************************

            Population analysis using the SCF density.

 **********************************************************************

 Alpha  occ. eigenvalues --  -88.87997 -88.87995 -19.17840 -19.17839 -19.17837
 Alpha  occ. eigenvalues --  -19.17836 -10.25314 -10.25314 -10.25299 -10.25299
 Alpha  occ. eigenvalues --  -10.24379 -10.24379 -10.24344 -10.24343 -10.22064
 Alpha  occ. eigenvalues --  -10.22062 -10.22028 -10.22026  -7.95487  -7.95483
 Alpha  occ. eigenvalues --   -5.91892  -5.91888  -5.91496  -5.91495  -5.90817
 Alpha  occ. eigenvalues --   -5.90817  -1.08053  -1.07993  -1.04452  -1.04399
 Alpha  occ. eigenvalues --   -0.88585  -0.85065  -0.79252  -0.78024  -0.77740
 Alpha  occ. eigenvalues --   -0.70574  -0.70474  -0.70167  -0.66051  -0.63378
 Alpha  occ. eigenvalues --   -0.61864  -0.57297  -0.54418  -0.53256  -0.53159
 Alpha  occ. eigenvalues --   -0.52173  -0.50655  -0.48409  -0.48304  -0.45790
 Alpha  occ. eigenvalues --   -0.43952  -0.43917  -0.43849  -0.43096  -0.42734
 Alpha  occ. eigenvalues --   -0.40681  -0.38838  -0.38189  -0.37793  -0.35576
 Alpha  occ. eigenvalues --   -0.34093  -0.33788  -0.33461  -0.32462  -0.31660
 Alpha  occ. eigenvalues --   -0.30463  -0.29394  -0.28509  -0.27421  -0.21655
 Alpha  occ. eigenvalues --   -0.20791  -0.13300
 Alpha virt. eigenvalues --   -0.07302   0.01393   0.04359   0.04878   0.07301
 Alpha virt. eigenvalues --    0.07391   0.08208   0.08355   0.09891   0.11260
 Alpha virt. eigenvalues --    0.12240   0.13096   0.13458   0.14708   0.14818
 Alpha virt. eigenvalues --    0.15020   0.15913   0.16463   0.18083   0.18754
 Alpha virt. eigenvalues --    0.18773   0.20730   0.21328   0.24597   0.27003
 Alpha virt. eigenvalues --    0.29378   0.29898   0.30022   0.31744   0.34832
 Alpha virt. eigenvalues --    0.38056   0.38679   0.39172   0.39463   0.39861
 Alpha virt. eigenvalues --    0.42367   0.42424   0.45828   0.47507   0.47767
 Alpha virt. eigenvalues --    0.52758   0.53515   0.53640   0.54095   0.54962
 Alpha virt. eigenvalues --    0.55336   0.56790   0.56921   0.57645   0.59896
 Alpha virt. eigenvalues --    0.60620   0.61046   0.61446   0.63002   0.63182
 Alpha virt. eigenvalues --    0.63698   0.64621   0.65504   0.66405   0.66570
 Alpha virt. eigenvalues --    0.74204   0.76143   0.77102   0.78882   0.79096
 Alpha virt. eigenvalues --    0.79430   0.80833   0.81280   0.81961   0.82885
 Alpha virt. eigenvalues --    0.83560   0.87016   0.87402   0.87673   0.89111
 Alpha virt. eigenvalues --    0.89675   0.91648   0.91776   0.96769   0.96925
 Alpha virt. eigenvalues --    0.99096   1.03881   1.08111   1.09914   1.12271
 Alpha virt. eigenvalues --    1.12771   1.12837   1.13227   1.17337   1.17505
 Alpha virt. eigenvalues --    1.20043   1.20798   1.21254   1.21269   1.24705
 Alpha virt. eigenvalues --    1.26547   1.29462   1.32459   1.37265   1.44785
 Alpha virt. eigenvalues --    1.48936   1.51005   1.53810   1.54820   1.55518
 Alpha virt. eigenvalues --    1.58138   1.61059   1.65853   1.74953   1.77488
 Alpha virt. eigenvalues --    2.00233   2.04558   2.13882   2.23478
          Condensed to atoms (all electrons):
              1          2          3          4          5          6
     1  C    5.749810   0.282171   0.221319  -0.017315  -0.047175   0.006631
     2  C    0.282171   5.206589  -0.063137   0.143687  -0.017239   0.009033
     3  S    0.221319  -0.063137  15.189146  -0.063151   0.221379  -0.055635
     4  C   -0.017315   0.143687  -0.063151   5.206041   0.282336  -0.004023
     5  C   -0.047175  -0.017239   0.221379   0.282336   5.749748   0.285959
     6  C    0.006631   0.009033  -0.055635  -0.004023   0.285959   5.749648
     7  C    0.009028  -0.001188  -0.000117   0.004873  -0.004041   0.282345
     8  S   -0.055623  -0.000109   0.000402  -0.000115  -0.055628   0.221376
     9  C   -0.004067   0.004879  -0.000109  -0.001188   0.009032  -0.017248
    10  C    0.286184  -0.004068  -0.055615   0.009030   0.006629  -0.047167
    11  O    0.004830  -0.065692   0.002038   0.224961  -0.091659   0.005726
    12  O   -0.091768   0.225084   0.002040  -0.065759   0.004831   0.000176
    13  O    0.005730   0.000391   0.013485  -0.000023   0.000176   0.004830
    14  O    0.000176  -0.000023   0.013478   0.000390   0.005726  -0.091666
    15  C    0.005055  -0.022053  -0.000080  -0.027996  -0.000109   0.000005
    16  C   -0.000111  -0.028110  -0.000081  -0.021935   0.005086  -0.000184
    17  C   -0.000185   0.000003   0.000112   0.000000   0.000005  -0.000109
    18  C    0.000006   0.000000   0.000113   0.000003  -0.000184   0.005083
    19  H    0.000011  -0.000001   0.000030   0.000000   0.000006  -0.000430
    20  H   -0.000006   0.000000  -0.000211   0.000000  -0.000001   0.000039
    21  H   -0.000001   0.000000  -0.000211   0.000000  -0.000006  -0.000126
    22  H    0.000006   0.000000   0.000030  -0.000001   0.000011   0.000285
    23  H    0.000039   0.000807   0.000007   0.002797  -0.000126  -0.000006
    24  H   -0.000424   0.001027  -0.000035  -0.000030   0.000284   0.000011
    25  H   -0.000126   0.002809   0.000007   0.000802   0.000038  -0.000001
    26  H    0.000302   0.000004  -0.000036   0.001026  -0.000430   0.000006
              7          8          9         10         11         12
     1  C    0.009028  -0.055623  -0.004067   0.286184   0.004830  -0.091768
     2  C   -0.001188  -0.000109   0.004879  -0.004068  -0.065692   0.225084
     3  S   -0.000117   0.000402  -0.000109  -0.055615   0.002038   0.002040
     4  C    0.004873  -0.000115  -0.001188   0.009030   0.224961  -0.065759
     5  C   -0.004041  -0.055628   0.009032   0.006629  -0.091659   0.004831
     6  C    0.282345   0.221376  -0.017248  -0.047167   0.005726   0.000176
     7  C    5.206002  -0.063142   0.143772  -0.017318   0.000389  -0.000023
     8  S   -0.063142  15.189133  -0.063125   0.221314   0.013480   0.013485
     9  C    0.143772  -0.063125   5.206456   0.282218  -0.000023   0.000391
    10  C   -0.017318   0.221314   0.282218   5.749772   0.000176   0.005731
    11  O    0.000389   0.013480  -0.000023   0.000176   8.379898  -0.002769
    12  O   -0.000023   0.013485   0.000391   0.005731  -0.002769   8.379725
    13  O   -0.065749   0.002039   0.225069  -0.091760   0.000000   0.000000
    14  O    0.224969   0.002037  -0.065684   0.004829   0.000000   0.000000
    15  C    0.000000   0.000112   0.000003  -0.000185  -0.049955   0.204507
    16  C    0.000003   0.000113   0.000000   0.000006   0.204444  -0.050038
    17  C   -0.028001  -0.000080  -0.022051   0.005054   0.000000   0.000000
    18  C   -0.021943  -0.000081  -0.028104  -0.000111   0.000000   0.000000
    19  H    0.001025  -0.000036   0.000005   0.000302   0.000000   0.000000
    20  H    0.000802   0.000007   0.002809  -0.000126   0.000000   0.000000
    21  H    0.002797   0.000007   0.000806   0.000039   0.000000   0.000000
    22  H   -0.000028  -0.000035   0.001028  -0.000424   0.000000   0.000000
    23  H    0.000000  -0.000211   0.000000  -0.000001  -0.034686   0.002950
    24  H   -0.000001   0.000030   0.000000   0.000006  -0.044057  -0.000964
    25  H    0.000000  -0.000212   0.000000  -0.000006   0.002946  -0.034660
    26  H    0.000000   0.000030  -0.000001   0.000011  -0.000966  -0.044087
             13         14         15         16         17         18
     1  C    0.005730   0.000176   0.005055  -0.000111  -0.000185   0.000006
     2  C    0.000391  -0.000023  -0.022053  -0.028110   0.000003   0.000000
     3  S    0.013485   0.013478  -0.000080  -0.000081   0.000112   0.000113
     4  C   -0.000023   0.000390  -0.027996  -0.021935   0.000000   0.000003
     5  C    0.000176   0.005726  -0.000109   0.005086   0.000005  -0.000184
     6  C    0.004830  -0.091666   0.000005  -0.000184  -0.000109   0.005083
     7  C   -0.065749   0.224969   0.000000   0.000003  -0.028001  -0.021943
     8  S    0.002039   0.002037   0.000112   0.000113  -0.000080  -0.000081
     9  C    0.225069  -0.065684   0.000003   0.000000  -0.022051  -0.028104
    10  C   -0.091760   0.004829  -0.000185   0.000006   0.005054  -0.000111
    11  O    0.000000   0.000000  -0.049955   0.204444   0.000000   0.000000
    12  O    0.000000   0.000000   0.204507  -0.050038   0.000000   0.000000
    13  O    8.379745  -0.002767   0.000000   0.000000   0.204503  -0.050032
    14  O   -0.002767   8.379883   0.000000   0.000000  -0.049960   0.204440
    15  C    0.000000   0.000000   5.037398   0.262013   0.000000   0.000000
    16  C    0.000000   0.000000   0.262013   5.037325   0.000000   0.000000
    17  C    0.204503  -0.049960   0.000000   0.000000   5.037384   0.262009
    18  C   -0.050032   0.204440   0.000000   0.000000   0.262009   5.037355
    19  H   -0.044092  -0.000966   0.000000   0.000000   0.356660  -0.048557
    20  H   -0.034666   0.002947   0.000000   0.000000   0.360452  -0.027746
    21  H    0.002950  -0.034685   0.000000   0.000000  -0.027697   0.360399
    22  H   -0.000964  -0.044060   0.000000   0.000000  -0.048528   0.356692
    23  H    0.000000   0.000000  -0.027694   0.360394   0.000000   0.000000
    24  H    0.000000   0.000000  -0.048527   0.356696   0.000000   0.000000
    25  H    0.000000   0.000000   0.360452  -0.027748   0.000000   0.000000
    26  H    0.000000   0.000000   0.356653  -0.048560   0.000000   0.000000
             19         20         21         22         23         24
     1  C    0.000011  -0.000006  -0.000001   0.000006   0.000039  -0.000424
     2  C   -0.000001   0.000000   0.000000   0.000000   0.000807   0.001027
     3  S    0.000030  -0.000211  -0.000211   0.000030   0.000007  -0.000035
     4  C    0.000000   0.000000   0.000000  -0.000001   0.002797  -0.000030
     5  C    0.000006  -0.000001  -0.000006   0.000011  -0.000126   0.000284
     6  C   -0.000430   0.000039  -0.000126   0.000285  -0.000006   0.000011
     7  C    0.001025   0.000802   0.002797  -0.000028   0.000000  -0.000001
     8  S   -0.000036   0.000007   0.000007  -0.000035  -0.000211   0.000030
     9  C    0.000005   0.002809   0.000806   0.001028   0.000000   0.000000
    10  C    0.000302  -0.000126   0.000039  -0.000424  -0.000001   0.000006
    11  O    0.000000   0.000000   0.000000   0.000000  -0.034686  -0.044057
    12  O    0.000000   0.000000   0.000000   0.000000   0.002950  -0.000964
    13  O   -0.044092  -0.034666   0.002950  -0.000964   0.000000   0.000000
    14  O   -0.000966   0.002947  -0.034685  -0.044060   0.000000   0.000000
    15  C    0.000000   0.000000   0.000000   0.000000  -0.027694  -0.048527
    16  C    0.000000   0.000000   0.000000   0.000000   0.360394   0.356696
    17  C    0.356660   0.360452  -0.027697  -0.048528   0.000000   0.000000
    18  C   -0.048557  -0.027746   0.360399   0.356692   0.000000   0.000000
    19  H    0.595601  -0.036518  -0.001704   0.005904   0.000000   0.000000
    20  H   -0.036518   0.565789   0.000697  -0.001711   0.000000   0.000000
    21  H   -0.001704   0.000697   0.565854  -0.036549   0.000000   0.000000
    22  H    0.005904  -0.001711  -0.036549   0.595552   0.000000   0.000000
    23  H    0.000000   0.000000   0.000000   0.000000   0.565868  -0.036555
    24  H    0.000000   0.000000   0.000000   0.000000  -0.036555   0.595557
    25  H    0.000000   0.000000   0.000000   0.000000   0.000697  -0.001711
    26  H    0.000000   0.000000   0.000000   0.000000  -0.001704   0.005903
             25         26
     1  C   -0.000126   0.000302
     2  C    0.002809   0.000004
     3  S    0.000007  -0.000036
     4  C    0.000802   0.001026
     5  C    0.000038  -0.000430
     6  C   -0.000001   0.000006
     7  C    0.000000   0.000000
     8  S   -0.000212   0.000030
     9  C    0.000000  -0.000001
    10  C   -0.000006   0.000011
    11  O    0.002946  -0.000966
    12  O   -0.034660  -0.044087
    13  O    0.000000   0.000000
    14  O    0.000000   0.000000
    15  C    0.360452   0.356653
    16  C   -0.027748  -0.048560
    17  C    0.000000   0.000000
    18  C    0.000000   0.000000
    19  H    0.000000   0.000000
    20  H    0.000000   0.000000
    21  H    0.000000   0.000000
    22  H    0.000000   0.000000
    23  H    0.000697  -0.001704
    24  H   -0.001711   0.005903
    25  H    0.565787  -0.036518
    26  H   -0.036518   0.595607
 Mulliken atomic charges:
              1
     1  C   -0.354497
     2  C    0.325135
     3  S    0.574833
     4  C    0.325588
     5  C   -0.354648
     6  C   -0.354561
     7  C    0.325546
     8  S    0.574832
     9  C    0.325132
    10  C   -0.354518
    11  O   -0.549080
    12  O   -0.548852
    13  O   -0.548865
    14  O   -0.549063
    15  C   -0.049599
    16  C   -0.049312
    17  C   -0.049572
    18  C   -0.049342
    19  H    0.172761
    20  H    0.167445
    21  H    0.167430
    22  H    0.172793
    23  H    0.167424
    24  H    0.172789
    25  H    0.167442
    26  H    0.172758
 Sum of Mulliken charges=   0.00000
 Atomic charges with hydrogens summed into heavy atoms:
              1
     1  C   -0.354497
     2  C    0.325135
     3  S    0.574833
     4  C    0.325588
     5  C   -0.354648
     6  C   -0.354561
     7  C    0.325546
     8  S    0.574832
     9  C    0.325132
    10  C   -0.354518
    11  O   -0.549080
    12  O   -0.548852
    13  O   -0.548865
    14  O   -0.549063
    15  C    0.290601
    16  C    0.290901
    17  C    0.290634
    18  C    0.290881
    19  H    0.000000
    20  H    0.000000
    21  H    0.000000
    22  H    0.000000
    23  H    0.000000
    24  H    0.000000
    25  H    0.000000
    26  H    0.000000
 Sum of Mulliken charges=   0.00000
 Charge=     0.0000 electrons
 Dipole moment (field-independent basis, Debye):
    X=     0.0000    Y=    -0.0001    Z=     0.0000  Tot=     0.0001
 Leave Link  601 at Wed Jul  1 17:15:35 2009, MaxMem= 1073741824 cpu:       0.0
 (Enter /opt/g03/l9999.exe)

 Test job not archived.
 1\1\GINC-EARTH\FOpt\RB3LYP\6-31G\C12H8O4S2\LOADL\01-Jul-2009\0\\#p opt
  b3lyp/6-31g iop(5/103=4)\\edt\\0,1\C,-3.3064155765,0.164021193,-0.003
 1953365\C,-2.7079858782,1.4073986079,-0.0467108196\S,-1.9988854977,-1.
 1280003465,0.0389761434\C,-1.2884010409,1.4072171191,-0.0433092912\C,-
 0.6907566672,0.1632696138,-0.0053234289\C,0.691028929,-0.1632656974,0.
 0063866598\C,1.2886130523,-1.4072193483,0.0448465705\S,1.9992076453,1.
 1280621275,-0.0371722552\C,2.7082789003,-1.4074173249,0.04814371\C,3.3
 066761794,-0.1640084404,0.0043853655\O,-0.5489967475,2.5926156089,-0.0
 897850344\O,-3.4467070883,2.5936042534,-0.0800132458\O,3.4469630191,-2
 .5936275111,0.0815810106\O,0.5492261149,-2.5926068545,0.0915530158\C,-
 2.6602717421,3.7613376712,-0.5001725146\C,-1.3353618336,3.7875406482,0
 .2463732883\C,2.6605091443,-3.7613560627,0.501680126\C,1.3355609602,-3
 .787495698,-0.2447674408\H,2.4928152819,-3.7133875389,1.5837318816\H,3
 .2795934681,-4.6261644776,0.2606273118\H,0.7158924205,-4.6327935809,0.
 0565225642\H,1.5034042488,-3.816144254,-1.3274883673\H,-0.7156784597,4
 .6328162902,-0.0549442753\H,-1.5032987974,3.8163149132,1.3290801627\H,
 -3.2793545383,4.626182337,-0.259246313\H,-2.4924827795,3.7133048947,-1
 .5822095833\TV,7.9951063566,-0.0024215082,-0.0007938995\\Version=IBM64
 -G03RevE.01\HF=-1559.0079556\RMSD=2.096e-08\RMSF=2.497e-05\Thermal=0.\
 Dipole=0.,-0.0000407,-0.0000047\PG=C01 [X(C12H8O4S2)]\\@


 FROM AN ANONYMOUS WRITER, ON PERSPECTIVE:

 MAN, DESPITE HIS ARTISTIC PRETENSIONS, HIS SOPHISTICATION AND MANY 
 ACCOMPLISHMENTS, OWES THE FACT OF HIS EXISTENCE TO A SIX-INCH LAYER OF 
 TOPSOIL AND THE FACT THAT IT RAINS.
 Job cpu time:  0 days  4 hours  9 minutes  0.7 seconds.
 File lengths (MBytes):  RWF=    288 Int=      0 D2E=      0 Chk=     22 Scr=      1
 Normal termination of Gaussian 03 at Wed Jul  1 17:22:18 2009.
