 Entering Gaussian System, Link 0=g03
 Input=Mo4OCl4-sp-b.com
 Output=Mo4OCl4-sp-b.log
 Initial command:
 /usr/sweet/package/Sweet/gaussian-03/@sys/apps/gaussian-03//g03/l1.exe /tmp/adamlt/Gau-11011.inp -scrdir=/tmp/adamlt/
 Entering Link 1 = /usr/sweet/package/Sweet/gaussian-03/@sys/apps/gaussian-03//g03/l1.exe PID=     11013.
  
 Copyright (c) 1988,1990,1992,1993,1995,1998,2003,2004, Gaussian, Inc.
                  All Rights Reserved.
  
 This is the Gaussian(R) 03 program.  It is based on the
 the Gaussian(R) 98 system (copyright 1998, Gaussian, Inc.),
 the Gaussian(R) 94 system (copyright 1995, Gaussian, Inc.),
 the Gaussian 92(TM) system (copyright 1992, Gaussian, Inc.),
 the Gaussian 90(TM) system (copyright 1990, Gaussian, Inc.),
 the Gaussian 88(TM) system (copyright 1988, Gaussian, Inc.),
 the Gaussian 86(TM) system (copyright 1986, Carnegie Mellon
 University), and the Gaussian 82(TM) system (copyright 1983,
 Carnegie Mellon University). Gaussian is a federally registered
 trademark of Gaussian, Inc.
  
 This software contains proprietary and confidential information,
 including trade secrets, belonging to Gaussian, Inc.
  
 This software is provided under written license and may be
 used, copied, transmitted, or stored only in accord with that
 written license.
  
 The following legend is applicable only to US Government
 contracts under FAR:
  
                    RESTRICTED RIGHTS LEGEND
  
 Use, reproduction and disclosure by the US Government is
 subject to restrictions as set forth in subparagraphs (a)
 and (c) of the Commercial Computer Software - Restricted
 Rights clause in FAR 52.227-19.
  
 Gaussian, Inc.
 340 Quinnipiac St., Bldg. 40, Wallingford CT 06492
  
  
 ---------------------------------------------------------------
 Warning -- This program may not be used in any manner that
 competes with the business of Gaussian, Inc. or will provide
 assistance to any competitor of Gaussian, Inc.  The licensee
 of this program is prohibited from giving any competitor of
 Gaussian, Inc. access to this program.  By using this program,
 the user acknowledges that Gaussian, Inc. is engaged in the
 business of creating and licensing software in the field of
 computational chemistry and represents and warrants to the
 licensee that it is not a competitor of Gaussian, Inc. and that
 it will not use this program in any manner prohibited above.
 ---------------------------------------------------------------
  

 Cite this work as:
 Gaussian 03, Revision C.02,
 M. J. Frisch, G. W. Trucks, H. B. Schlegel, G. E. Scuseria, 
 M. A. Robb, J. R. Cheeseman, J. A. Montgomery, Jr., T. Vreven, 
 K. N. Kudin, J. C. Burant, J. M. Millam, S. S. Iyengar, J. Tomasi, 
 V. Barone, B. Mennucci, M. Cossi, G. Scalmani, N. Rega, 
 G. A. Petersson, H. Nakatsuji, M. Hada, M. Ehara, K. Toyota, 
 R. Fukuda, J. Hasegawa, M. Ishida, T. Nakajima, Y. Honda, O. Kitao, 
 H. Nakai, M. Klene, X. Li, J. E. Knox, H. P. Hratchian, J. B. Cross, 
 C. Adamo, J. Jaramillo, R. Gomperts, R. E. Stratmann, O. Yazyev, 
 A. J. Austin, R. Cammi, C. Pomelli, J. W. Ochterski, P. Y. Ayala, 
 K. Morokuma, G. A. Voth, P. Salvador, J. J. Dannenberg, 
 V. G. Zakrzewski, S. Dapprich, A. D. Daniels, M. C. Strain, 
 O. Farkas, D. K. Malick, A. D. Rabuck, K. Raghavachari, 
 J. B. Foresman, J. V. Ortiz, Q. Cui, A. G. Baboul, S. Clifford, 
 J. Cioslowski, B. B. Stefanov, G. Liu, A. Liashenko, P. Piskorz, 
 I. Komaromi, R. L. Martin, D. J. Fox, T. Keith, M. A. Al-Laham, 
 C. Y. Peng, A. Nanayakkara, M. Challacombe, P. M. W. Gill, 
 B. Johnson, W. Chen, M. W. Wong, C. Gonzalez, and J. A. Pople, 
 Gaussian, Inc., Wallingford CT, 2004.
 
 ******************************************
 Gaussian 03:  Su64S-G03RevC.02 12-Jun-2004
                13-Oct-2006 
 ******************************************
 %chk=mo4ocl4
 %NProcShared=2
 Will use up to    2 processors via shared memory.
 %Mem=500MB
 ------------------------------------------------------------
 #p gfinput iop(6/7=3) iop(3/33=1) #B3LYP/Gen pseudo=read #SP
 ------------------------------------------------------------
 1/38=1/1;
 2/17=6,18=5,40=1/2;
 3/5=7,11=2,16=1,17=8,24=10,25=1,30=1,33=1,74=-5/1,2,3;
 4//1;
 5/5=2,32=1,38=5/2;
 6/7=3,8=2,9=2,10=2,28=1/1;
 99/5=1,9=1/99;
 Leave Link    1 at Fri Oct 13 10:18:21 2006, MaxMem=   65536000 cpu:       1.1
 (Enter /usr/sweet/package/Sweet/gaussian-03/@sys/apps/gaussian-03//g03/l101.exe)
 -------------------------------
 Mo4OCl4 restricted single point
 -------------------------------
 Symbolic Z-matrix:
 Charge = -2 Multiplicity = 1
 Mo                    0.00033  -0.00033   0.05181 
 O                     0.00021  -0.00021   1.7415 
 Cl                    1.71173  -1.71173  -0.65985 
 Cl                   -1.71099  -1.71174  -0.66008 
 Cl                   -1.711     1.711    -0.66031 
 Cl                    1.71174   1.71099  -0.66008 
 
                    Isotopes and Nuclear Properties:

  Atom         1           2           3           4           5           6
 IAtWgt=          98          16          35          35          35          35
 AtmWgt=  97.9055000  15.9949146  34.9688527  34.9688527  34.9688527  34.9688527
 IAtSpn=           0           0           3           3           3           3
 AtZEff=   0.0000000   0.0000000   0.0000000   0.0000000   0.0000000   0.0000000
 AtQMom=   0.0000000   0.0000000  -8.2490000  -8.2490000  -8.2490000  -8.2490000
 AtGFac=   0.0000000   0.0000000   0.8218740   0.8218740   0.8218740   0.8218740
 Leave Link  101 at Fri Oct 13 10:18:23 2006, MaxMem=   65536000 cpu:       0.2
 (Enter /usr/sweet/package/Sweet/gaussian-03/@sys/apps/gaussian-03//g03/l202.exe)
                          Input orientation:                          
 ---------------------------------------------------------------------
 Center     Atomic     Atomic              Coordinates (Angstroms)
 Number     Number      Type              X           Y           Z
 ---------------------------------------------------------------------
    1         42             0        0.000325   -0.000325    0.051810
    2          8             0        0.000206   -0.000206    1.741504
    3         17             0        1.711727   -1.711727   -0.659846
    4         17             0       -1.710992   -1.711738   -0.660079
    5         17             0       -1.711004    1.711004   -0.660311
    6         17             0        1.711738    1.710992   -0.660079
 ---------------------------------------------------------------------
                    Distance matrix (angstroms):
                    1          2          3          4          5
     1  Mo   0.000000
     2  O    1.689694   0.000000
     3  Cl   2.522746   3.409559   0.000000
     4  Cl   2.522762   3.409566   3.422719   0.000000
     5  Cl   2.522778   3.409574   4.840473   3.422742   0.000000
     6  Cl   2.522762   3.409566   3.422719   4.840471   3.422742
                    6
     6  Cl   0.000000
 This structure is nearly, but not quite of a higher symmetry.
 Consider Symm=Loose if the higher symmetry is desired.
 Stoichiometry    Cl4MoO(2-)
 Framework group  CS[SG(Cl2MoO),X(Cl2)]
 Deg. of freedom     8
 Full point group                 CS      NOp   2
 Largest Abelian subgroup         CS      NOp   2
 Largest concise Abelian subgroup CS      NOp   2
                         Standard orientation:                         
 ---------------------------------------------------------------------
 Center     Atomic     Atomic              Coordinates (Angstroms)
 Number     Number      Type              X           Y           Z
 ---------------------------------------------------------------------
    1         42             0        0.000006    0.295685    0.000000
    2          8             0        0.000004    1.985379    0.000000
    3         17             0        2.420224   -0.416209    0.000000
    4         17             0        0.000004   -0.416204    2.420236
    5         17             0       -2.420249   -0.416198    0.000000
    6         17             0        0.000004   -0.416204   -2.420236
 ---------------------------------------------------------------------
 Rotational constants (GHZ):      0.9998081      0.9998076      0.6168228
 Leave Link  202 at Fri Oct 13 10:18:25 2006, MaxMem=   65536000 cpu:       0.9
 (Enter /usr/sweet/package/Sweet/gaussian-03/@sys/apps/gaussian-03//g03/l301.exe)
 General basis read from cards:  (5D, 7F)
                         Coordinates in L301:                         
 ---------------------------------------------------------------------
 Center     Atomic     Atomic              Coordinates (Angstroms)
 Number     Number      Type              X           Y           Z
 ---------------------------------------------------------------------
    1         42             0        0.000006    0.295685    0.000000
    2          8             0        0.000004    1.985379    0.000000
    3         17             0        2.420224   -0.416209    0.000000
    4         17             0        0.000004   -0.416204    2.420236
    5         17             0       -2.420249   -0.416198    0.000000
    6         17             0        0.000004   -0.416204   -2.420236
 ---------------------------------------------------------------------
 Centers:   1  3  4  5  6
 LanL2MB
 ****
 Centers:   2
 6-31G(d)
 ****
 AO basis set in the form of general basis input:
  1 0
 S   3 1.00       0.000000000000
      0.2361000000D+01 -0.9121761947D+00
      0.1309000000D+01  0.1147745245D+01
      0.4500000000D+00  0.6097110301D+00
 S   5 1.00       0.000000000000
      0.2361000000D+01  0.3263689073D+00
      0.1309000000D+01 -0.4555179101D+00
      0.4500000000D+00 -0.4656029104D+00
      0.1681000000D+00  0.4035789090D+00
      0.4230000000D-01  0.8725347194D+00
 P   3 1.00       0.000000000000
      0.4895000000D+01 -0.9082579957D-01
      0.1044000000D+01  0.7042898967D+00
      0.3877000000D+00  0.3973178981D+00
 P   3 1.00       0.000000000000
      0.4995000000D+00 -0.5096380172D-01
      0.7800000000D-01  0.4883774164D+00
      0.2470000000D-01  0.6157657207D+00
 D   4 1.00       0.000000000000
      0.2993000000D+01  0.4526799963D-01
      0.1063000000D+01  0.4297718965D+00
      0.3721000000D+00  0.4976328960D+00
      0.1178000000D+00  0.2658489979D+00
 ****
  2 0
 S   6 1.00       0.000000000000
      0.5484671660D+04  0.1831074430D-02
      0.8252349460D+03  0.1395017220D-01
      0.1880469580D+03  0.6844507810D-01
      0.5296450000D+02  0.2327143360D+00
      0.1689757040D+02  0.4701928980D+00
      0.5799635340D+01  0.3585208530D+00
 SP   3 1.00       0.000000000000
      0.1553961625D+02 -0.1107775495D+00  0.7087426823D-01
      0.3599933586D+01 -0.1480262627D+00  0.3397528391D+00
      0.1013761750D+01  0.1130767015D+01  0.7271585773D+00
 SP   1 1.00       0.000000000000
      0.2700058226D+00  0.1000000000D+01  0.1000000000D+01
 D   1 1.00       0.000000000000
      0.8000000000D+00  0.1000000000D+01
 ****
  3 0
 S   3 1.00       0.000000000000
      0.2231000000D+01 -0.2958917917D+00
      0.4720000000D+00  0.7573125787D+00
      0.1631000000D+00  0.4350997877D+00
 P   3 1.00       0.000000000000
      0.6296000000D+01 -0.3486499820D-01
      0.6333000000D+00  0.5562548712D+00
      0.1819000000D+00  0.5565878712D+00
 ****
  4 0
 S   3 1.00       0.000000000000
      0.2231000000D+01 -0.2958917917D+00
      0.4720000000D+00  0.7573125787D+00
      0.1631000000D+00  0.4350997877D+00
 P   3 1.00       0.000000000000
      0.6296000000D+01 -0.3486499820D-01
      0.6333000000D+00  0.5562548712D+00
      0.1819000000D+00  0.5565878712D+00
 ****
  5 0
 S   3 1.00       0.000000000000
      0.2231000000D+01 -0.2958917917D+00
      0.4720000000D+00  0.7573125787D+00
      0.1631000000D+00  0.4350997877D+00
 P   3 1.00       0.000000000000
      0.6296000000D+01 -0.3486499820D-01
      0.6333000000D+00  0.5562548712D+00
      0.1819000000D+00  0.5565878712D+00
 ****
  6 0
 S   3 1.00       0.000000000000
      0.2231000000D+01 -0.2958917917D+00
      0.4720000000D+00  0.7573125787D+00
      0.1631000000D+00  0.4350997877D+00
 P   3 1.00       0.000000000000
      0.6296000000D+01 -0.3486499820D-01
      0.6333000000D+00  0.5562548712D+00
      0.1819000000D+00  0.5565878712D+00
 ****

 ===================================================================================================================================
 Pseudopotential Parameters 
 ===================================================================================================================================
  Center     Atomic      Valence      Angular      Power                                                       Coordinates
  Number     Number     Electrons     Momentum     of R      Exponent        Coefficient                X           Y           Z
 ===================================================================================================================================
 Centers:   1  3  4  5  6
    1         42           14                                                                       0.000011  0.558765  0.000000
                                      F and up 
                                                     0      537.9667807       -0.04694920
                                                     1      147.8982938      -20.20800840
                                                     2       45.7358898     -106.21163020
                                                     2       13.2911467      -41.81073680
                                                     2        4.7059961       -4.20541030
                                      S - F
                                                     0      110.2991760        2.80637170
                                                     1       23.2014645       44.51620120
                                                     2        5.3530131       82.77852270
                                      P - F
                                                     0       63.2901397        4.94208760
                                                     1       23.3315302       25.86049760
                                                     2       24.6759423      132.47087420
                                                     2        4.6493040       57.31497940
                                      D - F
                                                     0      104.4839977        3.00545910
                                                     1       66.2307245       26.36378510
                                                     2       39.1283176      183.38491990
                                                     2       13.1164437       98.44530680
                                                     2        3.6280263       22.49013770
    2          8                                                                                    0.000007  3.751823  0.000000
                                   No pseudopotential on this center.
    3         17            7                                                                       4.573561 -0.786520  0.000000
                                      D and up 
                                                     1       94.8130000      -10.00000000
                                                     2      165.6440000       66.27291700
                                                     2       30.8317000      -28.96859500
                                                     2       10.5841000      -12.86633700
                                                     2        3.7704000       -1.71021700
                                      S - D
                                                     0      128.8391000        3.00000000
                                                     1      120.3786000       12.85285100
                                                     2       63.5622000      275.67239800
                                                     2       18.0695000      115.67771200
                                                     2        3.8142000       35.06060900
                                      P - D
                                                     0      216.5263000        5.00000000
                                                     1       46.5723000        7.47948600
                                                     2      147.4685000      613.03200000
                                                     2       48.9869000      280.80068500
                                                     2       13.2096000      107.87882400
                                                     2        3.1831000       15.34395600
    4         17            7                                                                       0.000007 -0.786511  4.573582
                                      D and up 
                                                     1       94.8130000      -10.00000000
                                                     2      165.6440000       66.27291700
                                                     2       30.8317000      -28.96859500
                                                     2       10.5841000      -12.86633700
                                                     2        3.7704000       -1.71021700
                                      S - D
                                                     0      128.8391000        3.00000000
                                                     1      120.3786000       12.85285100
                                                     2       63.5622000      275.67239800
                                                     2       18.0695000      115.67771200
                                                     2        3.8142000       35.06060900
                                      P - D
                                                     0      216.5263000        5.00000000
                                                     1       46.5723000        7.47948600
                                                     2      147.4685000      613.03200000
                                                     2       48.9869000      280.80068500
                                                     2       13.2096000      107.87882400
                                                     2        3.1831000       15.34395600
    5         17            7                                                                      -4.573607 -0.786499  0.000000
                                      D and up 
                                                     1       94.8130000      -10.00000000
                                                     2      165.6440000       66.27291700
                                                     2       30.8317000      -28.96859500
                                                     2       10.5841000      -12.86633700
                                                     2        3.7704000       -1.71021700
                                      S - D
                                                     0      128.8391000        3.00000000
                                                     1      120.3786000       12.85285100
                                                     2       63.5622000      275.67239800
                                                     2       18.0695000      115.67771200
                                                     2        3.8142000       35.06060900
                                      P - D
                                                     0      216.5263000        5.00000000
                                                     1       46.5723000        7.47948600
                                                     2      147.4685000      613.03200000
                                                     2       48.9869000      280.80068500
                                                     2       13.2096000      107.87882400
                                                     2        3.1831000       15.34395600
    6         17            7                                                                       0.000007 -0.786511 -4.573582
                                      D and up 
                                                     1       94.8130000      -10.00000000
                                                     2      165.6440000       66.27291700
                                                     2       30.8317000      -28.96859500
                                                     2       10.5841000      -12.86633700
                                                     2        3.7704000       -1.71021700
                                      S - D
                                                     0      128.8391000        3.00000000
                                                     1      120.3786000       12.85285100
                                                     2       63.5622000      275.67239800
                                                     2       18.0695000      115.67771200
                                                     2        3.8142000       35.06060900
                                      P - D
                                                     0      216.5263000        5.00000000
                                                     1       46.5723000        7.47948600
                                                     2      147.4685000      613.03200000
                                                     2       48.9869000      280.80068500
                                                     2       13.2096000      107.87882400
                                                     2        3.1831000       15.34395600
 ===================================================================================================================================
 LdAtmC:  AtmChg=    14.000000     8.000000     7.000000     7.000000     7.000000
 LdAtmC:  AtmChg=     7.000000
 AtZEff=-206.6400000  -5.6000000-204.0000000-204.0000000-204.0000000-204.0000000
 NEqShl: 
              1            2
     1            1            1
     2            2            2
     3            3            3
     4            4            4
     5            5            5
     6            6            6
     7            7            7
     8            8            8
     9            9            9
    10           10           10
    11           11           11
    12           12           16
    13           13           17
    14           14           14
    15           15           15
    16           16           12
    17           17           13
 NEqBas: 
              1            2
     1            1            1
     2            2            2
     3            3            3
     4            4            4
     5            5           -5
     6            6            6
     7            7            7
     8            8           -8
     9            9            9
    10           10           10
    11           11           11
    12           12           12
    13           13          -13
    14           14          -14
    15           15           15
    16           16           16
    17           17           17
    18           18           18
    19           19          -19
    20           20           20
    21           21           21
    22           22           22
    23           23          -23
    24           24           24
    25           25           25
    26           26           26
    27           27           27
    28           28          -28
    29           29          -29
    30           30           30
    31           31           31
    32           32           32
    33           33          -33
    34           34           42
    35           35           43
    36           36           44
    37           37          -45
    38           38           38
    39           39           39
    40           40           40
    41           41          -41
    42           42           34
    43           43           35
    44           44           36
    45           45          -37
 NEqShl: 
              1            2
     1            1            1
     2            2            2
     3            3            3
     4            4            4
     5            5            5
     6            6            6
     7            7            7
     8            8            8
     9            9            9
    10           10           10
    11           11           11
    12           12           16
    13           13           17
    14           14           14
    15           15           15
    16           16           12
    17           17           13
 NEqBas: 
              1            2
     1            1            1
     2            2            2
     3            3            3
     4            4            4
     5            5           -5
     6            6            6
     7            7            7
     8            8           -8
     9            9            9
    10           10          -10
    11           11          -11
    12           12           12
    13           13           13
    14           14           14
    15           15           15
    16           16           16
    17           17           17
    18           18          -18
    19           19           19
    20           20           20
    21           21           21
    22           22          -22
    23           23           23
    24           24          -24
    25           25          -25
    26           26           26
    27           27           27
    28           28           28
    29           29           29
    30           30           30
    31           31          -31
    32           32           40
    33           33           41
    34           34           42
    35           35          -43
    36           36           36
    37           37           37
    38           38           38
    39           39          -39
    40           40           32
    41           41           33
    42           42           34
    43           43          -35
 There are    29 symmetry adapted basis functions of A'  symmetry.
   1         1   1
   2         2   2
   3         3   3
   4         4   4
   5         6   6
   6         7   7
   7         9   9
   8        12  12
   9        13  13
  10        14  14
  11        15  15
  12        16  16
  13        17  17
  14        19  19
  15        20  20
  16        21  21
  17        23  23
  18        26  26
  19        27  27
  20        28  28
  21        29  29
  22        30  30
  23        32  40
  24        33  41
  25        34  42
  26        35 -43
  27        36  36
  28        37  37
  29        38  38
 There are    14 symmetry adapted basis functions of A"  symmetry.
  30         5   5
  31         8   8
  32        10  10
  33        11  11
  34        18  18
  35        22  22
  36        24  24
  37        25  25
  38        31  31
  39        32 -40
  40        33 -41
  41        34 -42
  42        35  43
  43        39  39
 Order= 1 2
 Reordered character table:
              1            2
     1            1            1
     2            1           -1
 Integral buffers will be    131072 words long.
 Raffenetti 2 integral format.
 Two-electron integral symmetry is turned on.
    43 basis functions,   126 primitive gaussians,    45 cartesian basis functions
    26 alpha electrons       26 beta electrons
       nuclear repulsion energy       193.0846628283 Hartrees.
 IExCor= 402 DFT=T Ex=B+HF Corr=LYP ExCW=0 ScaHFX=  0.200000
 ScaDFX=  0.800000  0.720000  1.000000  0.810000
 IRadAn=      0 IRanWt=     -1 IRanGd=            0 ICorTp=0
 NAtoms=    6 NActive=    6 NUniq=    5 SFac= 1.58D+00 NAtFMM=   60 Big=F
 Leave Link  301 at Fri Oct 13 10:18:28 2006, MaxMem=   65536000 cpu:       0.9
 (Enter /usr/sweet/package/Sweet/gaussian-03/@sys/apps/gaussian-03//g03/l302.exe)
 NPDir=0 NMtPBC=     1 NCelOv=     1 NCel=       1 NClECP=     1 NCelD=      1
         NCelK=      1 NCelE2=     1 NClLst=     1 CellRange=     0.0.
 One-electron integrals computed using PRISM.
 One-electron integral symmetry used in STVInt
 Entering OneElI...
 Calculate overlap and kinetic energy integrals
    NBasis =  43  MinDer = 0  MaxDer = 0
 Requested accuracy = 0.1000D-12
 Symmetry will be used
 PrsmSu:  NPrtUS=   1 ThrOK=F
 PRISM was handed    65464915 working-precision words and   153 shell-pairs
 *** Overlap *** 
                1             2             3             4             5
      1  0.100000D+01
      2 -0.520030D-03  0.100000D+01
      3  0.000000D+00  0.000000D+00  0.100000D+01
      4  0.000000D+00  0.000000D+00  0.000000D+00  0.100000D+01
      5  0.000000D+00  0.000000D+00  0.000000D+00  0.000000D+00  0.100000D+01
      6  0.000000D+00  0.000000D+00  0.165584D+00  0.000000D+00  0.000000D+00
      7  0.000000D+00  0.000000D+00  0.000000D+00  0.165584D+00  0.000000D+00
      8  0.000000D+00  0.000000D+00  0.000000D+00  0.000000D+00  0.165584D+00
      9  0.000000D+00  0.000000D+00  0.000000D+00  0.000000D+00  0.000000D+00
     10  0.000000D+00  0.000000D+00  0.000000D+00  0.000000D+00  0.000000D+00
     11  0.000000D+00  0.000000D+00  0.000000D+00  0.000000D+00  0.000000D+00
     12  0.000000D+00  0.000000D+00  0.000000D+00  0.000000D+00  0.000000D+00
     13  0.000000D+00  0.000000D+00  0.000000D+00  0.000000D+00  0.000000D+00
     14  0.187647D-02  0.321838D-01  0.000000D+00  0.756475D-02  0.000000D+00
     15  0.276928D-01  0.187074D+00  0.000000D+00  0.727069D-01  0.000000D+00
     16  0.000000D+00  0.000000D+00  0.163325D-01  0.000000D+00  0.000000D+00
     17 -0.417966D-01 -0.398743D-01  0.000000D+00 -0.918439D-01  0.000000D+00
     18  0.000000D+00  0.000000D+00  0.000000D+00  0.000000D+00  0.163325D-01
     19  0.144042D+00  0.378147D+00  0.000000D+00  0.200436D+00  0.000000D+00
     20  0.000000D+00  0.000000D+00  0.120804D+00  0.000000D+00  0.000000D+00
     21 -0.317594D+00 -0.114949D+00  0.000000D+00 -0.321906D+00  0.000000D+00
     22  0.000000D+00  0.000000D+00  0.000000D+00  0.000000D+00  0.120804D+00
     23 -0.535563D-01  0.129148D-01  0.000000D+00 -0.876406D-01  0.000000D+00
     24  0.000000D+00  0.000000D+00  0.000000D+00  0.000000D+00  0.000000D+00
     25  0.000000D+00  0.000000D+00  0.000000D+00  0.000000D+00 -0.658581D-01
     26 -0.927622D-01  0.223691D-01  0.000000D+00 -0.151798D+00  0.000000D+00
     27  0.000000D+00  0.000000D+00 -0.658581D-01  0.000000D+00  0.000000D+00
     28  0.220826D-01  0.251405D+00  0.355050D-01 -0.104436D-01  0.000000D+00
     29 -0.615519D-01 -0.171969D+00 -0.816995D-01  0.290059D-01  0.000000D+00
     30  0.181052D-01  0.505836D-01  0.290059D-01  0.837965D-02  0.000000D+00
     31  0.000000D+00  0.000000D+00  0.000000D+00  0.000000D+00  0.169116D-01
     32  0.220817D-01  0.251403D+00  0.000000D+00 -0.104431D-01  0.355038D-01
     33  0.000000D+00  0.000000D+00  0.169109D-01  0.000000D+00  0.000000D+00
     34  0.181043D-01  0.505828D-01  0.000000D+00  0.837946D-02  0.290047D-01
     35 -0.615499D-01 -0.171968D+00  0.000000D+00  0.290047D-01 -0.816975D-01
     36  0.220808D-01  0.251400D+00 -0.355026D-01 -0.104426D-01  0.000000D+00
     37  0.615478D-01  0.171968D+00 -0.816955D-01 -0.290034D-01  0.000000D+00
     38  0.181034D-01  0.505818D-01 -0.290034D-01  0.837927D-02  0.000000D+00
     39  0.000000D+00  0.000000D+00  0.000000D+00  0.000000D+00  0.169102D-01
     40  0.220817D-01  0.251403D+00  0.000000D+00 -0.104431D-01 -0.355038D-01
     41  0.000000D+00  0.000000D+00  0.169109D-01  0.000000D+00  0.000000D+00
     42  0.181043D-01  0.505828D-01  0.000000D+00  0.837946D-02 -0.290047D-01
     43  0.615499D-01  0.171968D+00  0.000000D+00 -0.290047D-01 -0.816975D-01
                6             7             8             9            10
      6  0.100000D+01
      7  0.000000D+00  0.100000D+01
      8  0.000000D+00  0.000000D+00  0.100000D+01
      9  0.000000D+00  0.000000D+00  0.000000D+00  0.100000D+01
     10  0.000000D+00  0.000000D+00  0.000000D+00  0.000000D+00  0.100000D+01
     11  0.000000D+00  0.000000D+00  0.000000D+00  0.000000D+00  0.000000D+00
     12  0.000000D+00  0.000000D+00  0.000000D+00  0.000000D+00  0.000000D+00
     13  0.000000D+00  0.000000D+00  0.000000D+00  0.000000D+00  0.000000D+00
     14  0.000000D+00  0.402357D-01  0.000000D+00 -0.212824D-01  0.000000D+00
     15  0.000000D+00  0.229136D+00  0.000000D+00 -0.121404D+00  0.000000D+00
     16  0.545182D-01  0.000000D+00  0.000000D+00  0.000000D+00  0.000000D+00
     17  0.000000D+00 -0.654857D-03  0.000000D+00  0.711875D-01  0.000000D+00
     18  0.000000D+00  0.000000D+00  0.545182D-01  0.000000D+00  0.000000D+00
     19  0.000000D+00  0.450608D+00  0.000000D+00 -0.163083D+00  0.000000D+00
     20  0.271585D+00  0.000000D+00  0.000000D+00  0.000000D+00  0.000000D+00
     21  0.000000D+00  0.405836D-01  0.000000D+00  0.677181D-01  0.000000D+00
     22  0.000000D+00  0.000000D+00  0.271585D+00  0.000000D+00  0.000000D+00
     23  0.000000D+00  0.127063D-01  0.000000D+00  0.797219D-01  0.000000D+00
     24  0.000000D+00  0.000000D+00  0.000000D+00  0.000000D+00  0.559193D-01
     25  0.000000D+00  0.000000D+00 -0.303819D-01  0.000000D+00  0.000000D+00
     26  0.000000D+00  0.220080D-01  0.000000D+00  0.412274D-01  0.000000D+00
     27 -0.303819D-01  0.000000D+00  0.000000D+00  0.000000D+00  0.000000D+00
     28  0.394389D+00 -0.116007D+00  0.000000D+00 -0.788149D-01  0.000000D+00
     29 -0.102360D+00  0.795349D-01  0.000000D+00  0.772036D-01  0.000000D+00
     30  0.795349D-01  0.144639D+00  0.000000D+00 -0.227090D-01  0.000000D+00
     31  0.000000D+00  0.000000D+00  0.168034D+00  0.000000D+00  0.106308D+00
     32  0.000000D+00 -0.116005D+00  0.394387D+00  0.138800D+00  0.000000D+00
     33  0.168032D+00  0.000000D+00  0.000000D+00  0.000000D+00  0.106306D+00
     34  0.000000D+00  0.144638D+00  0.795339D-01  0.898388D-01  0.000000D+00
     35  0.000000D+00  0.795339D-01 -0.102362D+00 -0.121302D+00  0.000000D+00
     36 -0.394386D+00 -0.116003D+00  0.000000D+00 -0.788121D-01  0.000000D+00
     37 -0.102365D+00 -0.795328D-01  0.000000D+00 -0.772027D-01  0.000000D+00
     38 -0.795328D-01  0.144637D+00  0.000000D+00 -0.227081D-01  0.000000D+00
     39  0.000000D+00  0.000000D+00  0.168030D+00  0.000000D+00 -0.106303D+00
     40  0.000000D+00 -0.116005D+00 -0.394387D+00  0.138800D+00  0.000000D+00
     41  0.168032D+00  0.000000D+00  0.000000D+00  0.000000D+00 -0.106306D+00
     42  0.000000D+00  0.144638D+00 -0.795339D-01  0.898388D-01  0.000000D+00
     43  0.000000D+00 -0.795339D-01 -0.102362D+00  0.121302D+00  0.000000D+00
               11            12            13            14            15
     11  0.100000D+01
     12  0.000000D+00  0.100000D+01
     13  0.000000D+00  0.000000D+00  0.100000D+01
     14  0.000000D+00 -0.368621D-01  0.000000D+00  0.100000D+01
     15  0.000000D+00 -0.210278D+00  0.000000D+00  0.233690D+00  0.100000D+01
     16  0.000000D+00  0.000000D+00  0.100123D+00  0.000000D+00  0.000000D+00
     17  0.000000D+00  0.123300D+00  0.000000D+00  0.000000D+00  0.000000D+00
     18  0.100123D+00  0.000000D+00  0.000000D+00  0.000000D+00  0.000000D+00
     19  0.000000D+00 -0.282468D+00  0.000000D+00  0.167280D+00  0.763641D+00
     20  0.000000D+00 -0.100456D-05  0.340491D+00  0.000000D+00  0.000000D+00
     21  0.000000D+00  0.117291D+00  0.000000D+00  0.000000D+00  0.000000D+00
     22  0.340491D+00  0.000000D+00  0.000000D+00  0.000000D+00  0.000000D+00
     23  0.000000D+00  0.412274D-01  0.000000D+00  0.000000D+00  0.000000D+00
     24  0.000000D+00  0.000000D+00  0.000000D+00  0.000000D+00  0.000000D+00
     25 -0.179774D+00  0.000000D+00  0.000000D+00  0.000000D+00  0.000000D+00
     26  0.000000D+00  0.127327D+00  0.000000D+00  0.000000D+00  0.000000D+00
     27  0.000000D+00  0.000000D+00 -0.179774D+00  0.000000D+00  0.000000D+00
     28  0.000000D+00  0.114770D+00 -0.739131D-01  0.664829D-04  0.798307D-03
     29  0.000000D+00 -0.954930D-01  0.986918D-01 -0.166051D-03 -0.202242D-02
     30  0.000000D+00  0.906285D-01  0.680803D-01  0.164773D-03  0.200685D-02
     31 -0.312699D-01  0.000000D+00  0.000000D+00  0.000000D+00  0.000000D+00
     32 -0.739110D-01 -0.108701D-01  0.000000D+00  0.664810D-04  0.798286D-03
     33  0.000000D+00  0.000000D+00 -0.312688D-01  0.000000D+00  0.000000D+00
     34  0.680796D-01  0.256469D-01  0.000000D+00  0.164767D-03  0.200679D-02
     35  0.986897D-01  0.191130D-01  0.000000D+00 -0.166047D-03 -0.202237D-02
     36  0.000000D+00  0.114767D+00  0.739087D-01  0.664790D-04  0.798265D-03
     37  0.000000D+00  0.954946D-01  0.986874D-01  0.166043D-03  0.202233D-02
     38  0.000000D+00  0.906235D-01 -0.680789D-01  0.164761D-03  0.200672D-02
     39 -0.312676D-01  0.000000D+00  0.000000D+00  0.000000D+00  0.000000D+00
     40  0.739110D-01 -0.108701D-01  0.000000D+00  0.664810D-04  0.798286D-03
     41  0.000000D+00  0.000000D+00 -0.312688D-01  0.000000D+00  0.000000D+00
     42 -0.680796D-01  0.256469D-01  0.000000D+00  0.164767D-03  0.200679D-02
     43  0.986897D-01 -0.191130D-01  0.000000D+00  0.166047D-03  0.202237D-02
               16            17            18            19            20
     16  0.100000D+01
     17  0.000000D+00  0.100000D+01
     18  0.000000D+00  0.000000D+00  0.100000D+01
     19  0.000000D+00  0.000000D+00  0.000000D+00  0.100000D+01
     20  0.501521D+00  0.000000D+00  0.000000D+00  0.000000D+00  0.100000D+01
     21  0.000000D+00  0.501521D+00  0.000000D+00  0.000000D+00  0.000000D+00
     22  0.000000D+00  0.000000D+00  0.501521D+00  0.000000D+00  0.000000D+00
     23  0.000000D+00  0.000000D+00  0.000000D+00  0.000000D+00  0.000000D+00
     24  0.000000D+00  0.000000D+00  0.000000D+00  0.000000D+00  0.000000D+00
     25  0.000000D+00  0.000000D+00  0.000000D+00  0.000000D+00  0.000000D+00
     26  0.000000D+00  0.000000D+00  0.000000D+00  0.000000D+00  0.000000D+00
     27  0.000000D+00  0.000000D+00  0.000000D+00  0.000000D+00  0.000000D+00
     28  0.727841D-03 -0.722237D-03  0.000000D+00  0.665973D-02  0.126101D-01
     29 -0.170967D-02  0.200505D-02  0.000000D+00 -0.142445D-01 -0.218394D-01
     30  0.200505D-02 -0.167868D-02  0.000000D+00  0.141348D-01  0.276190D-01
     31  0.000000D+00  0.000000D+00  0.310939D-03  0.000000D+00  0.000000D+00
     32  0.000000D+00 -0.722217D-03  0.727826D-03  0.665960D-02  0.000000D+00
     33  0.310931D-03  0.000000D+00  0.000000D+00  0.000000D+00  0.599374D-02
     34  0.000000D+00 -0.167862D-02  0.200500D-02  0.141345D-01  0.000000D+00
     35  0.000000D+00  0.200500D-02 -0.170965D-02 -0.142443D-01  0.000000D+00
     36 -0.727812D-03 -0.722196D-03  0.000000D+00  0.665947D-02 -0.126097D-01
     37 -0.170962D-02 -0.200495D-02  0.000000D+00  0.142441D-01 -0.218392D-01
     38 -0.200495D-02 -0.167856D-02  0.000000D+00  0.141342D-01 -0.276181D-01
     39  0.000000D+00  0.000000D+00  0.310921D-03  0.000000D+00  0.000000D+00
     40  0.000000D+00 -0.722217D-03 -0.727826D-03  0.665960D-02  0.000000D+00
     41  0.310931D-03  0.000000D+00  0.000000D+00  0.000000D+00  0.599374D-02
     42  0.000000D+00 -0.167862D-02 -0.200500D-02  0.141345D-01  0.000000D+00
     43  0.000000D+00 -0.200500D-02 -0.170965D-02  0.142443D-01  0.000000D+00
               21            22            23            24            25
     21  0.100000D+01
     22  0.000000D+00  0.100000D+01
     23  0.000000D+00  0.000000D+00  0.100000D+01
     24  0.000000D+00  0.000000D+00  0.000000D+00  0.100000D+01
     25  0.000000D+00  0.000000D+00  0.000000D+00  0.000000D+00  0.100000D+01
     26  0.000000D+00  0.000000D+00  0.000000D+00  0.000000D+00  0.000000D+00
     27  0.000000D+00  0.000000D+00  0.000000D+00  0.000000D+00  0.000000D+00
     28 -0.125130D-01  0.000000D+00 -0.113893D-02  0.000000D+00  0.000000D+00
     29  0.276190D-01  0.000000D+00  0.284884D-02  0.000000D+00  0.000000D+00
     30 -0.214125D-01  0.000000D+00 -0.282691D-02  0.000000D+00  0.000000D+00
     31  0.000000D+00  0.599386D-02  0.000000D+00  0.956280D-03 -0.948918D-03
     32 -0.125127D-01  0.126099D-01  0.582670D-03  0.000000D+00 -0.197258D-02
     33  0.000000D+00  0.000000D+00  0.000000D+00  0.956260D-03  0.000000D+00
     34 -0.214119D-01  0.276185D-01  0.227435D-02  0.000000D+00 -0.488869D-02
     35  0.276185D-01 -0.218393D-01 -0.635721D-03  0.000000D+00  0.494146D-02
     36 -0.125124D-01  0.000000D+00 -0.113888D-02  0.000000D+00  0.000000D+00
     37 -0.276181D-01  0.000000D+00 -0.284875D-02  0.000000D+00  0.000000D+00
     38 -0.214113D-01  0.000000D+00 -0.282677D-02  0.000000D+00  0.000000D+00
     39  0.000000D+00  0.599362D-02  0.000000D+00 -0.956240D-03 -0.948861D-03
     40 -0.125127D-01 -0.126099D-01  0.582670D-03  0.000000D+00  0.197258D-02
     41  0.000000D+00  0.000000D+00  0.000000D+00 -0.956260D-03  0.000000D+00
     42 -0.214119D-01 -0.276185D-01  0.227435D-02  0.000000D+00  0.488869D-02
     43 -0.276185D-01 -0.218393D-01  0.635721D-03  0.000000D+00  0.494146D-02
               26            27            28            29            30
     26  0.100000D+01
     27  0.000000D+00  0.100000D+01
     28  0.152451D-04 -0.197263D-02  0.100000D+01
     29  0.910756D-03  0.494153D-02  0.000000D+00  0.100000D+01
     30  0.994091D-03 -0.488882D-02  0.000000D+00  0.000000D+00  0.100000D+01
     31  0.000000D+00  0.000000D+00  0.000000D+00  0.000000D+00  0.000000D+00
     32 -0.978691D-03  0.000000D+00  0.949282D-02 -0.173159D-01  0.000000D+00
     33  0.000000D+00 -0.948890D-03  0.173159D-01 -0.245506D-01  0.000000D+00
     34 -0.195106D-02  0.000000D+00  0.000000D+00  0.000000D+00  0.795616D-02
     35  0.292248D-02  0.000000D+00 -0.173160D-01  0.325070D-01  0.000000D+00
     36  0.152800D-04  0.197254D-02  0.226910D-03 -0.712545D-03  0.000000D+00
     37 -0.910612D-03  0.494139D-02  0.712545D-03 -0.224795D-02  0.000000D+00
     38  0.994137D-03  0.488856D-02  0.000000D+00  0.000000D+00  0.156386D-03
     39  0.000000D+00  0.000000D+00  0.000000D+00  0.000000D+00  0.000000D+00
     40 -0.978691D-03  0.000000D+00  0.949282D-02 -0.173159D-01  0.000000D+00
     41  0.000000D+00 -0.948890D-03  0.173159D-01 -0.245506D-01  0.000000D+00
     42 -0.195106D-02  0.000000D+00  0.000000D+00  0.000000D+00  0.795616D-02
     43 -0.292248D-02  0.000000D+00  0.173160D-01 -0.325070D-01  0.000000D+00
               31            32            33            34            35
     31  0.100000D+01
     32  0.173160D-01  0.100000D+01
     33  0.325070D-01  0.000000D+00  0.100000D+01
     34  0.000000D+00  0.000000D+00  0.000000D+00  0.100000D+01
     35 -0.245510D-01  0.000000D+00  0.000000D+00  0.000000D+00  0.100000D+01
     36  0.000000D+00  0.949231D-02 -0.173152D-01  0.000000D+00 -0.173150D-01
     37  0.000000D+00  0.173152D-01 -0.245501D-01  0.000000D+00 -0.325056D-01
     38  0.000000D+00  0.000000D+00  0.000000D+00  0.795572D-02  0.000000D+00
     39  0.156386D-03  0.173150D-01 -0.325056D-01  0.000000D+00 -0.245496D-01
     40 -0.173160D-01  0.226911D-03  0.000000D+00  0.000000D+00 -0.712548D-03
     41 -0.325070D-01  0.000000D+00  0.156387D-03  0.000000D+00  0.000000D+00
     42  0.000000D+00  0.000000D+00  0.000000D+00  0.156387D-03  0.000000D+00
     43 -0.245510D-01  0.712548D-03  0.000000D+00  0.000000D+00 -0.224796D-02
               36            37            38            39            40
     36  0.100000D+01
     37  0.000000D+00  0.100000D+01
     38  0.000000D+00  0.000000D+00  0.100000D+01
     39  0.000000D+00  0.000000D+00  0.000000D+00  0.100000D+01
     40  0.949231D-02  0.173152D-01  0.000000D+00 -0.173150D-01  0.100000D+01
     41 -0.173152D-01 -0.245501D-01  0.000000D+00  0.325056D-01  0.000000D+00
     42  0.000000D+00  0.000000D+00  0.795572D-02  0.000000D+00  0.000000D+00
     43  0.173150D-01  0.325056D-01  0.000000D+00 -0.245496D-01  0.000000D+00
               41            42            43
     41  0.100000D+01
     42  0.000000D+00  0.100000D+01
     43  0.000000D+00  0.000000D+00  0.100000D+01
 *** Kinetic Energy *** 
                1             2             3             4             5
      1  0.117794D+01
      2 -0.464210D+00  0.292718D+00
      3  0.000000D+00  0.000000D+00  0.183386D+01
      4  0.000000D+00  0.000000D+00  0.000000D+00  0.183386D+01
      5  0.000000D+00  0.000000D+00  0.000000D+00  0.000000D+00  0.183386D+01
      6  0.000000D+00  0.000000D+00 -0.105081D-01  0.000000D+00  0.000000D+00
      7  0.000000D+00  0.000000D+00  0.000000D+00 -0.105081D-01  0.000000D+00
      8  0.000000D+00  0.000000D+00  0.000000D+00  0.000000D+00 -0.105081D-01
      9  0.000000D+00  0.000000D+00  0.000000D+00  0.000000D+00  0.000000D+00
     10  0.000000D+00  0.000000D+00  0.000000D+00  0.000000D+00  0.000000D+00
     11  0.000000D+00  0.000000D+00  0.000000D+00  0.000000D+00  0.000000D+00
     12  0.000000D+00  0.000000D+00  0.000000D+00  0.000000D+00  0.000000D+00
     13  0.000000D+00  0.000000D+00  0.000000D+00  0.000000D+00  0.000000D+00
     14 -0.466952D-02  0.520666D-02  0.000000D+00 -0.871597D-02  0.000000D+00
     15 -0.379403D-01  0.382188D-01  0.000000D+00 -0.467052D-01  0.000000D+00
     16  0.000000D+00  0.000000D+00 -0.112701D-01  0.000000D+00  0.000000D+00
     17  0.383681D-01 -0.386485D-01  0.000000D+00  0.184795D-01  0.000000D+00
     18  0.000000D+00  0.000000D+00  0.000000D+00  0.000000D+00 -0.112701D-01
     19 -0.173916D-01  0.508382D-01  0.000000D+00  0.452961D-01  0.000000D+00
     20  0.000000D+00  0.000000D+00  0.273003D-01  0.000000D+00  0.000000D+00
     21 -0.757007D-01 -0.241545D-01  0.000000D+00 -0.230937D+00  0.000000D+00
     22  0.000000D+00  0.000000D+00  0.000000D+00  0.000000D+00  0.273003D-01
     23 -0.172457D-03 -0.817273D-02  0.000000D+00 -0.622373D-01  0.000000D+00
     24  0.000000D+00  0.000000D+00  0.000000D+00  0.000000D+00  0.000000D+00
     25  0.000000D+00  0.000000D+00  0.000000D+00  0.000000D+00  0.223709D-02
     26 -0.298704D-03 -0.141556D-01  0.000000D+00 -0.107798D+00  0.000000D+00
     27  0.000000D+00  0.000000D+00  0.223709D-02  0.000000D+00  0.000000D+00
     28 -0.114360D-01  0.129573D-01 -0.116302D-01  0.342097D-02  0.000000D+00
     29  0.148811D-01 -0.304057D-01 -0.202834D-02 -0.538597D-03  0.000000D+00
     30 -0.437721D-02  0.894368D-02 -0.538597D-03 -0.370098D-02  0.000000D+00
     31  0.000000D+00  0.000000D+00  0.000000D+00  0.000000D+00 -0.385941D-02
     32 -0.114357D-01  0.129568D-01  0.000000D+00  0.342087D-02 -0.116301D-01
     33  0.000000D+00  0.000000D+00 -0.385939D-02  0.000000D+00  0.000000D+00
     34 -0.437715D-02  0.894340D-02  0.000000D+00 -0.370091D-02 -0.538798D-03
     35  0.148812D-01 -0.304052D-01  0.000000D+00 -0.538798D-03 -0.202762D-02
     36 -0.114353D-01  0.129562D-01  0.116299D-01  0.342076D-02  0.000000D+00
     37 -0.148812D-01  0.304046D-01 -0.202685D-02  0.539013D-03  0.000000D+00
     38 -0.437709D-02  0.894309D-02  0.539013D-03 -0.370084D-02  0.000000D+00
     39  0.000000D+00  0.000000D+00  0.000000D+00  0.000000D+00 -0.385938D-02
     40 -0.114357D-01  0.129568D-01  0.000000D+00  0.342087D-02  0.116301D-01
     41  0.000000D+00  0.000000D+00 -0.385939D-02  0.000000D+00  0.000000D+00
     42 -0.437715D-02  0.894340D-02  0.000000D+00 -0.370091D-02  0.538798D-03
     43 -0.148812D-01  0.304052D-01  0.000000D+00  0.538798D-03 -0.202762D-02
                6             7             8             9            10
      6  0.103925D+00
      7  0.000000D+00  0.103925D+00
      8  0.000000D+00  0.000000D+00  0.103925D+00
      9  0.000000D+00  0.000000D+00  0.000000D+00  0.186186D+01
     10  0.000000D+00  0.000000D+00  0.000000D+00  0.000000D+00  0.186186D+01
     11  0.000000D+00  0.000000D+00  0.000000D+00  0.000000D+00  0.000000D+00
     12  0.000000D+00  0.000000D+00  0.000000D+00  0.000000D+00  0.000000D+00
     13  0.000000D+00  0.000000D+00  0.000000D+00  0.000000D+00  0.000000D+00
     14  0.000000D+00  0.960574D-02  0.000000D+00 -0.305451D-02  0.000000D+00
     15  0.000000D+00  0.501680D-01  0.000000D+00 -0.396211D-01  0.000000D+00
     16  0.120894D-01  0.000000D+00  0.000000D+00  0.000000D+00  0.000000D+00
     17  0.000000D+00 -0.109376D-01  0.000000D+00  0.638385D-01  0.000000D+00
     18  0.000000D+00  0.000000D+00  0.120894D-01  0.000000D+00  0.000000D+00
     19  0.000000D+00  0.791968D-01  0.000000D+00 -0.856907D-01  0.000000D+00
     20  0.477325D-01  0.000000D+00  0.000000D+00  0.000000D+00  0.000000D+00
     21  0.000000D+00 -0.156768D-01  0.000000D+00  0.119731D+00  0.000000D+00
     22  0.000000D+00  0.000000D+00  0.477325D-01  0.000000D+00  0.000000D+00
     23  0.000000D+00  0.675319D-02  0.000000D+00  0.879177D-01  0.000000D+00
     24  0.000000D+00  0.000000D+00  0.000000D+00  0.000000D+00  0.206681D-01
     25  0.000000D+00  0.000000D+00 -0.114234D-01  0.000000D+00  0.000000D+00
     26  0.000000D+00  0.116969D-01  0.000000D+00  0.116480D+00  0.000000D+00
     27 -0.114234D-01  0.000000D+00  0.000000D+00  0.000000D+00  0.000000D+00
     28  0.448337D-01 -0.131876D-01  0.000000D+00 -0.118037D-01  0.000000D+00
     29 -0.411098D-01  0.176766D-01  0.000000D+00  0.336567D-01  0.000000D+00
     30  0.176766D-01  0.137856D-01  0.000000D+00 -0.989994D-02  0.000000D+00
     31  0.000000D+00  0.000000D+00  0.189851D-01  0.000000D+00  0.192022D-01
     32  0.000000D+00 -0.131872D-01  0.448330D-01  0.207867D-01  0.000000D+00
     33  0.189847D-01  0.000000D+00  0.000000D+00  0.000000D+00  0.192014D-01
     34  0.000000D+00  0.137854D-01  0.176762D-01  0.264378D-01  0.000000D+00
     35  0.000000D+00  0.176762D-01 -0.411099D-01 -0.566237D-01  0.000000D+00
     36 -0.448323D-01 -0.131868D-01  0.000000D+00 -0.118026D-01  0.000000D+00
     37 -0.411099D-01 -0.176758D-01  0.000000D+00 -0.336552D-01  0.000000D+00
     38 -0.176758D-01  0.137852D-01  0.000000D+00 -0.989918D-02  0.000000D+00
     39  0.000000D+00  0.000000D+00  0.189843D-01  0.000000D+00 -0.192005D-01
     40  0.000000D+00 -0.131872D-01 -0.448330D-01  0.207867D-01  0.000000D+00
     41  0.189847D-01  0.000000D+00  0.000000D+00  0.000000D+00 -0.192014D-01
     42  0.000000D+00  0.137854D-01 -0.176762D-01  0.264378D-01  0.000000D+00
     43  0.000000D+00 -0.176762D-01 -0.411099D-01  0.566237D-01  0.000000D+00
               11            12            13            14            15
     11  0.186186D+01
     12  0.000000D+00  0.186186D+01
     13  0.000000D+00  0.000000D+00  0.186186D+01
     14  0.000000D+00 -0.529056D-02  0.000000D+00  0.295401D+02
     15  0.000000D+00 -0.686257D-01  0.000000D+00 -0.218540D+01  0.171121D+01
     16  0.000000D+00  0.000000D+00  0.301657D-01  0.000000D+00  0.000000D+00
     17  0.000000D+00  0.110571D+00  0.000000D+00  0.000000D+00  0.000000D+00
     18  0.301657D-01  0.000000D+00  0.000000D+00  0.000000D+00  0.000000D+00
     19  0.000000D+00 -0.148421D+00  0.000000D+00  0.131283D+00  0.480048D+00
     20  0.000000D+00  0.000000D+00  0.178908D+00  0.000000D+00  0.000000D+00
     21  0.000000D+00  0.207379D+00  0.000000D+00  0.000000D+00  0.000000D+00
     22  0.178908D+00  0.000000D+00  0.000000D+00  0.000000D+00  0.000000D+00
     23  0.000000D+00  0.116480D+00  0.000000D+00  0.000000D+00  0.000000D+00
     24  0.000000D+00  0.000000D+00  0.000000D+00  0.000000D+00  0.000000D+00
     25 -0.153136D+00  0.000000D+00  0.000000D+00  0.000000D+00  0.000000D+00
     26  0.000000D+00  0.222417D+00  0.000000D+00  0.000000D+00  0.000000D+00
     27  0.000000D+00  0.000000D+00 -0.153136D+00  0.000000D+00  0.000000D+00
     28  0.000000D+00  0.171886D-01 -0.110696D-01 -0.109233D-03 -0.968428D-03
     29  0.000000D+00 -0.459527D-01  0.363122D-01  0.288636D-03  0.240191D-02
     30  0.000000D+00  0.248132D-01  0.685977D-02 -0.286414D-03 -0.238342D-02
     31 -0.564822D-02  0.000000D+00  0.000000D+00  0.000000D+00  0.000000D+00
     32 -0.110690D-01 -0.162792D-02  0.000000D+00 -0.109231D-03 -0.968409D-03
     33  0.000000D+00  0.000000D+00 -0.564790D-02  0.000000D+00  0.000000D+00
     34  0.685962D-02  0.383280D-02  0.000000D+00 -0.286406D-03 -0.238336D-02
     35  0.363108D-01  0.617088D-02  0.000000D+00  0.288631D-03  0.240187D-02
     36  0.000000D+00  0.171872D-01  0.110683D-01 -0.109228D-03 -0.968389D-03
     37  0.000000D+00  0.459514D-01  0.363094D-01 -0.288625D-03 -0.240184D-02
     38  0.000000D+00  0.248111D-01 -0.685949D-02 -0.286398D-03 -0.238331D-02
     39 -0.564755D-02  0.000000D+00  0.000000D+00  0.000000D+00  0.000000D+00
     40  0.110690D-01 -0.162792D-02  0.000000D+00 -0.109231D-03 -0.968409D-03
     41  0.000000D+00  0.000000D+00 -0.564790D-02  0.000000D+00  0.000000D+00
     42 -0.685962D-02  0.383280D-02  0.000000D+00 -0.286406D-03 -0.238336D-02
     43  0.363108D-01 -0.617088D-02  0.000000D+00 -0.288631D-03 -0.240187D-02
               16            17            18            19            20
     16  0.425188D+01
     17  0.000000D+00  0.425188D+01
     18  0.000000D+00  0.000000D+00  0.425188D+01
     19  0.000000D+00  0.000000D+00  0.000000D+00  0.405009D+00
     20  0.547243D+00  0.000000D+00  0.000000D+00  0.000000D+00  0.675015D+00
     21  0.000000D+00  0.547243D+00  0.000000D+00  0.000000D+00  0.000000D+00
     22  0.000000D+00  0.000000D+00  0.547243D+00  0.000000D+00  0.000000D+00
     23  0.000000D+00  0.000000D+00  0.000000D+00  0.000000D+00  0.000000D+00
     24  0.000000D+00  0.000000D+00  0.000000D+00  0.000000D+00  0.000000D+00
     25  0.000000D+00  0.000000D+00  0.000000D+00  0.000000D+00  0.000000D+00
     26  0.000000D+00  0.000000D+00  0.000000D+00  0.000000D+00  0.000000D+00
     27  0.000000D+00  0.000000D+00  0.000000D+00  0.000000D+00  0.000000D+00
     28 -0.709458D-03  0.703996D-03  0.000000D+00 -0.445205D-02 -0.646894D-02
     29  0.148143D-02 -0.184918D-02  0.000000D+00  0.688049D-02  0.517619D-02
     30 -0.184918D-02  0.145285D-02  0.000000D+00 -0.682752D-02 -0.800926D-02
     31  0.000000D+00  0.000000D+00 -0.382096D-03  0.000000D+00  0.000000D+00
     32  0.000000D+00  0.703981D-03 -0.709449D-03 -0.445198D-02  0.000000D+00
     33 -0.382087D-03  0.000000D+00  0.000000D+00  0.000000D+00 -0.289517D-02
     34  0.000000D+00  0.145282D-02 -0.184916D-02 -0.682742D-02  0.000000D+00
     35  0.000000D+00 -0.184916D-02  0.148143D-02  0.688045D-02  0.000000D+00
     36  0.709440D-03  0.703966D-03  0.000000D+00 -0.445191D-02  0.646884D-02
     37  0.148143D-02  0.184913D-02  0.000000D+00 -0.688041D-02  0.517635D-02
     38  0.184913D-02  0.145278D-02  0.000000D+00 -0.682732D-02  0.800920D-02
     39  0.000000D+00  0.000000D+00 -0.382079D-03  0.000000D+00  0.000000D+00
     40  0.000000D+00  0.703981D-03  0.709449D-03 -0.445198D-02  0.000000D+00
     41 -0.382087D-03  0.000000D+00  0.000000D+00  0.000000D+00 -0.289517D-02
     42  0.000000D+00  0.145282D-02  0.184916D-02 -0.682742D-02  0.000000D+00
     43  0.000000D+00  0.184916D-02  0.148143D-02 -0.688045D-02  0.000000D+00
               21            22            23            24            25
     21  0.675015D+00
     22  0.000000D+00  0.675015D+00
     23  0.000000D+00  0.000000D+00  0.280000D+01
     24  0.000000D+00  0.000000D+00  0.000000D+00  0.280000D+01
     25  0.000000D+00  0.000000D+00  0.000000D+00  0.000000D+00  0.280000D+01
     26  0.000000D+00  0.000000D+00  0.000000D+00  0.000000D+00  0.000000D+00
     27  0.000000D+00  0.000000D+00  0.000000D+00  0.000000D+00  0.000000D+00
     28  0.641914D-02  0.000000D+00  0.734279D-03  0.000000D+00  0.000000D+00
     29 -0.800926D-02  0.000000D+00 -0.127584D-02  0.000000D+00  0.000000D+00
     30  0.505239D-02  0.000000D+00  0.126602D-02  0.000000D+00  0.000000D+00
     31  0.000000D+00 -0.289520D-02  0.000000D+00 -0.757790D-03  0.751956D-03
     32  0.641903D-02 -0.646889D-02 -0.375656D-03  0.000000D+00  0.127175D-02
     33  0.000000D+00  0.000000D+00  0.000000D+00 -0.757782D-03  0.000000D+00
     34  0.505234D-02 -0.800923D-02 -0.130394D-02  0.000000D+00  0.218687D-02
     35 -0.800923D-02  0.517627D-02  0.154683D-05  0.000000D+00 -0.221558D-02
     36  0.641892D-02  0.000000D+00  0.734260D-03  0.000000D+00  0.000000D+00
     37  0.800920D-02  0.000000D+00  0.127585D-02  0.000000D+00  0.000000D+00
     38  0.505227D-02  0.000000D+00  0.126600D-02  0.000000D+00  0.000000D+00
     39  0.000000D+00 -0.289513D-02  0.000000D+00  0.757774D-03  0.751926D-03
     40  0.641903D-02  0.646889D-02 -0.375656D-03  0.000000D+00 -0.127175D-02
     41  0.000000D+00  0.000000D+00  0.000000D+00  0.757782D-03  0.000000D+00
     42  0.505234D-02  0.800923D-02 -0.130394D-02  0.000000D+00 -0.218687D-02
     43  0.800923D-02  0.517627D-02 -0.154683D-05  0.000000D+00 -0.221558D-02
               26            27            28            29            30
     26  0.280000D+01
     27  0.000000D+00  0.280000D+01
     28 -0.982869D-05  0.127177D-02  0.552542D+00
     29 -0.734856D-03 -0.221557D-02  0.000000D+00  0.896428D+00
     30 -0.774714D-03  0.218689D-02  0.000000D+00  0.000000D+00  0.896428D+00
     31  0.000000D+00  0.000000D+00  0.000000D+00  0.000000D+00  0.000000D+00
     32  0.630977D-03  0.000000D+00 -0.475240D-02  0.620200D-02  0.000000D+00
     33  0.000000D+00  0.751942D-03 -0.620200D-02  0.309814D-02  0.000000D+00
     34  0.709036D-03  0.000000D+00  0.000000D+00  0.000000D+00 -0.266086D-02
     35 -0.147232D-02  0.000000D+00  0.620204D-02 -0.575904D-02  0.000000D+00
     36 -0.985135D-05 -0.127174D-02 -0.222330D-03  0.636537D-03  0.000000D+00
     37  0.734786D-03 -0.221559D-02 -0.636537D-03  0.175607D-02  0.000000D+00
     38 -0.774737D-03 -0.218684D-02  0.000000D+00  0.000000D+00 -0.150253D-03
     39  0.000000D+00  0.000000D+00  0.000000D+00  0.000000D+00  0.000000D+00
     40  0.630977D-03  0.000000D+00 -0.475240D-02  0.620200D-02  0.000000D+00
     41  0.000000D+00  0.751942D-03 -0.620200D-02  0.309814D-02  0.000000D+00
     42  0.709036D-03  0.000000D+00  0.000000D+00  0.000000D+00 -0.266086D-02
     43  0.147232D-02  0.000000D+00 -0.620204D-02  0.575904D-02  0.000000D+00
               31            32            33            34            35
     31  0.896428D+00
     32 -0.620204D-02  0.552542D+00
     33 -0.575904D-02  0.000000D+00  0.896428D+00
     34  0.000000D+00  0.000000D+00  0.000000D+00  0.896428D+00
     35  0.309822D-02  0.000000D+00  0.000000D+00  0.000000D+00  0.896428D+00
     36  0.000000D+00 -0.475222D-02  0.620189D-02  0.000000D+00  0.620184D-02
     37  0.000000D+00 -0.620189D-02  0.309834D-02  0.000000D+00  0.575908D-02
     38  0.000000D+00  0.000000D+00  0.000000D+00 -0.266078D-02  0.000000D+00
     39 -0.150253D-03 -0.620184D-02  0.575908D-02  0.000000D+00  0.309826D-02
     40  0.620204D-02 -0.222331D-03  0.000000D+00  0.000000D+00  0.636539D-03
     41  0.575904D-02  0.000000D+00 -0.150253D-03  0.000000D+00  0.000000D+00
     42  0.000000D+00  0.000000D+00  0.000000D+00 -0.150253D-03  0.000000D+00
     43  0.309822D-02 -0.636539D-03  0.000000D+00  0.000000D+00  0.175608D-02
               36            37            38            39            40
     36  0.552542D+00
     37  0.000000D+00  0.896428D+00
     38  0.000000D+00  0.000000D+00  0.896428D+00
     39  0.000000D+00  0.000000D+00  0.000000D+00  0.896428D+00
     40 -0.475222D-02 -0.620189D-02  0.000000D+00  0.620184D-02  0.552542D+00
     41  0.620189D-02  0.309834D-02  0.000000D+00 -0.575908D-02  0.000000D+00
     42  0.000000D+00  0.000000D+00 -0.266078D-02  0.000000D+00  0.000000D+00
     43 -0.620184D-02 -0.575908D-02  0.000000D+00  0.309826D-02  0.000000D+00
               41            42            43
     41  0.896428D+00
     42  0.000000D+00  0.896428D+00
     43  0.000000D+00  0.000000D+00  0.896428D+00
 Entering OneElI...
 Calculate potential energy integrals
    NBasis =  43  MinDer = 0  MaxDer = 0
 Requested accuracy = 0.1000D-12
 Symmetry will be used
 PrsmSu:  NPrtUS=   2 ThrOK=T
 PRISM was handed    32726562 working-precision words and   153 shell-pairs
 PRISM was handed    32726562 working-precision words and   153 shell-pairs
 ***** Potential Energy ***** 
                1             2             3             4             5
      1  0.221645D+02
      2 -0.147653D+01  0.122887D+02
      3  0.361808D-05  0.119631D-05  0.208579D+02
      4  0.297722D+00  0.910102D-01 -0.150875D-05  0.210164D+02
      5  0.000000D+00  0.000000D+00  0.000000D+00  0.000000D+00  0.208579D+02
      6  0.000000D+00  0.313514D-05  0.262657D+01  0.000000D+00  0.000000D+00
      7  0.548316D-01  0.143008D+00  0.000000D+00  0.268770D+01  0.000000D+00
      8  0.000000D+00  0.000000D+00  0.000000D+00  0.000000D+00  0.262657D+01
      9 -0.547584D-01 -0.662622D-01 -0.219191D-05 -0.208088D+00  0.000000D+00
     10  0.000000D+00  0.000000D+00  0.000000D+00  0.000000D+00  0.257052D-05
     11  0.000000D+00  0.000000D+00  0.000000D+00  0.000000D+00  0.175314D+00
     12 -0.948444D-01 -0.114770D+00  0.365776D-05 -0.360420D+00  0.000000D+00
     13 -0.181570D-05 -0.469456D-05  0.175314D+00  0.270927D-05  0.000000D+00
     14  0.712572D-01  0.128749D+01  0.000000D+00  0.295431D+00  0.000000D+00
     15  0.506402D+00  0.327210D+01 -0.167513D-05  0.133363D+01  0.000000D+00
     16  0.000000D+00  0.102652D-05  0.274785D+00  0.247538D-05  0.000000D+00
     17 -0.771191D+00 -0.873659D+00  0.246412D-05 -0.169290D+01  0.000000D+00
     18  0.000000D+00  0.000000D+00  0.000000D+00  0.000000D+00  0.274785D+00
     19  0.280916D+01  0.523600D+01 -0.430221D-05  0.364314D+01  0.000000D+00
     20  0.833953D-05  0.205194D-05  0.205629D+01  0.103138D-04  0.000000D+00
     21 -0.645399D+01 -0.183578D+01  0.937669D-05 -0.606706D+01  0.000000D+00
     22  0.000000D+00  0.000000D+00  0.000000D+00  0.000000D+00  0.205629D+01
     23 -0.104965D+01  0.105144D+00  0.208076D-05 -0.169383D+01  0.000000D+00
     24  0.000000D+00  0.000000D+00  0.000000D+00  0.000000D+00  0.141677D-05
     25  0.000000D+00  0.000000D+00  0.000000D+00  0.000000D+00 -0.112070D+01
     26 -0.181804D+01  0.182115D+00  0.644125D-05 -0.293379D+01  0.000000D+00
     27 -0.463252D-05  0.000000D+00 -0.112070D+01 -0.886928D-05  0.000000D+00
     28  0.388458D+00  0.297837D+01  0.548517D+00 -0.156736D+00  0.000000D+00
     29 -0.112552D+01 -0.229087D+01 -0.131893D+01  0.450702D+00  0.000000D+00
     30  0.333873D+00  0.679803D+00  0.467421D+00  0.128415D+00  0.000000D+00
     31  0.000000D+00  0.000000D+00  0.000000D+00  0.000000D+00  0.261705D+00
     32  0.388442D+00  0.297833D+01  0.000000D+00 -0.156729D+00  0.548498D+00
     33  0.105470D-05  0.247902D-05  0.261695D+00  0.000000D+00  0.146859D-05
     34  0.333857D+00  0.679790D+00  0.000000D+00  0.128412D+00  0.467401D+00
     35 -0.112548D+01 -0.229086D+01  0.108093D-05  0.450683D+00 -0.131890D+01
     36  0.388425D+00  0.297829D+01 -0.548477D+00 -0.156720D+00  0.000000D+00
     37  0.112544D+01  0.229084D+01 -0.131886D+01 -0.450662D+00  0.000000D+00
     38  0.333839D+00  0.679775D+00 -0.467380D+00  0.128409D+00  0.000000D+00
     39  0.000000D+00  0.000000D+00  0.000000D+00  0.000000D+00  0.261683D+00
     40  0.388442D+00  0.297833D+01  0.000000D+00 -0.156729D+00 -0.548498D+00
     41  0.105470D-05  0.247902D-05  0.261695D+00  0.000000D+00 -0.146859D-05
     42  0.333857D+00  0.679790D+00  0.000000D+00  0.128412D+00 -0.467401D+00
     43  0.112548D+01  0.229086D+01 -0.108093D-05 -0.450683D+00 -0.131890D+01
                6             7             8             9            10
      6  0.983171D+01
      7 -0.456463D-05  0.965007D+01
      8  0.000000D+00  0.000000D+00  0.983171D+01
      9 -0.241779D-05 -0.209375D+00  0.000000D+00  0.173165D+02
     10  0.000000D+00  0.000000D+00  0.106306D-05  0.000000D+00  0.171013D+02
     11  0.000000D+00  0.000000D+00 -0.251285D-01  0.000000D+00 -0.169675D-05
     12  0.311475D-05 -0.362648D+00  0.000000D+00  0.134513D+00  0.000000D+00
     13 -0.251283D-01  0.213603D-05  0.000000D+00  0.334307D-05  0.000000D+00
     14 -0.202760D-05  0.161087D+01  0.000000D+00 -0.852385D+00  0.000000D+00
     15 -0.500482D-05  0.396158D+01  0.000000D+00 -0.221472D+01  0.000000D+00
     16  0.846318D+00  0.134268D-05  0.000000D+00 -0.171541D-05  0.000000D+00
     17  0.143437D-05 -0.299735D+00  0.000000D+00  0.138823D+01  0.000000D+00
     18  0.000000D+00  0.000000D+00  0.846318D+00  0.000000D+00 -0.206265D-05
     19 -0.785728D-05  0.617803D+01  0.000000D+00 -0.270028D+01  0.000000D+00
     20  0.326413D+01  0.408948D-05  0.000000D+00 -0.189587D-05  0.000000D+00
     21  0.436396D-05 -0.416866D+00  0.000000D+00  0.146006D+01  0.000000D+00
     22  0.000000D+00  0.000000D+00  0.326413D+01  0.000000D+00 -0.592250D-05
     23  0.000000D+00  0.971813D-01  0.000000D+00  0.136192D+01  0.000000D+00
     24  0.000000D+00  0.000000D+00  0.000000D+00  0.000000D+00  0.802916D+00
     25  0.000000D+00  0.000000D+00 -0.556764D+00  0.000000D+00  0.473921D-05
     26  0.110566D-05  0.168323D+00  0.000000D+00  0.967466D+00  0.000000D+00
     27 -0.556764D+00  0.000000D+00  0.000000D+00  0.250196D-05  0.000000D+00
     28  0.455458D+01 -0.133658D+01  0.000000D+00 -0.101852D+01  0.000000D+00
     29 -0.175041D+01  0.101746D+01  0.000000D+00  0.108019D+01  0.000000D+00
     30  0.102902D+01  0.144151D+01  0.000000D+00 -0.325441D+00  0.000000D+00
     31  0.000000D+00  0.000000D+00  0.176383D+01  0.000000D+00  0.127840D+01
     32 -0.377751D-05 -0.133655D+01  0.455456D+01  0.179900D+01 -0.262325D-05
     33  0.176380D+01 -0.123856D-05  0.337868D-05  0.347001D-05  0.127837D+01
     34  0.000000D+00  0.144149D+01  0.102900D+01  0.115818D+01 -0.145982D-05
     35  0.251342D-05  0.101744D+01 -0.175043D+01 -0.174076D+01  0.343277D-05
     36 -0.455453D+01 -0.133652D+01  0.000000D+00 -0.101848D+01  0.000000D+00
     37 -0.175045D+01 -0.101742D+01  0.000000D+00 -0.108017D+01  0.000000D+00
     38 -0.102898D+01  0.144148D+01  0.000000D+00 -0.325425D+00  0.000000D+00
     39  0.000000D+00  0.000000D+00  0.176378D+01  0.000000D+00 -0.127833D+01
     40 -0.377751D-05 -0.133655D+01 -0.455456D+01  0.179900D+01  0.262325D-05
     41  0.176380D+01 -0.123856D-05 -0.337868D-05  0.347001D-05 -0.127837D+01
     42  0.000000D+00  0.144149D+01 -0.102900D+01  0.115818D+01  0.145982D-05
     43 -0.251342D-05 -0.101744D+01 -0.175043D+01  0.174076D+01  0.343277D-05
               11            12            13            14            15
     11  0.172460D+02
     12  0.000000D+00  0.174718D+02
     13  0.000000D+00  0.000000D+00  0.172460D+02
     14  0.000000D+00 -0.147637D+01 -0.371657D-05  0.702114D+02
     15  0.000000D+00 -0.383601D+01 -0.967027D-05  0.696400D+01  0.192614D+02
     16  0.000000D+00 -0.709623D-05  0.163699D+01  0.000000D+00  0.000000D+00
     17  0.000000D+00  0.240448D+01  0.808759D-05 -0.134379D+00 -0.916852D+00
     18  0.163699D+01  0.000000D+00  0.000000D+00  0.000000D+00  0.000000D+00
     19  0.000000D+00 -0.467701D+01 -0.117264D-04  0.677879D+01  0.136968D+02
     20  0.000000D+00 -0.149382D-04  0.482262D+01  0.000000D+00  0.000000D+00
     21  0.000000D+00  0.252889D+01  0.121504D-04 -0.185172D-01 -0.608223D+00
     22  0.482262D+01  0.000000D+00  0.000000D+00  0.000000D+00  0.000000D+00
     23  0.000000D+00  0.967466D+00  0.238607D-05 -0.150026D-02 -0.105692D+00
     24  0.473169D-05  0.000000D+00  0.000000D+00  0.000000D+00  0.000000D+00
     25 -0.298807D+01  0.000000D+00  0.000000D+00  0.000000D+00  0.000000D+00
     26  0.000000D+00  0.247905D+01  0.135952D-04 -0.259853D-02 -0.183065D+00
     27  0.000000D+00  0.137986D-04 -0.298807D+01  0.000000D+00  0.000000D+00
     28  0.000000D+00  0.148929D+01 -0.952499D+00  0.256312D-02  0.135320D-01
     29  0.000000D+00 -0.138641D+01  0.131914D+01 -0.639112D-02 -0.346466D-01
     30  0.000000D+00  0.114950D+01  0.772070D+00  0.633734D-02  0.336892D-01
     31 -0.376016D+00  0.000000D+00  0.000000D+00  0.000000D+00  0.000000D+00
     32 -0.952468D+00 -0.137410D+00  0.000000D+00  0.256304D-02  0.135316D-01
     33 -0.172288D-05 -0.120580D-05 -0.376002D+00  0.000000D+00  0.000000D+00
     34  0.772062D+00  0.292899D+00  0.000000D+00  0.633712D-02  0.336882D-01
     35  0.131911D+01  0.242255D+00  0.000000D+00 -0.639095D-02 -0.346458D-01
     36  0.000000D+00  0.148925D+01  0.952435D+00  0.256297D-02  0.135313D-01
     37  0.000000D+00  0.138642D+01  0.131908D+01  0.639078D-02  0.346450D-01
     38  0.000000D+00  0.114943D+01 -0.772053D+00  0.633688D-02  0.336871D-01
     39 -0.375987D+00  0.000000D+00  0.000000D+00  0.000000D+00  0.000000D+00
     40  0.952468D+00 -0.137410D+00  0.000000D+00  0.256304D-02  0.135316D-01
     41  0.172288D-05 -0.120580D-05 -0.376002D+00  0.000000D+00  0.000000D+00
     42 -0.772062D+00  0.292899D+00  0.000000D+00  0.633712D-02  0.336882D-01
     43  0.131911D+01 -0.242255D+00  0.000000D+00  0.639095D-02  0.346458D-01
               16            17            18            19            20
     16  0.202875D+02
     17  0.000000D+00  0.205241D+02
     18  0.000000D+00  0.000000D+00  0.202875D+02
     19  0.000000D+00 -0.891911D+00  0.000000D+00  0.153598D+02
     20  0.807445D+01  0.000000D+00  0.000000D+00  0.164904D-05  0.127314D+02
     21  0.000000D+00  0.831783D+01  0.000000D+00 -0.176301D+01 -0.192162D-05
     22  0.000000D+00  0.000000D+00  0.807445D+01  0.000000D+00  0.000000D+00
     23  0.000000D+00  0.449674D+00  0.000000D+00 -0.223107D+00  0.000000D+00
     24  0.000000D+00  0.000000D+00  0.000000D+00  0.000000D+00  0.000000D+00
     25  0.000000D+00  0.000000D+00 -0.678838D+00  0.000000D+00  0.000000D+00
     26  0.000000D+00  0.778858D+00  0.000000D+00 -0.386433D+00  0.000000D+00
     27 -0.678838D+00  0.000000D+00  0.000000D+00 -0.122063D-05 -0.978120D+00
     28  0.112542D-01 -0.125754D-01  0.000000D+00  0.951393D-01  0.161293D+00
     29 -0.267882D-01  0.350845D-01  0.000000D+00 -0.216653D+00 -0.295275D+00
     30  0.307933D-01 -0.290419D-01  0.000000D+00  0.194819D+00  0.343445D+00
     31  0.000000D+00  0.000000D+00  0.478749D-02  0.000000D+00  0.000000D+00
     32  0.000000D+00 -0.125750D-01  0.112540D-01  0.951372D-01  0.000000D+00
     33  0.478735D-02  0.000000D+00  0.000000D+00  0.000000D+00  0.761454D-01
     34  0.000000D+00 -0.290409D-01  0.307926D-01  0.194814D+00  0.000000D+00
     35  0.000000D+00  0.350836D-01 -0.267878D-01 -0.216649D+00  0.000000D+00
     36 -0.112538D-01 -0.125746D-01  0.000000D+00  0.951350D-01 -0.161287D+00
     37 -0.267875D-01 -0.350827D-01  0.000000D+00  0.216645D+00 -0.295271D+00
     38 -0.307918D-01 -0.290398D-01  0.000000D+00  0.194809D+00 -0.343432D+00
     39  0.000000D+00  0.000000D+00  0.478720D-02  0.000000D+00  0.000000D+00
     40  0.000000D+00 -0.125750D-01 -0.112540D-01  0.951372D-01  0.000000D+00
     41  0.478735D-02  0.000000D+00  0.000000D+00  0.000000D+00  0.761454D-01
     42  0.000000D+00 -0.290409D-01 -0.307926D-01  0.194814D+00  0.000000D+00
     43  0.000000D+00 -0.350836D-01 -0.267878D-01  0.216649D+00  0.000000D+00
               21            22            23            24            25
     21  0.139358D+02
     22  0.000000D+00  0.127314D+02
     23  0.720971D+00  0.000000D+00  0.147054D+02
     24  0.000000D+00  0.000000D+00  0.000000D+00  0.145465D+02
     25  0.000000D+00 -0.978120D+00  0.000000D+00  0.000000D+00  0.149142D+02
     26  0.124876D+01  0.000000D+00  0.272337D+00  0.000000D+00  0.000000D+00
     27  0.171523D-05  0.000000D+00  0.000000D+00  0.000000D+00  0.000000D+00
     28 -0.186803D+00  0.000000D+00 -0.183501D-01  0.000000D+00  0.000000D+00
     29  0.439294D+00  0.000000D+00  0.477121D-01  0.000000D+00  0.000000D+00
     30 -0.310970D+00  0.000000D+00 -0.438003D-01  0.000000D+00  0.000000D+00
     31  0.000000D+00  0.761471D-01  0.000000D+00  0.129399D-01 -0.143968D-01
     32 -0.186798D+00  0.161290D+00  0.490838D-02  0.000000D+00 -0.300770D-01
     33  0.000000D+00  0.000000D+00  0.000000D+00  0.129396D-01  0.000000D+00
     34 -0.310961D+00  0.343438D+00  0.245255D-01  0.000000D+00 -0.739216D-01
     35  0.439285D+00 -0.295273D+00 -0.339434D-03  0.000000D+00  0.763034D-01
     36 -0.186793D+00  0.000000D+00 -0.183492D-01  0.000000D+00  0.000000D+00
     37 -0.439276D+00  0.000000D+00 -0.477104D-01  0.000000D+00  0.000000D+00
     38 -0.310952D+00  0.000000D+00 -0.437979D-01  0.000000D+00  0.000000D+00
     39  0.000000D+00  0.761436D-01  0.000000D+00 -0.129393D-01 -0.143959D-01
     40 -0.186798D+00 -0.161290D+00  0.490838D-02  0.000000D+00  0.300770D-01
     41  0.000000D+00  0.000000D+00  0.000000D+00 -0.129396D-01  0.000000D+00
     42 -0.310961D+00 -0.343438D+00  0.245255D-01  0.000000D+00  0.739216D-01
     43 -0.439285D+00 -0.295273D+00  0.339434D-03  0.000000D+00  0.763034D-01
               26            27            28            29            30
     26  0.150198D+02
     27  0.000000D+00  0.149142D+02
     28 -0.492687D-02 -0.300776D-01  0.122360D+02
     29  0.271555D-01  0.763046D-01 -0.100372D+01  0.118681D+02
     30  0.303153D-02 -0.739236D-01  0.296474D+00 -0.117708D+00  0.115290D+02
     31  0.000000D+00  0.000000D+00  0.000000D+00  0.000000D+00  0.000000D+00
     32 -0.183545D-01  0.000000D+00  0.111904D+00 -0.213485D+00  0.603508D-02
     33  0.000000D+00 -0.143964D-01  0.194479D+00 -0.287723D+00  0.858627D-02
     34 -0.364150D-01  0.000000D+00  0.603423D-02 -0.138139D-01  0.873829D-01
     35  0.548963D-01  0.000000D+00 -0.213486D+00  0.416879D+00 -0.138157D-01
     36 -0.492608D-02  0.300763D-01  0.345868D-02 -0.110441D-01  0.538763D-03
     37 -0.271527D-01  0.763022D-01  0.110441D-01 -0.354233D-01  0.177897D-02
     38  0.303289D-02  0.739195D-01  0.538710D-03 -0.177879D-02  0.232721D-02
     39  0.000000D+00  0.000000D+00  0.000000D+00  0.000000D+00  0.000000D+00
     40 -0.183545D-01  0.000000D+00  0.111904D+00 -0.213485D+00  0.603508D-02
     41  0.000000D+00 -0.143964D-01  0.194479D+00 -0.287723D+00  0.858627D-02
     42 -0.364150D-01  0.000000D+00  0.603423D-02 -0.138139D-01  0.873829D-01
     43 -0.548963D-01  0.000000D+00  0.213486D+00 -0.416879D+00  0.138157D-01
               31            32            33            34            35
     31  0.115308D+02
     32  0.194481D+00  0.122360D+02
     33  0.346338D+00  0.125868D-05  0.115308D+02
     34  0.858483D-02  0.296468D+00  0.000000D+00  0.115290D+02
     35 -0.287727D+00 -0.100371D+01  0.000000D+00 -0.117705D+00  0.118681D+02
     36  0.000000D+00  0.111898D+00 -0.194470D+00  0.603473D-02 -0.213473D+00
     37  0.000000D+00  0.213475D+00 -0.287715D+00  0.138149D-01 -0.416859D+00
     38  0.000000D+00  0.603372D-02 -0.858413D-02  0.873777D-01 -0.138128D-01
     39  0.212168D-02  0.194469D+00 -0.346322D+00  0.858586D-02 -0.287710D+00
     40 -0.194481D+00  0.345869D-02  0.000000D+00  0.538739D-03 -0.110442D-01
     41 -0.346338D+00  0.000000D+00  0.212169D-02  0.000000D+00  0.000000D+00
     42 -0.858483D-02  0.538739D-03  0.000000D+00  0.232722D-02 -0.177889D-02
     43 -0.287727D+00  0.110442D-01  0.000000D+00  0.177889D-02 -0.354235D-01
               36            37            38            39            40
     36  0.122359D+02
     37  0.100371D+01  0.118680D+02
     38  0.296461D+00  0.117702D+00  0.115289D+02
     39  0.000000D+00  0.000000D+00  0.000000D+00  0.115307D+02
     40  0.111898D+00  0.213475D+00  0.603372D-02 -0.194469D+00  0.122360D+02
     41 -0.194470D+00 -0.287715D+00 -0.858413D-02  0.346322D+00  0.125868D-05
     42  0.603473D-02  0.138149D-01  0.873777D-01 -0.858586D-02  0.296468D+00
     43  0.213473D+00  0.416859D+00  0.138128D-01 -0.287710D+00  0.100371D+01
               41            42            43
     41  0.115308D+02
     42  0.000000D+00  0.115290D+02
     43  0.000000D+00  0.117705D+00  0.118681D+02
 ****** Core Hamiltonian ****** 
                1             2             3             4             5
      1 -0.209866D+02
      2  0.101232D+01 -0.119960D+02
      3 -0.361808D-05 -0.119631D-05 -0.190240D+02
      4 -0.297722D+00 -0.910102D-01  0.150875D-05 -0.191826D+02
      5  0.000000D+00  0.000000D+00  0.000000D+00  0.000000D+00 -0.190240D+02
      6  0.000000D+00 -0.313514D-05 -0.263708D+01  0.000000D+00  0.000000D+00
      7 -0.548316D-01 -0.143008D+00  0.000000D+00 -0.269820D+01  0.000000D+00
      8  0.000000D+00  0.000000D+00  0.000000D+00  0.000000D+00 -0.263708D+01
      9  0.547584D-01  0.662622D-01  0.219191D-05  0.208088D+00  0.000000D+00
     10  0.000000D+00  0.000000D+00  0.000000D+00  0.000000D+00 -0.257052D-05
     11  0.000000D+00  0.000000D+00  0.000000D+00  0.000000D+00 -0.175314D+00
     12  0.948444D-01  0.114770D+00 -0.365776D-05  0.360420D+00  0.000000D+00
     13  0.181570D-05  0.469456D-05 -0.175314D+00 -0.270927D-05  0.000000D+00
     14 -0.759268D-01 -0.128229D+01  0.000000D+00 -0.304147D+00  0.000000D+00
     15 -0.544342D+00 -0.323388D+01  0.173391D-05 -0.138034D+01  0.000000D+00
     16 -0.102176D-05  0.000000D+00 -0.286055D+00 -0.251282D-05  0.000000D+00
     17  0.809559D+00  0.835010D+00 -0.250155D-05  0.171138D+01  0.000000D+00
     18  0.000000D+00  0.000000D+00  0.000000D+00  0.000000D+00 -0.286055D+00
     19 -0.282655D+01 -0.518516D+01  0.424521D-05 -0.359784D+01  0.000000D+00
     20 -0.824427D-05 -0.202154D-05 -0.202899D+01 -0.998880D-05  0.000000D+00
     21  0.637829D+01  0.181163D+01 -0.905172D-05  0.583612D+01  0.000000D+00
     22  0.000000D+00  0.000000D+00  0.000000D+00  0.000000D+00 -0.202899D+01
     23  0.104947D+01 -0.113317D+00 -0.200244D-05  0.163159D+01  0.000000D+00
     24  0.000000D+00  0.000000D+00  0.000000D+00  0.000000D+00 -0.141959D-05
     25  0.000000D+00  0.000000D+00  0.000000D+00  0.000000D+00  0.112294D+01
     26  0.181774D+01 -0.196271D+00 -0.631122D-05  0.282599D+01  0.000000D+00
     27  0.463177D-05  0.000000D+00  0.112294D+01  0.860079D-05  0.000000D+00
     28 -0.399894D+00 -0.296542D+01 -0.560147D+00  0.160157D+00  0.000000D+00
     29  0.114040D+01  0.226046D+01  0.131690D+01 -0.451241D+00  0.000000D+00
     30 -0.338250D+00 -0.670859D+00 -0.467959D+00 -0.132116D+00  0.000000D+00
     31  0.000000D+00  0.000000D+00  0.000000D+00  0.000000D+00 -0.265565D+00
     32 -0.399878D+00 -0.296538D+01  0.000000D+00  0.160150D+00 -0.560128D+00
     33 -0.106778D-05 -0.245231D-05 -0.265554D+00  0.000000D+00 -0.147020D-05
     34 -0.338234D+00 -0.670846D+00  0.000000D+00 -0.132113D+00 -0.467940D+00
     35  0.114036D+01  0.226045D+01 -0.108254D-05 -0.451222D+00  0.131687D+01
     36 -0.399861D+00 -0.296534D+01  0.560107D+00  0.160141D+00  0.000000D+00
     37 -0.114032D+01 -0.226044D+01  0.131684D+01  0.451201D+00  0.000000D+00
     38 -0.338216D+00 -0.670832D+00  0.467919D+00 -0.132110D+00  0.000000D+00
     39  0.000000D+00  0.000000D+00  0.000000D+00  0.000000D+00 -0.265543D+00
     40 -0.399878D+00 -0.296538D+01  0.000000D+00  0.160150D+00  0.560128D+00
     41 -0.106778D-05 -0.245231D-05 -0.265554D+00  0.000000D+00  0.147020D-05
     42 -0.338234D+00 -0.670846D+00  0.000000D+00 -0.132113D+00  0.467940D+00
     43 -0.114036D+01 -0.226045D+01  0.108254D-05  0.451222D+00  0.131687D+01
                6             7             8             9            10
      6 -0.972778D+01
      7  0.456463D-05 -0.954615D+01
      8  0.000000D+00  0.000000D+00 -0.972778D+01
      9  0.241779D-05  0.209375D+00  0.000000D+00 -0.154547D+02
     10  0.000000D+00  0.000000D+00 -0.106306D-05  0.000000D+00 -0.152395D+02
     11  0.000000D+00  0.000000D+00  0.251285D-01  0.000000D+00  0.169675D-05
     12 -0.311475D-05  0.362648D+00  0.000000D+00 -0.134513D+00  0.000000D+00
     13  0.251283D-01 -0.213603D-05  0.000000D+00 -0.334307D-05  0.000000D+00
     14  0.201551D-05 -0.160126D+01  0.000000D+00  0.849330D+00  0.000000D+00
     15  0.494169D-05 -0.391141D+01  0.000000D+00  0.217510D+01  0.000000D+00
     16 -0.834229D+00 -0.131371D-05  0.000000D+00  0.163508D-05  0.000000D+00
     17 -0.140539D-05  0.288797D+00  0.000000D+00 -0.132439D+01  0.000000D+00
     18  0.000000D+00  0.000000D+00 -0.834229D+00  0.000000D+00  0.202469D-05
[...]
  12        5D+2       -0.00001  -0.00985   0.00000   0.00000   0.00000
  13        5D-2        0.03286   0.00000   0.06301   0.00000   0.00000
  14 2   O  1S          0.00000   0.00000   0.00000   0.00000   0.00000
  15        2S          0.00000   0.00000   0.00000   0.00000   0.00000
  16        2PX        -0.13761   0.00001  -0.07112   0.00000   0.00000
  17        2PY         0.00001   0.00000   0.00000   0.00000   0.00000
  18        2PZ         0.00000   0.00000   0.00000  -0.07111   0.00000
  19        3S          0.00001   0.00000   0.00000   0.00000   0.00000
  20        3PX        -0.10023   0.00000  -0.07281   0.00000   0.00000
  21        3PY         0.00001   0.00000   0.00000   0.00000   0.00000
  22        3PZ         0.00000   0.00000   0.00000  -0.07281   0.00000
  23        4D 0        0.00000  -0.00126   0.00000   0.00000   0.00000
  24        4D+1        0.00000   0.00000   0.00000   0.00000   0.00000
  25        4D-1        0.00000   0.00000   0.00000   0.00316   0.00000
  26        4D+2        0.00000   0.00073   0.00000   0.00000   0.00000
  27        4D-2        0.00550   0.00000   0.00316   0.00000   0.00000
  28 3   Cl 1S         -0.01133  -0.00242  -0.04339   0.00000   0.00000
  29        2PX        -0.01315   0.22467   0.32188   0.00000   0.00000
  30        2PY         0.69103   0.45381   0.01730   0.00000   0.00000
  31        2PZ         0.00000   0.00000   0.00000   0.62906  -0.51711
  32 4   Cl 1S          0.00000   0.00242   0.00000  -0.04339   0.00000
  33        2PX        -0.04443   0.00006   0.62905  -0.00003   0.51713
  34        2PY        -0.00008  -0.45389   0.00003   0.01734   0.00000
  35        2PZ        -0.00004  -0.22464   0.00002   0.32191   0.00001
  36 5   Cl 1S          0.01133  -0.00241   0.04339   0.00000   0.00000
  37        2PX        -0.01321  -0.22462   0.32194   0.00000   0.00000
  38        2PY        -0.69100   0.45397  -0.01738   0.00000   0.00000
  39        2PZ         0.00000   0.00000   0.00000   0.62904   0.51716
  40 6   Cl 1S          0.00000   0.00242   0.00000   0.04339   0.00000
  41        2PX        -0.04443   0.00006   0.62905   0.00003  -0.51713
  42        2PY        -0.00008  -0.45389   0.00003  -0.01734   0.00000
  43        2PZ         0.00004   0.22464  -0.00002   0.32191   0.00001
                          26        27        28        29        30
                        (A")--O   (A')--V   (A")--V   (A')--V   (A')--V
     EIGENVALUES --     0.13439   0.24844   0.24844   0.29087   0.29341
   1 1   Mo 1S          0.00000   0.00000   0.00000   0.00000  -0.08604
   2        2S          0.00000   0.00001   0.00000   0.00000   0.15721
   3        3PX         0.00000   0.00226   0.00000   0.00000   0.00000
   4        3PY         0.00000   0.00000   0.00000   0.00000  -0.25959
   5        3PZ         0.00000   0.00000   0.00226   0.00000   0.00000
   6        4PX         0.00000   0.02331   0.00000   0.00001   0.00000
   7        4PY         0.00000   0.00000   0.00000   0.00000   0.57723
   8        4PZ         0.00000   0.00000   0.02331   0.00000   0.00000
   9        5D 0        0.00000  -0.00002   0.00000   0.84979   0.36699
  10        5D+1        0.91233   0.00000   0.00000   0.00000   0.00000
  11        5D-1        0.00000   0.00000   0.95178   0.00000   0.00000
  12        5D+2        0.00000   0.00001   0.00000  -0.49063   0.63564
  13        5D-2        0.00000   0.95178   0.00000   0.00003   0.00000
  14 2   O  1S          0.00000   0.00000   0.00000   0.00000  -0.00580
  15        2S          0.00000   0.00000   0.00000   0.00000   0.00662
  16        2PX         0.00000  -0.34192   0.00000  -0.00001   0.00000
  17        2PY         0.00000   0.00000   0.00000   0.00000  -0.30917
  18        2PZ         0.00000   0.00000  -0.34192   0.00000   0.00000
  19        3S          0.00000   0.00000   0.00000   0.00000   0.05470
  20        3PX         0.00000  -0.34549   0.00000  -0.00001   0.00000
  21        3PY         0.00000   0.00000   0.00000   0.00000  -0.34288
  22        3PZ         0.00000   0.00000  -0.34549   0.00000   0.00000
  23        4D 0        0.00000   0.00000   0.00000   0.00862   0.00068
  24        4D+1        0.00787   0.00000   0.00000   0.00000   0.00000
  25        4D-1        0.00000   0.00000  -0.00754   0.00000   0.00000
  26        4D+2        0.00000   0.00000   0.00000  -0.00498   0.00118
  27        4D-2        0.00000  -0.00754   0.00000   0.00000   0.00000
  28 3   Cl 1S          0.00000   0.07771   0.00000   0.16032  -0.02659
  29        2PX         0.00000  -0.26467   0.00000  -0.32005   0.06349
  30        2PY         0.00000  -0.12963   0.00000   0.14863  -0.26477
  31        2PZ        -0.30893   0.00000   0.02953   0.00000   0.00000
  32 4   Cl 1S          0.00000   0.00000   0.07771  -0.16032  -0.02659
  33        2PX        -0.30892   0.02953   0.00000   0.00000   0.00000
  34        2PY         0.00000   0.00001  -0.12962  -0.14863  -0.26477
  35        2PZ         0.00000   0.00000  -0.26468   0.32004   0.06350
  36 5   Cl 1S          0.00000  -0.07772   0.00000   0.16031  -0.02659
  37        2PX         0.00000  -0.26469   0.00000   0.32003  -0.06350
  38        2PY         0.00000   0.12962   0.00000   0.14863  -0.26477
  39        2PZ         0.30892   0.00000   0.02953   0.00000   0.00000
  40 6   Cl 1S          0.00000   0.00000  -0.07771  -0.16032  -0.02659
  41        2PX         0.30892   0.02953   0.00000   0.00000   0.00000
  42        2PY         0.00000   0.00001   0.12962  -0.14863  -0.26477
  43        2PZ         0.00000   0.00000  -0.26468  -0.32004  -0.06350
                          31        32        33        34        35
                        (A')--V   (A')--V   (A')--V   (A")--V   (A")--V
     EIGENVALUES --     0.36106   0.44407   0.45856   0.45856   1.24916
   1 1   Mo 1S          0.20306   0.17613   0.00002   0.00000   0.00000
   2        2S          0.48017   1.28727   0.00013   0.00000   0.00000
   3        3PX         0.00000   0.00001  -0.12412   0.00000   0.00000
   4        3PY         0.12899   0.10240   0.00001   0.00000   0.00000
   5        3PZ         0.00000   0.00000   0.00000  -0.12412  -0.07234
   6        4PX         0.00001  -0.00013   1.31662   0.00000   0.00000
   7        4PY         1.02809  -0.40635  -0.00005   0.00000   0.00000
   8        4PZ         0.00000   0.00000   0.00000   1.31662  -0.35075
   9        5D 0       -0.34693   0.02614   0.00000   0.00000   0.00000
  10        5D+1        0.00000   0.00000   0.00000   0.00000   0.00000
  11        5D-1        0.00000   0.00000   0.00000  -0.07258  -0.23240
  12        5D+2       -0.60090   0.04528   0.00001   0.00000   0.00000
  13        5D-2        0.00000   0.00000  -0.07258   0.00000   0.00000
  14 2   O  1S          0.07128   0.03097   0.00000   0.00000   0.00000
  15        2S         -0.12433  -0.11616  -0.00001   0.00000   0.00000
  16        2PX         0.00000   0.00002  -0.14372   0.00000   0.00000
  17        2PY         0.16437   0.09987   0.00001   0.00000   0.00000
  18        2PZ         0.00000   0.00000   0.00000  -0.14372  -0.94845
  19        3S         -0.75190  -0.15180  -0.00001   0.00000   0.00000
  20        3PX         0.00000   0.00001  -0.11830   0.00000   0.00000
  21        3PY         0.29807   0.08424   0.00001   0.00000   0.00000
  22        3PZ         0.00000   0.00000   0.00000  -0.11830   1.18965
  23        4D 0        0.00546   0.01034   0.00000   0.00000   0.00000
  24        4D+1        0.00000   0.00000   0.00000   0.00000   0.00000
  25        4D-1        0.00000   0.00000   0.00000   0.00669   0.04592
  26        4D+2        0.00945   0.01791   0.00000   0.00000   0.00000
  27        4D-2        0.00000   0.00000   0.00669   0.00000   0.00000
  28 3   Cl 1S          0.04747  -0.37526  -0.52837   0.00000   0.00000
  29        2PX        -0.05839   0.30581   0.13132   0.00000   0.00000
  30        2PY        -0.13726  -0.01532  -0.11391   0.00000   0.00000
  31        2PZ         0.00000   0.00000   0.00000  -0.25046   0.04520
  32 4   Cl 1S          0.04747  -0.37531  -0.00004  -0.52832   0.10862
  33        2PX         0.00000   0.00003  -0.25046   0.00000   0.00000
  34        2PY        -0.13726  -0.01533   0.00000  -0.11390   0.01297
  35        2PZ        -0.05839   0.30582   0.00003   0.13129   0.01308
  36 5   Cl 1S          0.04747  -0.37535   0.52828   0.00000   0.00000
  37        2PX         0.05839  -0.30584   0.13126   0.00000   0.00000
  38        2PY        -0.13726  -0.01534   0.11390   0.00000   0.00000
  39        2PZ         0.00000   0.00000   0.00000  -0.25046   0.04520
  40 6   Cl 1S          0.04747  -0.37531  -0.00004   0.52832  -0.10862
  41        2PX         0.00000   0.00003  -0.25046   0.00000   0.00000
  42        2PY        -0.13726  -0.01533   0.00000   0.11390  -0.01297
  43        2PZ         0.05839  -0.30582  -0.00003   0.13129   0.01308
                          36        37        38        39        40
                        (A')--V   (A')--V   (A')--V   (A")--V   (A')--V
     EIGENVALUES --     1.24916   1.26110   1.56963   2.06986   2.07038
   1 1   Mo 1S          0.00000   0.28225  -0.38703   0.00000   0.00000
   2        2S          0.00000   0.07700  -0.60662   0.00000   0.00000
   3        3PX        -0.07234   0.00000   0.00000   0.00000   0.00000
   4        3PY         0.00000   0.24113  -0.30917   0.00000   0.00000
   5        3PZ         0.00000   0.00000   0.00000   0.00000   0.00000
   6        4PX        -0.35075   0.00000   0.00000   0.00000   0.00000
   7        4PY         0.00000  -0.18462  -0.37160   0.00000   0.00000
   8        4PZ         0.00000   0.00000   0.00000   0.00000   0.00000
   9        5D 0        0.00000   0.03821   0.06991   0.00000  -0.06404
  10        5D+1        0.00000   0.00000   0.00000  -0.06678   0.00000
  11        5D-1        0.00000   0.00000   0.00000   0.00000   0.00000
  12        5D+2        0.00000   0.06619   0.12109   0.00000   0.03697
  13        5D-2       -0.23240   0.00000   0.00000   0.00000   0.00000
  14 2   O  1S          0.00000   0.02919   0.08501   0.00000   0.00000
  15        2S          0.00000  -0.31969  -1.56854   0.00000   0.00000
  16        2PX        -0.94845   0.00001   0.00000   0.00000   0.00000
  17        2PY        -0.00001  -0.92752   0.19193   0.00000   0.00000
  18        2PZ         0.00000   0.00000   0.00000   0.00000   0.00000
  19        3S          0.00000   0.32153   2.00445   0.00000   0.00000
  20        3PX         1.18965  -0.00001   0.00000   0.00000   0.00000
  21        3PY         0.00001   1.14760  -0.46716   0.00000   0.00000
  22        3PZ         0.00000   0.00000   0.00000   0.00000   0.00000
  23        4D 0        0.00000  -0.03293   0.08203   0.00000   0.86745
  24        4D+1        0.00000   0.00000   0.00000   1.00158   0.00000
  25        4D-1        0.00000   0.00000   0.00000   0.00000   0.00000
  26        4D+2        0.00000  -0.05704   0.14207   0.00000  -0.50082
  27        4D-2        0.04592   0.00000   0.00000   0.00000   0.00000
  28 3   Cl 1S          0.10862  -0.03726   0.08735   0.00000  -0.00908
  29        2PX         0.01308   0.01718  -0.04372   0.00000   0.00790
  30        2PY         0.01297   0.03178   0.05001   0.00000  -0.00129
  31        2PZ         0.00000   0.00000   0.00000   0.00605   0.00000
  32 4   Cl 1S          0.00000  -0.03726   0.08735   0.00000   0.00908
  33        2PX         0.04520   0.00000   0.00000   0.00605   0.00000
  34        2PY         0.00000   0.03178   0.05001   0.00000   0.00129
  35        2PZ         0.00000   0.01718  -0.04372   0.00000  -0.00790
  36 5   Cl 1S         -0.10862  -0.03725   0.08734   0.00000  -0.00908
  37        2PX         0.01308  -0.01718   0.04372   0.00000  -0.00790
  38        2PY        -0.01297   0.03178   0.05001   0.00000  -0.00129
  39        2PZ         0.00000   0.00000   0.00000  -0.00605   0.00000
  40 6   Cl 1S          0.00000  -0.03726   0.08735   0.00000   0.00908
  41        2PX         0.04520   0.00000   0.00000  -0.00605   0.00000
  42        2PY         0.00000   0.03178   0.05001   0.00000   0.00129
  43        2PZ         0.00000  -0.01718   0.04372   0.00000   0.00790
                          41        42        43
                        (A')--V   (A")--V   (A')--V
     EIGENVALUES --     2.08402   2.08402   2.18441
   1 1   Mo 1S          0.00000   0.00000   0.30424
   2        2S          0.00000   0.00000   0.17129
   3        3PX         0.07461   0.00000   0.00000
   4        3PY         0.00000   0.00000   0.37980
   5        3PZ         0.00000   0.07461   0.00000
   6        4PX         0.05819   0.00000   0.00000
   7        4PY         0.00000   0.00000   0.07010
   8        4PZ         0.00000   0.05819   0.00000
   9        5D 0        0.00000   0.00000  -0.15037
  10        5D+1        0.00000   0.00000   0.00000
  11        5D-1        0.00000   0.25484   0.00000
  12        5D+2        0.00000   0.00000  -0.26045
  13        5D-2        0.25484   0.00000   0.00000
  14 2   O  1S          0.00000   0.00000  -0.01057
  15        2S          0.00000   0.00000   0.38210
  16        2PX         0.08945   0.00000   0.00000
  17        2PY         0.00000   0.00000  -0.15213
  18        2PZ         0.00000   0.08945   0.00000
  19        3S          0.00000   0.00000  -0.62975
  20        3PX        -0.15707   0.00000   0.00000
  21        3PY         0.00000   0.00000   0.37845
  22        3PZ         0.00000  -0.15707   0.00000
  23        4D 0        0.00000   0.00000   0.52241
  24        4D+1        0.00000   0.00000   0.00000
  25        4D-1        0.00000   1.02199   0.00000
  26        4D+2        0.00000   0.00000   0.90484
  27        4D-2        1.02199   0.00000   0.00000
  28 3   Cl 1S         -0.00213   0.00000  -0.01033
  29        2PX        -0.02476   0.00000  -0.00282
  30        2PY        -0.01533   0.00000   0.01012
  31        2PZ         0.00000  -0.00201   0.00000
  32 4   Cl 1S          0.00000  -0.00213  -0.01033
  33        2PX        -0.00201   0.00000   0.00000
  34        2PY         0.00000  -0.01533   0.01012
  35        2PZ         0.00000  -0.02476  -0.00282
  36 5   Cl 1S          0.00214   0.00000  -0.01033
  37        2PX        -0.02476   0.00000   0.00282
  38        2PY         0.01533   0.00000   0.01012
  39        2PZ         0.00000  -0.00201   0.00000
  40 6   Cl 1S          0.00000   0.00213  -0.01033
  41        2PX        -0.00201   0.00000   0.00000
  42        2PY         0.00000   0.01533   0.01012
  43        2PZ         0.00000  -0.02476   0.00282
          Condensed to atoms (all electrons):
              1          2          3          4          5          6
     1  Mo  12.472457   0.269784   0.156507   0.156508   0.156508   0.156508
     2  O    0.269784   8.192153   0.002699   0.002699   0.002699   0.002699
     3  Cl   0.156507   0.002699   7.401192  -0.010090  -0.000471  -0.010090
     4  Cl   0.156508   0.002699  -0.010090   7.401194  -0.010089  -0.000471
     5  Cl   0.156508   0.002699  -0.000471  -0.010089   7.401196  -0.010089
     6  Cl   0.156508   0.002699  -0.010090  -0.000471  -0.010089   7.401194
 Mulliken atomic charges:
              1
     1  Mo   0.631729
     2  O   -0.472732
     3  Cl  -0.539746
     4  Cl  -0.539749
     5  Cl  -0.539753
     6  Cl  -0.539749
 Sum of Mulliken charges=  -2.00000
 Atomic charges with hydrogens summed into heavy atoms:
              1
     1  Mo   0.631729
     2  O   -0.472732
     3  Cl  -0.539746
     4  Cl  -0.539749
     5  Cl  -0.539753
     6  Cl  -0.539749
 Sum of Mulliken charges=  -2.00000
 Electronic spatial extent (au):  <R**2>=   950.6145
 Charge=    -2.0000 electrons
 Dipole moment (field-independent basis, Debye):
    X=     0.0001    Y=     1.0199    Z=     0.0000  Tot=     1.0199
 Quadrupole moment (field-independent basis, Debye-Ang):
   XX=  -111.2004   YY=   -87.7892   ZZ=  -111.2004
   XY=     0.0000   XZ=     0.0000   YZ=     0.0000
 Traceless Quadrupole moment (field-independent basis, Debye-Ang):
   XX=    -7.8038   YY=    15.6075   ZZ=    -7.8037
   XY=     0.0000   XZ=     0.0000   YZ=     0.0000
 Octapole moment (field-independent basis, Debye-Ang**2):
  XXX=     0.0017  YYY=    -3.8662  ZZZ=     0.0000  XYY=     0.0000
  XXY=    16.2870  XXZ=     0.0000  XZZ=     0.0000  YZZ=    16.2870
  YYZ=     0.0000  XYZ=     0.0000
 Hexadecapole moment (field-independent basis, Debye-Ang**3):
 XXXX= -1172.3279 YYYY=  -342.3111 ZZZZ= -1172.3272 XXXY=     0.0003
 XXXZ=     0.0000 YYYX=     0.0004 YYYZ=     0.0000 ZZZX=     0.0000
 ZZZY=     0.0000 XXYY=  -224.3917 XXZZ=  -336.9482 YYZZ=  -224.3916
 XXYZ=     0.0000 YYXZ=     0.0000 ZZXY=     0.0002
 N-N= 1.930846628283D+02 E-N=-8.422413134374D+02  KE= 1.208204257570D+02
 Symmetry A'   KE= 9.889581646378D+01
 Symmetry A"   KE= 2.192460929326D+01
 Orbital energies and kinetic energies (alpha):
                           1         2
       1  (A')--O     -18.86964  29.12704
       2  (A')--O      -2.22012   1.18159
       3  (A')--O      -1.28574   1.80019
       4  (A")--O      -1.22187   1.81996
       5  (A')--O      -1.22187   1.81996
       6  (A')--O      -0.61100   3.07038
       7  (A')--O      -0.41365   0.50674
       8  (A")--O      -0.40222   0.55049
       9  (A')--O      -0.40222   0.55049
      10  (A')--O      -0.39976   0.56715
      11  (A')--O      -0.09019   2.30483
      12  (A")--O      -0.07596   1.93092
      13  (A')--O      -0.07596   1.93092
      14  (A')--O      -0.00894   0.86448
      15  (A')--O      -0.00514   1.04047
      16  (A")--O       0.00074   0.95014
      17  (A")--O       0.01528   0.98178
      18  (A')--O       0.01528   0.98178
      19  (A')--O       0.02871   0.86200
      20  (A")--O       0.04800   0.96928
      21  (A')--O       0.04800   0.96928
      22  (A')--O       0.05711   0.92704
      23  (A')--O       0.06040   0.94356
      24  (A")--O       0.06040   0.94356
      25  (A")--O       0.07858   0.97140
      26  (A")--O       0.13439   1.84477
      27  (A')--V       0.24844   2.38051
      28  (A")--V       0.24844   2.38051
      29  (A')--V       0.29087   2.12783
      30  (A')--V       0.29341   1.80468
      31  (A')--V       0.36106   1.31783
      32  (A')--V       0.44407   0.91910
      33  (A')--V       0.45856   0.59154
      34  (A")--V       0.45856   0.59154
      35  (A")--V       1.24916   3.56049
      36  (A')--V       1.24916   3.56049
      37  (A')--V       1.26110   3.61667
      38  (A')--V       1.56963   3.84382
      39  (A")--V       2.06986   2.81442
      40  (A')--V       2.07038   2.81632
      41  (A')--V       2.08402   2.99669
      42  (A")--V       2.08402   2.99669
      43  (A')--V       2.18441   3.38012
 Total kinetic energy from orbitals= 1.208204257570D+02
 No NMR shielding tensors so no spin-rotation constants.
 Leave Link  601 at Fri Oct 13 10:18:58 2006, MaxMem=   65536000 cpu:       1.4
 (Enter /usr/sweet/package/Sweet/gaussian-03/@sys/apps/gaussian-03//g03/l9999.exe)

 Test job not archived.
 1\1\GINC-ELAINE35\SP\RB3LYP\Gen\Cl4Mo1O1(2-)\ADAMLT\13-Oct-2006\0\\#P 
 GFINPUT IOP(6/7=3) IOP(3/33=1) #B3LYP/GEN PSEUDO=READ #SP\\Mo4OCl4 res
 tricted single point\\-2,1\Mo,0,0.000325,-0.000325,0.05181\O,0,0.00020
 6,-0.000206,1.741504\Cl,0,1.711727,-1.711727,-0.659846\Cl,0,-1.710992,
 -1.711738,-0.660079\Cl,0,-1.711004,1.711004,-0.660311\Cl,0,1.711738,1.
 710992,-0.660079\\Version=Su64S-G03RevC.02\State=1-A'\HF=-202.7135923\
 RMSD=4.712e-05\Dipole=0.0000114,-0.0000114,0.4012594\PG=CS [SG(Cl2Mo1O
 1),X(Cl2)]\\@


 THE THINKER DIES, BUT HIS THOUGHTS ARE BEYOND THE 
 REACH OF DESTRUCTION.  MEN ARE MORTAL; BUT IDEAS 
 ARE IMMORTAL.
                              -- WALTER LIPPMANN
 Job cpu time:  0 days  0 hours  0 minutes 45.8 seconds.
 File lengths (MBytes):  RWF=     13 Int=      0 D2E=      0 Chk=     10 Scr=      1
 Normal termination of Gaussian 03 at Fri Oct 13 10:19:07 2006.
