 Entering Gaussian System, Link 0=/opt/gaussian-2003-B.03/g03/g03
 Input=water_mp2.com
 Output=water_mp2.log
 Initial command:
 /opt/gaussian-2003-B.03/g03/l1.exe /scratch/langner/g03-scratch-S7XXQ4/Gau-5427.inp -scrdir=/scratch/langner/g03-scratch-S7XXQ4/
 Entering Link 1 = /opt/gaussian-2003-B.03/g03/l1.exe PID=      5428.
  
 Copyright (c) 1988,1990,1992,1993,1995,1998,2003, Gaussian, Inc.
                  All Rights Reserved.
  
 This is the Gaussian(R) 03 program.  It is based on the
 the Gaussian(R) 98 system (copyright 1998, Gaussian, Inc.),
 the Gaussian(R) 94 system (copyright 1995, Gaussian, Inc.),
 the Gaussian 92(TM) system (copyright 1992, Gaussian, Inc.),
 the Gaussian 90(TM) system (copyright 1990, Gaussian, Inc.),
 the Gaussian 88(TM) system (copyright 1988, Gaussian, Inc.),
 the Gaussian 86(TM) system (copyright 1986, Carnegie Mellon
 University), and the Gaussian 82(TM) system (copyright 1983,
 Carnegie Mellon University). Gaussian is a federally registered
 trademark of Gaussian, Inc.
  
 This software contains proprietary and confidential information,
 including trade secrets, belonging to Gaussian, Inc.
  
 This software is provided under written license and may be
 used, copied, transmitted, or stored only in accord with that
 written license.
  
 The following legend is applicable only to US Government
 contracts under DFARS:
  
                    RESTRICTED RIGHTS LEGEND
  
 Use, duplication or disclosure by the US Government is subject
 to restrictions as set forth in subparagraph (c)(1)(ii) of the
 Rights in Technical Data and Computer Software clause at DFARS
 252.227-7013.
  
 Gaussian, Inc.
 Carnegie Office Park, Building 6, Pittsburgh, PA 15106 USA
  
 The following legend is applicable only to US Government
 contracts under FAR:
  
                    RESTRICTED RIGHTS LEGEND
  
 Use, reproduction and disclosure by the US Government is subject
 to restrictions as set forth in subparagraph (c) of the
 Commercial Computer Software - Restricted Rights clause at FAR
 52.227-19.
  
 Gaussian, Inc.
 Carnegie Office Park, Building 6, Pittsburgh, PA 15106 USA
  
  
 ---------------------------------------------------------------
 Warning -- This program may not be used in any manner that
 competes with the business of Gaussian, Inc. or will provide
 assistance to any competitor of Gaussian, Inc.  The licensee
 of this program is prohibited from giving any competitor of
 Gaussian, Inc. access to this program.  By using this program,
 the user acknowledges that Gaussian, Inc. is engaged in the
 business of creating and licensing software in the field of
 computational chemistry and represents and warrants to the
 licensee that it is not a competitor of Gaussian, Inc. and that
 it will not use this program in any manner prohibited above.
 ---------------------------------------------------------------
  

 Cite this work as:
 Gaussian 03, Revision B.03,
 M. J. Frisch, G. W. Trucks, H. B. Schlegel, G. E. Scuseria, 
 M. A. Robb, J. R. Cheeseman, J. A. Montgomery, Jr., T. Vreven, 
 K. N. Kudin, J. C. Burant, J. M. Millam, S. S. Iyengar, J. Tomasi, 
 V. Barone, B. Mennucci, M. Cossi, G. Scalmani, N. Rega, 
 G. A. Petersson, H. Nakatsuji, M. Hada, M. Ehara, K. Toyota, 
 R. Fukuda, J. Hasegawa, M. Ishida, T. Nakajima, Y. Honda, O. Kitao, 
 H. Nakai, M. Klene, X. Li, J. E. Knox, H. P. Hratchian, J. B. Cross, 
 C. Adamo, J. Jaramillo, R. Gomperts, R. E. Stratmann, O. Yazyev, 
 A. J. Austin, R. Cammi, C. Pomelli, J. W. Ochterski, P. Y. Ayala, 
 K. Morokuma, G. A. Voth, P. Salvador, J. J. Dannenberg, 
 V. G. Zakrzewski, S. Dapprich, A. D. Daniels, M. C. Strain, 
 O. Farkas, D. K. Malick, A. D. Rabuck, K. Raghavachari, 
 J. B. Foresman, J. V. Ortiz, Q. Cui, A. G. Baboul, S. Clifford, 
 J. Cioslowski, B. B. Stefanov, G. Liu, A. Liashenko, P. Piskorz, 
 I. Komaromi, R. L. Martin, D. J. Fox, T. Keith, M. A. Al-Laham, 
 C. Y. Peng, A. Nanayakkara, M. Challacombe, P. M. W. Gill, 
 B. Johnson, W. Chen, M. W. Wong, C. Gonzalez, and J. A. Pople, 
 Gaussian, Inc., Pittsburgh PA, 2003.
 
 *********************************************
 Gaussian 03:  x86-Linux-G03RevB.03 4-May-2003
                   7-Aug-2007 
 *********************************************
 ------------------------------------------------
 #P MP2/STO-3G Density Pop=(Full,NaturalOrbitals)
 ------------------------------------------------
 1/30=1,38=1/1;
 2/17=6,18=5,40=1/2;
 3/6=3,11=9,16=1,25=1,30=1/1,2,3;
 4//1;
 5/5=2,38=5/2;
 8/6=4,10=1/1;
 9/15=1,16=-3/6;
 10/5=1,13=10/2;
 6/7=3,22=-1,31=1/1;
 99/5=1,9=1/99;
 Leave Link    1 at Tue Aug  7 11:44:16 2007, MaxMem=          0 cpu:       0.1
 (Enter /opt/gaussian-2003-B.03/g03/l101.exe)
 -----
 Water
 -----
 Symbolic Z-matrix:
 Charge =  0 Multiplicity = 1
 O
 H                    1    R1
 H                    1    R1       2    A1
       Variables:
  R1                    0.99                     
  A1                  106.                       
 
                    Isotopes and Nuclear Properties:

  Atom         1           2           3
 IAtWgt=          16           1           1
 AtmWgt=  15.9949146   1.0078250   1.0078250
 IAtSpn=           0           1           1
 AtZEff=   0.0000000   0.0000000   0.0000000
 AtQMom=   0.0000000   0.0000000   0.0000000
 AtGFac=   0.0000000   2.7928460   2.7928460
 Leave Link  101 at Tue Aug  7 11:44:16 2007, MaxMem=    6291456 cpu:       0.1
 (Enter /opt/gaussian-2003-B.03/g03/l202.exe)
                          Input orientation:                          
 ---------------------------------------------------------------------
 Center     Atomic     Atomic              Coordinates (Angstroms)
 Number     Number      Type              X           Y           Z
 ---------------------------------------------------------------------
    1          8             0        0.000000    0.000000    0.000000
    2          1             0        0.000000    0.000000    0.990000
    3          1             0        0.951649    0.000000   -0.272881
 ---------------------------------------------------------------------
                    Distance matrix (angstroms):
                    1          2          3
     1  O    0.000000
     2  H    0.990000   0.000000
     3  H    0.990000   1.581298   0.000000
 Stoichiometry    H2O
 Framework group  C2V[C2(O),SGV(H2)]
 Deg. of freedom     2
 Full point group                 C2V     NOp   4
 Largest Abelian subgroup         C2V     NOp   4
 Largest concise Abelian subgroup C2      NOp   2
                         Standard orientation:                         
 ---------------------------------------------------------------------
 Center     Atomic     Atomic              Coordinates (Angstroms)
 Number     Number      Type              X           Y           Z
 ---------------------------------------------------------------------
    1          8             0        0.000000    0.000000    0.119159
    2          1             0        0.000000    0.790649   -0.476637
    3          1             0        0.000000   -0.790649   -0.476637
 ---------------------------------------------------------------------
 Rotational constants (GHZ):    795.3366986    401.0831670    266.6255978
 Leave Link  202 at Tue Aug  7 11:44:16 2007, MaxMem=    6291456 cpu:       0.1
 (Enter /opt/gaussian-2003-B.03/g03/l301.exe)
 Standard basis: STO-3G (5D, 7F)
 There are     4 symmetry adapted basis functions of A1  symmetry.
 There are     0 symmetry adapted basis functions of A2  symmetry.
 There are     1 symmetry adapted basis functions of B1  symmetry.
 There are     2 symmetry adapted basis functions of B2  symmetry.
 Integral buffers will be    262144 words long.
 Raffenetti 1 integral format.
 Two-electron integral symmetry is turned on.
     7 basis functions,    21 primitive gaussians,     7 cartesian basis functions
     5 alpha electrons        5 beta electrons
       nuclear repulsion energy         8.8870062210 Hartrees.
 IExCor=   0 DFT=F Ex=HF Corr=None ExCW=0 ScaHFX=  1.000000
 ScaDFX=  1.000000  1.000000  1.000000  1.000000
 IRadAn=      0 IRanWt=     -1 IRanGd=            0 ICorTp=0
 NAtoms=    3 NActive=    3 NUniq=    2 SFac= 2.76E+00 NAtFMM=   60 Big=F
 Leave Link  301 at Tue Aug  7 11:44:16 2007, MaxMem=    6291456 cpu:       0.0
 (Enter /opt/gaussian-2003-B.03/g03/l302.exe)
 NPDir=0 NMtPBC=     1 NCelOv=     1 NCel=       1 NClECP=     1 NCelD=      1
         NCelK=      1 NCelE2=     1 NClLst=     1 CellRange=     0.0.
 One-electron integrals computed using PRISM.
 One-electron integral symmetry used in STVInt
 NBasis=     7 RedAO= T  NBF=     4     0     1     2
 NBsUse=     7 1.00E-06 NBFU=     4     0     1     2
 Leave Link  302 at Tue Aug  7 11:44:16 2007, MaxMem=    6291456 cpu:       0.1
 (Enter /opt/gaussian-2003-B.03/g03/l303.exe)
 DipDrv:  MaxL=1.
 Leave Link  303 at Tue Aug  7 11:44:16 2007, MaxMem=    6291456 cpu:       0.0
 (Enter /opt/gaussian-2003-B.03/g03/l401.exe)
 Harris functional with IExCor=  205 diagonalized for initial guess.
 ExpMin= 1.69E-01 ExpMax= 1.31E+02 ExpMxC= 1.31E+02 IAcc=1 IRadAn=         1 AccDes= 1.00E-06
 HarFok:  IExCor= 205 AccDes= 1.00E-06 IRadAn=         1 IDoV=1
 ScaDFX=  1.000000  1.000000  1.000000  1.000000
 Harris En= -75.0443641475335    
 Initial guess orbital symmetries:
       Occupied  (A1) (A1) (B2) (A1) (B1)
       Virtual   (A1) (B2)
 The electronic state of the initial guess is 1-A1.
 Leave Link  401 at Tue Aug  7 11:44:17 2007, MaxMem=    6291456 cpu:       0.0
 (Enter /opt/gaussian-2003-B.03/g03/l502.exe)
 Closed shell SCF:
 Requested convergence on RMS density matrix=1.00E-08 within 128 cycles.
 Requested convergence on MAX density matrix=1.00E-06.
 Requested convergence on             energy=1.00E-06.
 No special actions if energy rises.
 Using DIIS extrapolation, IDIIS=  1040.
 Integral symmetry usage will be decided dynamically.
 Keep R1 integrals in memory in canonical form, NReq=      419409.
 IEnd=     18764 IEndB=     18764 NGot=   6291456 MDV=   6289375
 LenX=   6289375
 Symmetry not used in FoFDir.
 MinBra= 0 MaxBra= 1 Meth= 1.
 IRaf=       0 NMat=   1 IRICut=       1 DoRegI=T DoRafI=F ISym2E= 0 JSym2E=0.

 Cycle   1  Pass 1  IDiag  1:
 E= -74.9083117470593    
 DIIS: error= 7.76E-02 at cycle   1 NSaved=   1.
 NSaved= 1 IEnMin= 1 EnMin= -74.9083117470593     IErMin= 1 ErrMin= 7.76E-02
 ErrMax= 7.76E-02 EMaxC= 1.00E-01 BMatC= 4.01E-02 BMatP= 4.01E-02
 IDIUse=3 WtCom= 2.24E-01 WtEn= 7.76E-01
 Coeff-Com:  0.100E+01
 Coeff-En:   0.100E+01
 Coeff:      0.100E+01
 Gap=     0.852 Goal=   None    Shift=    0.000
 GapD=    0.852 DampG=2.000 DampE=0.500 DampFc=1.0000 IDamp=-1.
 RMSDP=4.19E-02 MaxDP=1.48E-01              OVMax= 0.00E+00

 Cycle   2  Pass 1  IDiag  1:
 E= -74.9637999015671     Delta-E=       -0.055488154508 Rises=F Damp=F
 DIIS: error= 6.07E-03 at cycle   2 NSaved=   2.
 NSaved= 2 IEnMin= 2 EnMin= -74.9637999015671     IErMin= 2 ErrMin= 6.07E-03
 ErrMax= 6.07E-03 EMaxC= 1.00E-01 BMatC= 4.81E-04 BMatP= 4.01E-02
 IDIUse=3 WtCom= 9.39E-01 WtEn= 6.07E-02
 Coeff-Com:  0.734E-01 0.927E+00
 Coeff-En:   0.000E+00 0.100E+01
 Coeff:      0.690E-01 0.931E+00
 Gap=     0.959 Goal=   None    Shift=    0.000
 RMSDP=3.25E-03 MaxDP=9.15E-03 DE=-5.55E-02 OVMax= 0.00E+00

 Cycle   3  Pass 1  IDiag  1:
 E= -74.9643163002803     Delta-E=       -0.000516398713 Rises=F Damp=F
 DIIS: error= 1.06E-03 at cycle   3 NSaved=   3.
 NSaved= 3 IEnMin= 3 EnMin= -74.9643163002803     IErMin= 3 ErrMin= 1.06E-03
 ErrMax= 1.06E-03 EMaxC= 1.00E-01 BMatC= 7.36E-06 BMatP= 4.81E-04
 IDIUse=3 WtCom= 9.89E-01 WtEn= 1.06E-02
 Coeff-Com: -0.130E-01-0.147E+00 0.116E+01
 Coeff-En:   0.000E+00 0.000E+00 0.100E+01
 Coeff:     -0.129E-01-0.146E+00 0.116E+01
 Gap=     0.959 Goal=   None    Shift=    0.000
 RMSDP=7.36E-04 MaxDP=3.11E-03 DE=-5.16E-04 OVMax= 0.00E+00

 Cycle   4  Pass 1  IDiag  1:
 E= -74.9643283828003     Delta-E=       -0.000012082520 Rises=F Damp=F
 DIIS: error= 1.54E-04 at cycle   4 NSaved=   4.
 NSaved= 4 IEnMin= 4 EnMin= -74.9643283828003     IErMin= 4 ErrMin= 1.54E-04
 ErrMax= 1.54E-04 EMaxC= 1.00E-01 BMatC= 1.84E-07 BMatP= 7.36E-06
 IDIUse=3 WtCom= 9.98E-01 WtEn= 1.54E-03
 Coeff-Com:  0.149E-02 0.924E-02-0.216E+00 0.120E+01
 Coeff-En:   0.000E+00 0.000E+00 0.000E+00 0.100E+01
 Coeff:      0.149E-02 0.923E-02-0.215E+00 0.120E+01
 Gap=     0.959 Goal=   None    Shift=    0.000
 RMSDP=1.53E-04 MaxDP=6.35E-04 DE=-1.21E-05 OVMax= 0.00E+00

 Cycle   5  Pass 1  IDiag  1:
 E= -74.9643287687559     Delta-E=       -0.000000385956 Rises=F Damp=F
 DIIS: error= 2.87E-05 at cycle   5 NSaved=   5.
 NSaved= 5 IEnMin= 5 EnMin= -74.9643287687559     IErMin= 5 ErrMin= 2.87E-05
 ErrMax= 2.87E-05 EMaxC= 1.00E-01 BMatC= 6.91E-09 BMatP= 1.84E-07
 IDIUse=1 WtCom= 1.00E+00 WtEn= 0.00E+00
 Coeff-Com: -0.883E-03-0.525E-02 0.148E+00-0.907E+00 0.177E+01
 Coeff:     -0.883E-03-0.525E-02 0.148E+00-0.907E+00 0.177E+01
 Gap=     0.959 Goal=   None    Shift=    0.000
 RMSDP=4.41E-05 MaxDP=1.37E-04 DE=-3.86E-07 OVMax= 0.00E+00

 Cycle   6  Pass 1  IDiag  1:
 E= -74.9643287912944     Delta-E=       -0.000000022539 Rises=F Damp=F
 DIIS: error= 3.06E-07 at cycle   6 NSaved=   6.
 NSaved= 6 IEnMin= 6 EnMin= -74.9643287912944     IErMin= 6 ErrMin= 3.06E-07
 ErrMax= 3.06E-07 EMaxC= 1.00E-01 BMatC= 7.43E-13 BMatP= 6.91E-09
 IDIUse=1 WtCom= 1.00E+00 WtEn= 0.00E+00
 Coeff-Com: -0.287E-07-0.143E-04 0.507E-03-0.367E-02 0.158E-01 0.987E+00
 Coeff:     -0.287E-07-0.143E-04 0.507E-03-0.367E-02 0.158E-01 0.987E+00
 Gap=     0.959 Goal=   None    Shift=    0.000
 RMSDP=3.77E-07 MaxDP=1.35E-06 DE=-2.25E-08 OVMax= 0.00E+00

 Cycle   7  Pass 1  IDiag  1:
 E= -74.9643287912963     Delta-E=       -0.000000000002 Rises=F Damp=F
 DIIS: error= 2.44E-10 at cycle   7 NSaved=   7.
 NSaved= 7 IEnMin= 7 EnMin= -74.9643287912963     IErMin= 7 ErrMin= 2.44E-10
 ErrMax= 2.44E-10 EMaxC= 1.00E-01 BMatC= 4.00E-19 BMatP= 7.43E-13
 IDIUse=1 WtCom= 1.00E+00 WtEn= 0.00E+00
 Coeff-Com:  0.740E-10 0.103E-07 0.537E-06-0.578E-05 0.206E-04 0.130E-02
 Coeff-Com:  0.999E+00
 Coeff:      0.740E-10 0.103E-07 0.537E-06-0.578E-05 0.206E-04 0.130E-02
 Coeff:      0.999E+00
 Gap=     0.959 Goal=   None    Shift=    0.000
 RMSDP=2.62E-10 MaxDP=8.41E-10 DE=-1.90E-12 OVMax= 0.00E+00

 SCF Done:  E(RHF) =  -74.9643287913     A.U. after    7 cycles
             Convg  =    0.2621E-09             -V/T =  2.0060
             S**2   =   0.0000
 KE= 7.451686028026E+01 PE=-1.963570297588E+02 EE= 3.798883446619E+01
 Leave Link  502 at Tue Aug  7 11:44:17 2007, MaxMem=    6291456 cpu:       0.0
 (Enter /opt/gaussian-2003-B.03/g03/l801.exe)
 ExpMin= 1.69E-01 ExpMax= 1.31E+02 ExpMxC= 1.31E+02 IAcc=1 IRadAn=         1 AccDes= 1.00E-06
 HarFok:  IExCor= 205 AccDes= 1.00E-06 IRadAn=         1 IDoV=1
 ScaDFX=  1.000000  1.000000  1.000000  1.000000
 Largest valence mixing into a core orbital is  8.01E-05
 Largest core mixing into a valence orbital is  4.30E-05
 Range of M.O.s used for correlation:     2     7
 NBasis=     7 NAE=     5 NBE=     5 NFC=     1 NFV=     0
 NROrb=      6 NOA=     4 NOB=     4 NVA=     2 NVB=     2
 Leave Link  801 at Tue Aug  7 11:44:17 2007, MaxMem=    6291456 cpu:       0.1
 (Enter /opt/gaussian-2003-B.03/g03/l906.exe)
 Frozen-core derivative calculation, NFC=   1 NFV=   0.
 FulOut=F Deriv=T AODrv=F NAtomX=     3
   MMem=        6767  MDisk=           4 MDiskD=           4
  W3Min=         245 MinDsk=       50700 NBas6D=           7
 NBas2D=          34    NTT=          28    LW2=     1572801
    MDV=     6291207 MDiskM=        7021 NBas2p=          28
 Fully in-core method, ICMem=     4721307.
 IMap=   1   2   3   4   5
 JobTyp=1 Pass  1 fully in-core, NPsUse=  1.
 Compute canonical integrals, IntTyp=   4.
 Symmetry not used in FoFDir.
 MinBra= 0 MaxBra= 1 Meth= 1.
 IRaf=       0 NMat=   1 IRICut=       1 DoRegI=T DoRafI=F ISym2E= 0 JSym2E=0.
 Spin components of T(2) and E(2):
     alpha-alpha T2 =       0.4074384598E-03 E2=     -0.1088543325E-02
     alpha-beta  T2 =       0.1385761981E-01 E2=     -0.3577624988E-01
     beta-beta   T2 =       0.4074384598E-03 E2=     -0.1088543325E-02
 The integrals were generated   1 times.
 ANorm=    0.1007309534E+01
 E2 =    -0.3795333653E-01 EUMP2 =    -0.75002282127824E+02
 Leave Link  906 at Tue Aug  7 11:44:17 2007, MaxMem=    6291456 cpu:       0.1
 (Enter /opt/gaussian-2003-B.03/g03/l1002.exe)
 Minotr:  Closed-shell wavefunction.
          Computing MP2 derivatives.
          Using Z-Vector for PSCF gradient.
          Skipping F1 and S1 gradient terms here.
          Frozen-core window.
          Direct CPHF calculation.
          Solving linear equations simultaneously.
          Differentiating once with respect to electric field.
                with respect to dipole field.
          Electric field/nuclear overlap derivatives assumed to be zero.
          Using symmetry in CPHF.
          Requested convergence is 1.0E-10 RMS, and 1.0E-09 maximum.
          Secondary convergence is 1.0E-12 RMS, and 1.0E-12 maximum.
          NewPWx=F KeepS1=T KeepF1=T KeepIn=T MapXYZ=F.
          MDV=       6291456 using IRadAn=       2.
          Store integrals in memory, NReq=      400515.
 Symmetry not used in FoFDir.
 MinBra= 0 MaxBra= 1 Meth= 1.
 IRaf=       0 NMat=   1 IRICut=       1 DoRegI=T DoRafI=F ISym2E= 0 JSym2E=0.
          There are   1 degrees of freedom in the 1st order CPHF.
     1 vectors were produced by pass  0.
 AX will form   1 AO Fock derivatives at one time.
     1 vectors were produced by pass  1.
     1 vectors were produced by pass  2.
     1 vectors were produced by pass  3.
 Inv2:  IOpt= 1 Iter= 1 AM= 4.98E-17 Conv= 1.00E-12.
 Inverted reduced A of dimension    4 with in-core refinement.
 End of Minotr Frequency-dependent properties file   721 does not exist.
 Leave Link 1002 at Tue Aug  7 11:44:17 2007, MaxMem=    6291456 cpu:       0.0
 (Enter /opt/gaussian-2003-B.03/g03/l601.exe)
 Copying SCF densities to generalized density rwf, ISCF=0 IROHF=0.

 **********************************************************************

            Population analysis using the MP2 density.

 **********************************************************************

 Orbital symmetries:
       Occupied  (A1) (A1) (B2) (A1) (B1)
       Virtual   (A1) (B2)
 The electronic state is 1-A1.
     Natural Orbital Coefficients
                           1         2         3         4         5
     EIGENVALUES --     2.00000   1.99898   1.99837   1.98782   1.98567
   1 1   O  1S          1.00316   0.00000   0.21266   0.04628   0.00000
   2        2S         -0.01315   0.00000  -0.99859  -0.02020   0.00000
   3        2PX         0.00000   1.00000   0.00000   0.00000   0.00000
   4        2PY         0.00000   0.00000   0.00000   0.00000  -0.60248
   5        2PZ        -0.01879   0.00000  -0.32086   0.70643   0.00000
   6 2   H  1S         -0.00330   0.00000   0.03212  -0.33347  -0.44706
   7 3   H  1S         -0.00330   0.00000   0.03212  -0.33347   0.44706
                           6         7
     EIGENVALUES --     0.01506   0.01409
   1 1   O  1S          0.00000   0.12714
   2        2S          0.00000  -0.82667
   3        2PX         0.00000   0.00000
   4        2PY        -0.97700   0.00000
   5        2PZ         0.00000   0.73999
   6 2   H  1S          0.80854   0.77310
   7 3   H  1S         -0.80854   0.77310
      DENSITY MATRIX.
                           1         2         3         4         5
   1 1   O  1S          2.10753
   2        2S         -0.45410   2.00352
   3        2PX         0.00000   0.00000   1.99898
   4        2PY         0.00000   0.00000   0.00000   0.73513
   5        2PZ        -0.10773   0.60381   0.00000   0.00000   1.20618
   6 2   H  1S         -0.02227  -0.05964   0.00000   0.52293  -0.48069
   7 3   H  1S         -0.02227  -0.05964   0.00000  -0.52293  -0.48069
                           6         7
   6 2   H  1S          0.63827
   7 3   H  1S         -0.17515   0.63827
    Full Mulliken population analysis:
                           1         2         3         4         5
   1 1   O  1S          2.10753
   2        2S         -0.10749   2.00352
   3        2PX         0.00000   0.00000   1.99898
   4        2PY         0.00000   0.00000   0.00000   0.73513
   5        2PZ         0.00000   0.00000   0.00000   0.00000   1.20618
   6 2   H  1S         -0.00111  -0.02705   0.00000   0.15946   0.11046
   7 3   H  1S         -0.00111  -0.02705   0.00000   0.15946   0.11046
                           6         7
   6 2   H  1S          0.63827
   7 3   H  1S         -0.03998   0.63827
     Gross orbital populations:
                           1
   1 1   O  1S          1.99782
   2        2S          1.84194
   3        2PX         1.99898
   4        2PY         1.05406
   5        2PZ         1.42710
   6 2   H  1S          0.84006
   7 3   H  1S          0.84006
          Condensed to atoms (all electrons):
              1          2          3
     1  O    7.836363   0.241763   0.241763
     2  H    0.241763   0.638275  -0.039982
     3  H    0.241763  -0.039982   0.638275
 Mulliken atomic charges:
              1
     1  O   -0.319889
     2  H    0.159944
     3  H    0.159944
 Sum of Mulliken charges=   0.00000
 Atomic charges with hydrogens summed into heavy atoms:
              1
     1  O    0.000000
     2  H    0.000000
     3  H    0.000000
 Sum of Mulliken charges=   0.00000
 Electronic spatial extent (au):  <R**2>=    18.3662
 Charge=     0.0000 electrons
 Dipole moment (field-independent basis, Debye):
    X=     0.0000    Y=     0.0000    Z=    -1.5994  Tot=     1.5994
 Quadrupole moment (field-independent basis, Debye-Ang):
   XX=    -6.1302   YY=    -4.3881   ZZ=    -5.4516
   XY=     0.0000   XZ=     0.0000   YZ=     0.0000
 Traceless Quadrupole moment (field-independent basis, Debye-Ang):
   XX=    -0.8069   YY=     0.9352   ZZ=    -0.1283
   XY=     0.0000   XZ=     0.0000   YZ=     0.0000
 Octapole moment (field-independent basis, Debye-Ang**2):
  XXX=     0.0000  YYY=     0.0000  ZZZ=    -0.0716  XYY=     0.0000
  XXY=     0.0000  XXZ=     0.0286  XZZ=     0.0000  YZZ=     0.0000
  YYZ=    -0.5159  XYZ=     0.0000
 Hexadecapole moment (field-independent basis, Debye-Ang**3):
 XXXX=    -3.2768 YYYY=    -7.0183 ZZZZ=    -5.0635 XXXY=     0.0000
 XXXZ=     0.0000 YYYX=     0.0000 YYYZ=     0.0000 ZZZX=     0.0000
 ZZZY=     0.0000 XXYY=    -1.8808 XXZZ=    -1.4243 YYZZ=    -1.8087
 XXYZ=     0.0000 YYXZ=     0.0000 ZZXY=     0.0000
 N-N= 8.887006221008E+00 E-N=-1.963002725301E+02  KE= 7.453724694635E+01
 Symmetry A1   KE= 6.657437237019E+01
 Symmetry A2   KE= 0.000000000000E+00
 Symmetry B1   KE= 5.054873211779E+00
 Symmetry B2   KE= 2.908001364377E+00
 Orbital energies and kinetic energies (alpha):
                           1         2
       1  (A1)--O     -20.24375  28.65991
       2  (A1)--O      -1.25064   2.38005
       3  (B2)--O      -0.60317   1.44521
       4  (A1)--O      -0.44547   2.24453
       5  (B1)--O      -0.38821   2.52873
       6  (A1)--V       0.57075   2.70019
       7  (B2)--V       0.70859   2.74596
 Total kinetic energy from orbitals= 7.451686028026E+01
 No NMR shielding tensors so no spin-rotation constants.
 Leave Link  601 at Tue Aug  7 11:44:17 2007, MaxMem=    6291456 cpu:       0.1
 (Enter /opt/gaussian-2003-B.03/g03/l9999.exe)
 1\1\GINC-PUFFIN\SP\RMP2-FC\STO-3G\H2O1\LANGNER\07-Aug-2007\0\\#P MP2/S
 TO-3G DENSITY POP=(FULL,NATURALORBITALS)\\Water\\0,1\O\H,1,0.99\H,1,0.
 99,2,106.\\Version=x86-Linux-G03RevB.03\State=1-A1\HF=-74.9643288\MP2=
 -75.0022821\RMSD=2.621e-10\Dipole=0.5025539,0.,0.3787015\PG=C02V [C2(O
 1),SGV(H2)]\\@


 A MAN IS NEVER SO BRILLIANT AS WHEN HE TAKES THE WORDS RIGHT OUT
 OF YOUR MOUTH. -- ARNOT SHEPPARD, JR.
 Job cpu time:  0 days  0 hours  0 minutes  1.6 seconds.
 File lengths (MBytes):  RWF=     11 Int=      0 D2E=      0 Chk=      7 Scr=      1
 Normal termination of Gaussian 03 at Tue Aug  7 11:44:17 2007.
