
    -----------------------------------------------------------------------
          Psi4: An Open-Source Ab Initio Electronic Structure Package
                               Psi4 1.2.1 release

                         Git: Rev {HEAD} 406f4de 


    R. M. Parrish, L. A. Burns, D. G. A. Smith, A. C. Simmonett,
    A. E. DePrince III, E. G. Hohenstein, U. Bozkaya, A. Yu. Sokolov,
    R. Di Remigio, R. M. Richard, J. F. Gonthier, A. M. James,
    H. R. McAlexander, A. Kumar, M. Saitow, X. Wang, B. P. Pritchard,
    P. Verma, H. F. Schaefer III, K. Patkowski, R. A. King, E. F. Valeev,
    F. A. Evangelista, J. M. Turney, T. D. Crawford, and C. D. Sherrill,
    J. Chem. Theory Comput. 13(7) pp 3185--3197 (2017).
    (doi: 10.1021/acs.jctc.7b00174)


                         Additional Contributions by
    P. Kraus, H. Kruse, M. H. Lechner, M. C. Schieber, and R. A. Shaw

    -----------------------------------------------------------------------


    Psi4 started on: Sunday, 09 December 2018 11:28PM

    Process ID: 40528
    Host:       osmium
    PSIDATADIR: /home/eric/data/opt/apps/python/psi4conda/share/psi4
    Memory:     500.0 MiB
    Threads:    4
    
  ==> Input File <==

--------------------------------------------------------------------------
molecule dvb {
    0 1
    C    -1.4152533224   0.2302217854   0.0000000000
    C     1.4152533224  -0.2302217854   0.0000000000
    C    -0.4951331558   1.3144608674   0.0000000000
    C     0.4951331558  -1.3144608674   0.0000000000
    C     0.8894090436   1.0909493743   0.0000000000
    C    -0.8894090436  -1.0909493743   0.0000000000
    H    -0.8795511985   2.3437343748   0.0000000000
    H     0.8795511985  -2.3437343748   0.0000000000
    H     1.5779041557   1.9450061275   0.0000000000
    H    -1.5779041557  -1.9450061275   0.0000000000
    C     2.8845844962  -0.5210893778   0.0000000000
    C    -2.8845844962   0.5210893778   0.0000000000
    H     3.1403356810  -1.5919605685   0.0000000000
    H    -3.1403356810   1.5919605685   0.0000000000
    C     3.8800428103   0.3822535424   0.0000000000
    C    -3.8800428103  -0.3822535424   0.0000000000
    H     3.6946765858   1.4624389570   0.0000000000
    H    -3.6946765858  -1.4624389570   0.0000000000
    H     4.9316453546   0.0711049543   0.0000000000
    H    -4.9316453546  -0.0711049543   0.0000000000
}

set {
    basis sto-3g
    scf_type direct
}

energy('bp86-d3zero')
--------------------------------------------------------------------------

*** tstart() called on osmium
*** at Sun Dec  9 23:28:33 2018

   => Loading Basis Set <=

    Name: STO-3G
    Role: ORBITAL
    Keyword: BASIS
    atoms 1-6, 11-12, 15-16  entry C          line    61 file /home/eric/data/opt/apps/python/psi4conda/share/psi4/basis/sto-3g.gbs 
    atoms 7-10, 13-14, 17-20 entry H          line    19 file /home/eric/data/opt/apps/python/psi4conda/share/psi4/basis/sto-3g.gbs 


         ---------------------------------------------------------
                                   SCF
            by Justin Turney, Rob Parrish, Andy Simmonett
                             and Daniel Smith
                              RKS Reference
                        4 Threads,    500 MiB Core
         ---------------------------------------------------------

  ==> Geometry <==

    Molecular point group: c2h
    Full point group: C2h

    Geometry (in Angstrom), charge = 0, multiplicity = 1:

       Center              X                  Y                   Z               Mass       
    ------------   -----------------  -----------------  -----------------  -----------------
         C           -1.415253322400     0.230221785400     0.000000000000    12.000000000000
         C            1.415253322400    -0.230221785400     0.000000000000    12.000000000000
         C           -0.495133155800     1.314460867400     0.000000000000    12.000000000000
         C            0.495133155800    -1.314460867400     0.000000000000    12.000000000000
         C            0.889409043600     1.090949374300     0.000000000000    12.000000000000
         C           -0.889409043600    -1.090949374300     0.000000000000    12.000000000000
         H           -0.879551198500     2.343734374800     0.000000000000     1.007825032070
         H            0.879551198500    -2.343734374800     0.000000000000     1.007825032070
         H            1.577904155700     1.945006127500     0.000000000000     1.007825032070
         H           -1.577904155700    -1.945006127500     0.000000000000     1.007825032070
         C            2.884584496200    -0.521089377800     0.000000000000    12.000000000000
         C           -2.884584496200     0.521089377800     0.000000000000    12.000000000000
         H            3.140335681000    -1.591960568500     0.000000000000     1.007825032070
         H           -3.140335681000     1.591960568500     0.000000000000     1.007825032070
         C            3.880042810300     0.382253542400     0.000000000000    12.000000000000
         C           -3.880042810300    -0.382253542400     0.000000000000    12.000000000000
         H            3.694676585800     1.462438957000     0.000000000000     1.007825032070
         H           -3.694676585800    -1.462438957000     0.000000000000     1.007825032070
         H            4.931645354600     0.071104954300     0.000000000000     1.007825032070
         H           -4.931645354600    -0.071104954300     0.000000000000     1.007825032070

  Running in c2h symmetry.

  Rotational constants: A =      0.15403  B =      0.02287  C =      0.01992 [cm^-1]
  Rotational constants: A =   4617.84332  B =    685.76183  C =    597.09209 [MHz]
  Nuclear repulsion =  445.936978114243459

  Charge       = 0
  Multiplicity = 1
  Electrons    = 70
  Nalpha       = 35
  Nbeta        = 35

  ==> Algorithm <==

  SCF Algorithm Type is DIRECT.
  DIIS enabled.
  MOM disabled.
  Fractional occupation disabled.
  Guess Type is SAD.
  Energy threshold   = 1.00e-06
  Density threshold  = 1.00e-06
  Integral threshold = 0.00e+00

  ==> Primary Basis <==

  Basis Set: STO-3G
    Blend: STO-3G
    Number of shells: 40
    Number of basis function: 60
    Number of Cartesian functions: 60
    Spherical Harmonics?: true
    Max angular momentum: 1

  ==> DFT Potential <==

   => Composite Functional: BP86-D3ZERO <= 

    BP86 GGA Exchange-Correlation Functional

   A. D. Becke, Phys. Rev. A, 38, 3098-3100, 1988
   J. P. Perdew, Phys. Rev. B, 33, 8822, 1986


    Deriv               =              1
    GGA                 =           TRUE
    Meta                =          FALSE

    Exchange Hybrid     =          FALSE
    MP2 Hybrid          =          FALSE

   => Exchange Functionals <=

    1.0000     XC_GGA_X_B88

   => Correlation Functionals <=

    1.0000     XC_GGA_C_P86

   => Molecular Quadrature <=

    Radial Scheme       =       TREUTLER
    Pruning Scheme      =           FLAT
    Nuclear Scheme      =       TREUTLER

    BS radius alpha     =              1
    Pruning alpha       =              1
    Radial Points       =             75
    Spherical Points    =            302
    Total Points        =         438996
    Total Blocks        =           3340
    Max Points          =            256
    Max Functions       =             56

   => -D3ZERO: Empirical Dispersion <=

    Grimme's -D3 (zero-damping) Dispersion Correction
    Grimme S.; Antony J.; Ehrlich S.; Krieg H. (2010), J. Chem. Phys., 132: 154104

        S6 =   1.000000E+00
        S8 =   1.683000E+00
       SR6 =   1.139000E+00
       SR8 =   1.000000E+00
    ALPHA6 =   1.400000E+01

   => Loading Basis Set <=

    Name: (STO-3G AUX)
    Role: JKFIT
    Keyword: DF_BASIS_SCF
    atoms 1-6, 11-12, 15-16  entry C          line   203 file /home/eric/data/opt/apps/python/psi4conda/share/psi4/basis/def2-svp-jkfit.gbs 
    atoms 7-10, 13-14, 17-20 entry H          line    23 file /home/eric/data/opt/apps/python/psi4conda/share/psi4/basis/def2-svp-jkfit.gbs 

  ==> Pre-Iterations <==

   -------------------------------------------------------
    Irrep   Nso     Nmo     Nalpha   Nbeta   Ndocc  Nsocc
   -------------------------------------------------------
     Ag        25      25       0       0       0       0
     Bg         5       5       0       0       0       0
     Au         5       5       0       0       0       0
     Bu        25      25       0       0       0       0
   -------------------------------------------------------
    Total      60      60      35      35      35       0
   -------------------------------------------------------

  Starting with a DF guess...

  ==> Integral Setup <==

  DFHelper Memory: AOs need 0.031 [GiB]; user supplied 0.366 [GiB]. Using in-core AOs.

  ==> MemDFJK: Density-Fitted J/K Matrices <==

    J tasked:                   Yes
    K tasked:                    No
    wK tasked:                   No
    OpenMP threads:               4
    Memory (MB):                375
    Algorithm:                 Core
    Schwarz Cutoff:           1E-12
    Mask sparsity (%):       4.1111
    Fitting Condition:        1E-12

   => Auxiliary Basis Set <=

  Basis Set: (STO-3G AUX)
    Blend: DEF2-SVP-JKFIT
    Number of shells: 310
    Number of basis function: 930
    Number of Cartesian functions: 1090
    Spherical Harmonics?: true
    Max angular momentum: 4

  Minimum eigenvalue in the overlap matrix is 1.8147107108E-01.
  Using Symmetric Orthogonalization.

  SCF Guess: Superposition of Atomic Densities via on-the-fly atomic UHF.

  ==> Iterations <==

                           Total Energy        Delta E     RMS |[F,P]|

   @DF-RKS iter   0:  -380.98941607590626   -3.80989e+02   1.41410e-01 
   @DF-RKS iter   1:  -382.32464434803427   -1.33523e+00   5.90409e-03 
   @DF-RKS iter   2:  -382.30957585155733    1.50685e-02   8.55503e-03 DIIS
   @DF-RKS iter   3:  -382.33440259663786   -2.48267e-02   3.50227e-03 DIIS
   @DF-RKS iter   4:  -382.34086815237441   -6.46556e-03   4.80310e-04 DIIS
   @DF-RKS iter   5:  -382.34095884187917   -9.06895e-05   2.76730e-04 DIIS
   @DF-RKS iter   6:  -382.34099187033439   -3.30285e-05   4.57605e-05 DIIS
   @DF-RKS iter   7:  -382.34099277325140   -9.02917e-07   1.02900e-05 DIIS
   @DF-RKS iter   8:  -382.34099285067765   -7.74263e-08   1.20309e-06 DIIS
   @DF-RKS iter   9:  -382.34099285097750   -2.99849e-10   9.31423e-07 DIIS

  DF guess converged.

  ==> Integral Setup <==

  ==> DirectJK: Integral-Direct J/K Matrices <==

    J tasked:                  Yes
    K tasked:                   No
    wK tasked:                  No
    Integrals threads:           4
    Schwarz Cutoff:          1E-12

   @RKS iter  10:  -382.33792118739109    3.07166e-03   1.06791e-05 DIIS
   @RKS iter  11:  -382.33792119883014   -1.14391e-08   2.36024e-06 DIIS
   @RKS iter  12:  -382.33792120052897   -1.69882e-09   1.45960e-06 DIIS
   @RKS iter  13:  -382.33792120156397   -1.03500e-09   2.98634e-07 DIIS

  ==> Post-Iterations <==

    Orbital Energies [Eh]
    ---------------------

    Doubly Occupied:                                                      

       1Bu    -9.745719     1Ag    -9.745674     2Bu    -9.732643  
       2Ag    -9.732642     3Ag    -9.731958     3Bu    -9.731944  
       4Bu    -9.731129     4Ag    -9.730984     5Bu    -9.716344  
       5Ag    -9.716344     6Ag    -0.735541     6Bu    -0.682808  
       7Ag    -0.648735     7Bu    -0.632260     8Bu    -0.601470  
       8Ag    -0.529669     9Ag    -0.502076     9Bu    -0.475767  
      10Ag    -0.456723    11Ag    -0.407836    10Bu    -0.390266  
      11Bu    -0.362763    12Bu    -0.350726    12Ag    -0.348467  
      13Bu    -0.328492    14Bu    -0.305628    13Ag    -0.302150  
       1Au    -0.283190    15Bu    -0.268730    14Ag    -0.251764  
      15Ag    -0.246361     1Bg    -0.227923     2Au    -0.179471  
       2Bg    -0.166645     3Bg    -0.128575  

    Virtual:                                                              

       3Au     0.007802     4Au     0.055588     4Bg     0.071970  
       5Au     0.139641     5Bg     0.222293    16Ag     0.285638  
      16Bu     0.294031    17Bu     0.329980    17Ag     0.332799  
      18Ag     0.359319    18Bu     0.360206    19Bu     0.375020  
      19Ag     0.386414    20Bu     0.401205    20Ag     0.424463  
      21Ag     0.470232    21Bu     0.490591    22Ag     0.519890  
      22Bu     0.540533    23Bu     0.565978    23Ag     0.580330  
      24Ag     0.622257    24Bu     0.656084    25Ag     0.715153  
      25Bu     0.729349  

    Final Occupation by Irrep:
             Ag    Bg    Au    Bu 
    DOCC [    15,    3,    2,   15 ]

  Energy converged.

  @RKS Final Energy:  -382.33792120156397

   => Energetics <=

    Nuclear Repulsion Energy =            445.9369781142434590
    One-Electron Energy =               -1400.7433869166311524
    Two-Electron Energy =                 630.3382128592918434
    DFT Exchange-Correlation Energy =     -57.8548756384680800
    Empirical Dispersion Energy =          -0.0148496200000000
    VV10 Nonlocal Energy =                  0.0000000000000000
    Total Energy =                       -382.3379212015639723



Properties will be evaluated at   0.000000,   0.000000,   0.000000 [a0]

Properties computed using the SCF density matrix

  Nuclear Dipole Moment: [e a0]
     X:     0.0000      Y:     0.0000      Z:     0.0000

  Electronic Dipole Moment: [e a0]
     X:     0.0000      Y:     0.0000      Z:     0.0000

  Dipole Moment: [e a0]
     X:     0.0000      Y:     0.0000      Z:     0.0000     Total:     0.0000

  Dipole Moment: [D]
     X:     0.0000      Y:     0.0000      Z:     0.0000     Total:     0.0000


*** tstop() called on osmium at Sun Dec  9 23:28:41 2018
Module time:
	user time   =      24.07 seconds =       0.40 minutes
	system time =       0.26 seconds =       0.00 minutes
	total time  =          8 seconds =       0.13 minutes
Total time:
	user time   =      24.07 seconds =       0.40 minutes
	system time =       0.26 seconds =       0.00 minutes
	total time  =          8 seconds =       0.13 minutes

    Psi4 stopped on: Sunday, 09 December 2018 11:28PM
    Psi4 wall time for execution: 0:00:07.88

*** Psi4 exiting successfully. Buy a developer a beer!
