
    -----------------------------------------------------------------------
          Psi4: An Open-Source Ab Initio Electronic Structure Package
                               Psi4 1.2.1 release

                         Git: Rev {HEAD} 406f4de 


    R. M. Parrish, L. A. Burns, D. G. A. Smith, A. C. Simmonett,
    A. E. DePrince III, E. G. Hohenstein, U. Bozkaya, A. Yu. Sokolov,
    R. Di Remigio, R. M. Richard, J. F. Gonthier, A. M. James,
    H. R. McAlexander, A. Kumar, M. Saitow, X. Wang, B. P. Pritchard,
    P. Verma, H. F. Schaefer III, K. Patkowski, R. A. King, E. F. Valeev,
    F. A. Evangelista, J. M. Turney, T. D. Crawford, and C. D. Sherrill,
    J. Chem. Theory Comput. 13(7) pp 3185--3197 (2017).
    (doi: 10.1021/acs.jctc.7b00174)


                         Additional Contributions by
    P. Kraus, H. Kruse, M. H. Lechner, M. C. Schieber, and R. A. Shaw

    -----------------------------------------------------------------------


    Psi4 started on: Saturday, 07 March 2020 11:47PM

    Process ID: 1139751
    Host:       osmium
    PSIDATADIR: /home/eric/.pyenv/versions/miniconda3-4.3.30/envs/psi4-1.2.1/share/psi4
    Memory:     500.0 MiB
    Threads:    1
    
  ==> Input File <==

--------------------------------------------------------------------------
molecule dvb {
    0 1
    C    -1.4152533224   0.2302217854   0.0000000000
    C     1.4152533224  -0.2302217854   0.0000000000
    C    -0.4951331558   1.3144608674   0.0000000000
    C     0.4951331558  -1.3144608674   0.0000000000
    C     0.8894090436   1.0909493743   0.0000000000
    C    -0.8894090436  -1.0909493743   0.0000000000
    H    -0.8795511985   2.3437343748   0.0000000000
    H     0.8795511985  -2.3437343748   0.0000000000
    H     1.5779041557   1.9450061275   0.0000000000
    H    -1.5779041557  -1.9450061275   0.0000000000
    C     2.8845844962  -0.5210893778   0.0000000000
    C    -2.8845844962   0.5210893778   0.0000000000
    H     3.1403356810  -1.5919605685   0.0000000000
    H    -3.1403356810   1.5919605685   0.0000000000
    C     3.8800428103   0.3822535424   0.0000000000
    C    -3.8800428103  -0.3822535424   0.0000000000
    H     3.6946765858   1.4624389570   0.0000000000
    H    -3.6946765858  -1.4624389570   0.0000000000
    H     4.9316453546   0.0711049543   0.0000000000
    H    -4.9316453546  -0.0711049543   0.0000000000
}

set {
    basis sto-3g
    fd_project true
}

frequencies('scf', dertype='gradient')
--------------------------------------------------------------------------
gradient() will perform analytic gradient computation.

*** tstart() called on osmium
*** at Sat Mar  7 23:47:10 2020

   => Loading Basis Set <=

    Name: STO-3G
    Role: ORBITAL
    Keyword: BASIS
    atoms 1-6, 11-12, 15-16  entry C          line    61 file /home/eric/.pyenv/versions/miniconda3-4.3.30/envs/psi4-1.2.1/share/psi4/basis/sto-3g.gbs 
    atoms 7-10, 13-14, 17-20 entry H          line    19 file /home/eric/.pyenv/versions/miniconda3-4.3.30/envs/psi4-1.2.1/share/psi4/basis/sto-3g.gbs 


         ---------------------------------------------------------
                                   SCF
            by Justin Turney, Rob Parrish, Andy Simmonett
                             and Daniel Smith
                              RHF Reference
                        1 Threads,    500 MiB Core
         ---------------------------------------------------------

  ==> Geometry <==

    Molecular point group: c2h
    Full point group: C2h

    Geometry (in Angstrom), charge = 0, multiplicity = 1:

       Center              X                  Y                   Z               Mass       
    ------------   -----------------  -----------------  -----------------  -----------------
         C           -1.415253322400     0.230221785400     0.000000000000    12.000000000000
         C            1.415253322400    -0.230221785400     0.000000000000    12.000000000000
         C           -0.495133155800     1.314460867400     0.000000000000    12.000000000000
         C            0.495133155800    -1.314460867400     0.000000000000    12.000000000000
         C            0.889409043600     1.090949374300     0.000000000000    12.000000000000
         C           -0.889409043600    -1.090949374300     0.000000000000    12.000000000000
         H           -0.879551198500     2.343734374800     0.000000000000     1.007825032070
         H            0.879551198500    -2.343734374800     0.000000000000     1.007825032070
         H            1.577904155700     1.945006127500     0.000000000000     1.007825032070
         H           -1.577904155700    -1.945006127500     0.000000000000     1.007825032070
         C            2.884584496200    -0.521089377800     0.000000000000    12.000000000000
         C           -2.884584496200     0.521089377800     0.000000000000    12.000000000000
         H            3.140335681000    -1.591960568500     0.000000000000     1.007825032070
         H           -3.140335681000     1.591960568500     0.000000000000     1.007825032070
         C            3.880042810300     0.382253542400     0.000000000000    12.000000000000
         C           -3.880042810300    -0.382253542400     0.000000000000    12.000000000000
         H            3.694676585800     1.462438957000     0.000000000000     1.007825032070
         H           -3.694676585800    -1.462438957000     0.000000000000     1.007825032070
         H            4.931645354600     0.071104954300     0.000000000000     1.007825032070
         H           -4.931645354600    -0.071104954300     0.000000000000     1.007825032070

  Running in c2h symmetry.

  Rotational constants: A =      0.15403  B =      0.02287  C =      0.01992 [cm^-1]
  Rotational constants: A =   4617.84332  B =    685.76183  C =    597.09209 [MHz]
  Nuclear repulsion =  445.936978114243459

  Charge       = 0
  Multiplicity = 1
  Electrons    = 70
  Nalpha       = 35
  Nbeta        = 35

  ==> Algorithm <==

  SCF Algorithm Type is DF.
  DIIS enabled.
  MOM disabled.
  Fractional occupation disabled.
  Guess Type is SAD.
  Energy threshold   = 1.00e-08
  Density threshold  = 1.00e-08
  Integral threshold = 0.00e+00

  ==> Primary Basis <==

  Basis Set: STO-3G
    Blend: STO-3G
    Number of shells: 40
    Number of basis function: 60
    Number of Cartesian functions: 60
    Spherical Harmonics?: true
    Max angular momentum: 1

   => Loading Basis Set <=

    Name: (STO-3G AUX)
    Role: JKFIT
    Keyword: DF_BASIS_SCF
    atoms 1-6, 11-12, 15-16  entry C          line   203 file /home/eric/.pyenv/versions/miniconda3-4.3.30/envs/psi4-1.2.1/share/psi4/basis/def2-svp-jkfit.gbs 
    atoms 7-10, 13-14, 17-20 entry H          line    23 file /home/eric/.pyenv/versions/miniconda3-4.3.30/envs/psi4-1.2.1/share/psi4/basis/def2-svp-jkfit.gbs 

  ==> Pre-Iterations <==

   -------------------------------------------------------
    Irrep   Nso     Nmo     Nalpha   Nbeta   Ndocc  Nsocc
   -------------------------------------------------------
     Ag        25      25       0       0       0       0
     Bg         5       5       0       0       0       0
     Au         5       5       0       0       0       0
     Bu        25      25       0       0       0       0
   -------------------------------------------------------
    Total      60      60      35      35      35       0
   -------------------------------------------------------

  ==> Integral Setup <==

  DFHelper Memory: AOs need 0.031 [GiB]; user supplied 0.366 [GiB]. Using in-core AOs.

  ==> MemDFJK: Density-Fitted J/K Matrices <==

    J tasked:                   Yes
    K tasked:                   Yes
    wK tasked:                   No
    OpenMP threads:               1
    Memory (MB):                375
    Algorithm:                 Core
    Schwarz Cutoff:           1E-12
    Mask sparsity (%):       4.1111
    Fitting Condition:        1E-12

   => Auxiliary Basis Set <=

  Basis Set: (STO-3G AUX)
    Blend: DEF2-SVP-JKFIT
    Number of shells: 310
    Number of basis function: 930
    Number of Cartesian functions: 1090
    Spherical Harmonics?: true
    Max angular momentum: 4

  Minimum eigenvalue in the overlap matrix is 1.8147107108E-01.
  Using Symmetric Orthogonalization.

  SCF Guess: Superposition of Atomic Densities via on-the-fly atomic UHF.

  ==> Iterations <==

                           Total Energy        Delta E     RMS |[F,P]|

   @DF-RHF iter   0:  -378.99421075271999   -3.78994e+02   1.17793e-01 
   @DF-RHF iter   1:  -379.55130173338273   -5.57091e-01   1.33328e-02 
   @DF-RHF iter   2:  -379.75354748985558   -2.02246e-01   3.71616e-03 DIIS
   @DF-RHF iter   3:  -379.76899735343807   -1.54499e-02   1.20203e-03 DIIS
   @DF-RHF iter   4:  -379.77009944235260   -1.10209e-03   9.80179e-05 DIIS
   @DF-RHF iter   5:  -379.77011050049799   -1.10581e-05   2.82328e-05 DIIS
   @DF-RHF iter   6:  -379.77011142218970   -9.21692e-07   6.54987e-06 DIIS
   @DF-RHF iter   7:  -379.77011150795374   -8.57640e-08   1.56815e-06 DIIS
   @DF-RHF iter   8:  -379.77011151269670   -4.74296e-09   4.02238e-07 DIIS
   @DF-RHF iter   9:  -379.77011151295778   -2.61082e-10   1.13765e-07 DIIS
   @DF-RHF iter  10:  -379.77011151297398   -1.62004e-11   3.92781e-08 DIIS
   @DF-RHF iter  11:  -379.77011151297580   -1.81899e-12   1.23367e-08 DIIS
   @DF-RHF iter  12:  -379.77011151297563    1.70530e-13   1.50874e-09 DIIS

  ==> Post-Iterations <==

    Orbital Energies [Eh]
    ---------------------

    Doubly Occupied:                                                      

       1Bu   -11.040746     1Ag   -11.040684     2Bu   -11.031748  
       2Ag   -11.031747     3Bu   -11.029111     3Ag   -11.028980  
       4Bu   -11.028767     4Ag   -11.028743     5Bu   -11.017634  
       5Ag   -11.017633     6Ag    -1.090317     6Bu    -1.020272  
       7Ag    -0.974940     7Bu    -0.950318     8Bu    -0.909651  
       8Ag    -0.799896     9Ag    -0.762837     9Bu    -0.727642  
      10Ag    -0.696780    11Ag    -0.628047    10Bu    -0.605675  
      11Bu    -0.572947    12Bu    -0.553601    12Ag    -0.553162  
      13Bu    -0.525353    14Bu    -0.496696    13Ag    -0.492528  
       1Au    -0.463721    15Bu    -0.446434    14Ag    -0.421659  
      15Ag    -0.415628     1Bg    -0.376953     2Au    -0.315119  
       2Bg    -0.278351     3Bg    -0.222179  

    Virtual:                                                              

       3Au     0.199016     4Au     0.268538     4Bg     0.308849  
       5Au     0.397102     5Bg     0.521790    16Ag     0.565048  
      16Bu     0.575601    17Ag     0.621585    17Bu     0.625837  
      18Ag     0.658247    18Bu     0.659407    19Bu     0.677207  
      19Ag     0.694199    20Bu     0.706717    20Ag     0.740152  
      21Ag     0.802255    21Bu     0.825687    22Ag     0.860640  
      22Bu     0.887794    23Bu     0.921040    23Ag     0.939977  
      24Ag     0.990323    24Bu     1.027295    25Ag     1.107747  
      25Bu     1.124962  

    Final Occupation by Irrep:
             Ag    Bg    Au    Bu 
    DOCC [    15,    3,    2,   15 ]

  Energy converged.

  @DF-RHF Final Energy:  -379.77011151297563

   => Energetics <=

    Nuclear Repulsion Energy =            445.9369781142434590
    One-Electron Energy =               -1400.2211834399340660
    Two-Electron Energy =                 574.5140938127150321
    Total Energy =                       -379.7701115129756317



Properties will be evaluated at   0.000000,   0.000000,   0.000000 [a0]

Properties computed using the SCF density matrix

  Nuclear Dipole Moment: [e a0]
     X:     0.0000      Y:     0.0000      Z:     0.0000

  Electronic Dipole Moment: [e a0]
     X:     0.0000      Y:     0.0000      Z:     0.0000

  Dipole Moment: [e a0]
     X:     0.0000      Y:     0.0000      Z:     0.0000     Total:     0.0000

  Dipole Moment: [D]
     X:     0.0000      Y:     0.0000      Z:     0.0000     Total:     0.0000


*** tstop() called on osmium at Sat Mar  7 23:47:12 2020
Module time:
	user time   =       2.38 seconds =       0.04 minutes
	system time =       0.03 seconds =       0.00 minutes
	total time  =          2 seconds =       0.03 minutes
Total time:
	user time   =       2.38 seconds =       0.04 minutes
	system time =       0.03 seconds =       0.00 minutes
	total time  =          2 seconds =       0.03 minutes

*** tstart() called on osmium
*** at Sat Mar  7 23:47:12 2020


         ------------------------------------------------------------
                                   SCF GRAD                          
                          Rob Parrish, Justin Turney,                
                       Andy Simmonett, and Alex Sokolov              
         ------------------------------------------------------------

  ==> Geometry <==

    Molecular point group: c2h
    Full point group: C2h

    Geometry (in Angstrom), charge = 0, multiplicity = 1:

       Center              X                  Y                   Z               Mass       
    ------------   -----------------  -----------------  -----------------  -----------------
         C           -1.415253322400     0.230221785400     0.000000000000    12.000000000000
         C            1.415253322400    -0.230221785400     0.000000000000    12.000000000000
         C           -0.495133155800     1.314460867400     0.000000000000    12.000000000000
         C            0.495133155800    -1.314460867400     0.000000000000    12.000000000000
         C            0.889409043600     1.090949374300     0.000000000000    12.000000000000
         C           -0.889409043600    -1.090949374300     0.000000000000    12.000000000000
         H           -0.879551198500     2.343734374800     0.000000000000     1.007825032070
         H            0.879551198500    -2.343734374800     0.000000000000     1.007825032070
         H            1.577904155700     1.945006127500     0.000000000000     1.007825032070
         H           -1.577904155700    -1.945006127500     0.000000000000     1.007825032070
         C            2.884584496200    -0.521089377800     0.000000000000    12.000000000000
         C           -2.884584496200     0.521089377800     0.000000000000    12.000000000000
         H            3.140335681000    -1.591960568500     0.000000000000     1.007825032070
         H           -3.140335681000     1.591960568500     0.000000000000     1.007825032070
         C            3.880042810300     0.382253542400     0.000000000000    12.000000000000
         C           -3.880042810300    -0.382253542400     0.000000000000    12.000000000000
         H            3.694676585800     1.462438957000     0.000000000000     1.007825032070
         H           -3.694676585800    -1.462438957000     0.000000000000     1.007825032070
         H            4.931645354600     0.071104954300     0.000000000000     1.007825032070
         H           -4.931645354600    -0.071104954300     0.000000000000     1.007825032070

  Nuclear repulsion =  445.936978114243459

  ==> Basis Set <==

  Basis Set: STO-3G
    Blend: STO-3G
    Number of shells: 40
    Number of basis function: 60
    Number of Cartesian functions: 60
    Spherical Harmonics?: true
    Max angular momentum: 1

  ==> DFJKGrad: Density-Fitted SCF Gradients <==

    Gradient:                    1
    J tasked:                  Yes
    K tasked:                  Yes
    wK tasked:                  No
    OpenMP threads:              1
    Integrals threads:           1
    Memory (MB):               375
    Schwarz Cutoff:          0E+00
    Fitting Condition:       1E-12

   => Auxiliary Basis Set <=

  Basis Set: (STO-3G AUX)
    Blend: DEF2-SVP-JKFIT
    Number of shells: 310
    Number of basis function: 930
    Number of Cartesian functions: 1090
    Spherical Harmonics?: true
    Max angular momentum: 4


  -Total Gradient:
     Atom            X                  Y                   Z
    ------   -----------------  -----------------  -----------------
       1       -0.024735124054     0.003904142331     0.000000000000
       2        0.024735124054    -0.003904142331     0.000000000000
       3       -0.002952660404     0.014281950273     0.000000000000
       4        0.002952660404    -0.014281950273     0.000000000000
       5        0.005586672891     0.013581010667     0.000000000000
       6       -0.005586672891    -0.013581010667     0.000000000000
       7       -0.005023639526     0.013071288355     0.000000000000
       8        0.005023639526    -0.013071288355     0.000000000000
       9        0.009852441427     0.009824115808     0.000000000000
      10       -0.009852441427    -0.009824115808     0.000000000000
      11       -0.032893332349    -0.017480370037     0.000000000000
      12        0.032893332349     0.017480370037     0.000000000000
      13        0.003237895778    -0.014105106897     0.000000000000
      14       -0.003237895778     0.014105106897     0.000000000000
      15        0.023997491119     0.021038972149     0.000000000000
      16       -0.023997491119    -0.021038972149     0.000000000000
      17       -0.003372927524     0.013513631962     0.000000000000
      18        0.003372927524    -0.013513631962     0.000000000000
      19        0.013258627173    -0.003903965484     0.000000000000
      20       -0.013258627173     0.003903965484     0.000000000000


*** tstop() called on osmium at Sat Mar  7 23:47:15 2020
Module time:
	user time   =       2.56 seconds =       0.04 minutes
	system time =       0.01 seconds =       0.00 minutes
	total time  =          3 seconds =       0.05 minutes
Total time:
	user time   =       4.94 seconds =       0.08 minutes
	system time =       0.04 seconds =       0.00 minutes
	total time  =          5 seconds =       0.08 minutes

  Based on options and gradient (rms=1.22E-02), recommend projecting translations and not projecting rotations.
hessian() will perform frequency computation by finite difference of analytic gradients.

-------------------------------------------------------------

  Using finite-differences of gradients to determine vibrational frequencies and 
  normal modes.  Resulting frequencies are only valid at stationary points.
	Generating geometries for use with 3-point formula.
	Displacement size will be 5.00e-03.
	Number of atoms is 20.
	Number of irreps is 4.
	Number of SALCS is 54.
	Translations projected? 1. Rotations projected? 1.
	Index of salcs per irrep:
	 1 :  0  1  2  3  4  5  6  7  8  9  10  11  12  13  14  15  16  17  18 
	 2 :  19  20  21  22  23  24  25  26 
	 3 :  27  28  29  30  31  32  33  34  35 
	 4 :  36  37  38  39  40  41  42  43  44  45  46  47  48  49  50  51  52  53 
	Number of SALC's per irrep:
		 Irrep 1: 19
		 Irrep 2: 8
		 Irrep 3: 9
		 Irrep 4: 18
	Number of geometries (including reference) is 74.
	Number of displacements per irrep:
	  Irrep 1: 38
	  Irrep 2: 8
	  Irrep 3: 9
	  Irrep 4: 18

  //>>>>>>>>>>>>>>>>>>>>>>>>>>>>>>>>>>>//
  //    Loading displacement 1 of 74   //
  //<<<<<<<<<<<<<<<<<<<<<<<<<<<<<<<<<<<//
gradient() will perform analytic gradient computation.

*** tstart() called on osmium
*** at Sat Mar  7 23:47:15 2020

   => Loading Basis Set <=

    Name: STO-3G
    Role: ORBITAL
    Keyword: BASIS
    atoms 1-6, 11-12, 15-16  entry C          line    61 file /home/eric/.pyenv/versions/miniconda3-4.3.30/envs/psi4-1.2.1/share/psi4/basis/sto-3g.gbs 
    atoms 7-10, 13-14, 17-20 entry H          line    19 file /home/eric/.pyenv/versions/miniconda3-4.3.30/envs/psi4-1.2.1/share/psi4/basis/sto-3g.gbs 


         ---------------------------------------------------------
                                   SCF
            by Justin Turney, Rob Parrish, Andy Simmonett
                             and Daniel Smith
                              RHF Reference
                        1 Threads,    500 MiB Core
         ---------------------------------------------------------

  ==> Geometry <==

    Molecular point group: c2h
    Full point group: C2h

    Geometry (in Angstrom), charge = 0, multiplicity = 1:

       Center              X                  Y                   Z               Mass       
    ------------   -----------------  -----------------  -----------------  -----------------
         C           -1.415793005626     0.230226778935     0.000000000000    12.000000000000
         C            1.415793005626    -0.230226778935     0.000000000000    12.000000000000
         C           -0.495128517898     1.314462614412     0.000000000000    12.000000000000
         C            0.495128517898    -1.314462614412     0.000000000000    12.000000000000
         C            0.889412892871     1.090946236137     0.000000000000    12.000000000000
         C           -0.889412892871    -1.090946236137     0.000000000000    12.000000000000
         H           -0.879542928942     2.343737478180     0.000000000000     1.007825032070
         H            0.879542928942    -2.343737478180     0.000000000000     1.007825032070
         H            1.577911018398     1.945000560073     0.000000000000     1.007825032070
         H           -1.577911018398    -1.945000560073     0.000000000000     1.007825032070
         C            2.884582657605    -0.521099555676     0.000000000000    12.000000000000
         C           -2.884582657605     0.521099555676     0.000000000000    12.000000000000
         H            3.140330063977    -1.591971648760     0.000000000000     1.007825032070
         H           -3.140330063977     1.591971648760     0.000000000000     1.007825032070
         C            3.880044159031     0.382239852181     0.000000000000    12.000000000000
         C           -3.880044159031    -0.382239852181     0.000000000000    12.000000000000
         H            3.694681745823     1.462425920821     0.000000000000     1.007825032070
         H           -3.694681745823    -1.462425920821     0.000000000000     1.007825032070
         H            4.931645605484     0.071087553640     0.000000000000     1.007825032070
         H           -4.931645605484    -0.071087553640     0.000000000000     1.007825032070

  Running in c2h symmetry.

  Rotational constants: A =      0.15403  B =      0.02287  C =      0.01992 [cm^-1]
  Rotational constants: A =   4617.84211  B =    685.72768  C =    597.06618 [MHz]
  Nuclear repulsion =  445.928889801978698

  Charge       = 0
  Multiplicity = 1
  Electrons    = 70
  Nalpha       = 35
  Nbeta        = 35

  ==> Algorithm <==

  SCF Algorithm Type is DF.
  DIIS enabled.
  MOM disabled.
  Fractional occupation disabled.
  Guess Type is SAD.
  Energy threshold   = 1.00e-08
  Density threshold  = 1.00e-08
  Integral threshold = 0.00e+00

  ==> Primary Basis <==

  Basis Set: STO-3G
    Blend: STO-3G
    Number of shells: 40
    Number of basis function: 60
    Number of Cartesian functions: 60
    Spherical Harmonics?: true
    Max angular momentum: 1

   => Loading Basis Set <=

    Name: (STO-3G AUX)
    Role: JKFIT
    Keyword: DF_BASIS_SCF
    atoms 1-6, 11-12, 15-16  entry C          line   203 file /home/eric/.pyenv/versions/miniconda3-4.3.30/envs/psi4-1.2.1/share/psi4/basis/def2-svp-jkfit.gbs 
    atoms 7-10, 13-14, 17-20 entry H          line    23 file /home/eric/.pyenv/versions/miniconda3-4.3.30/envs/psi4-1.2.1/share/psi4/basis/def2-svp-jkfit.gbs 

  ==> Pre-Iterations <==

   -------------------------------------------------------
    Irrep   Nso     Nmo     Nalpha   Nbeta   Ndocc  Nsocc
   -------------------------------------------------------
     Ag        25      25       0       0       0       0
     Bg         5       5       0       0       0       0
     Au         5       5       0       0       0       0
     Bu        25      25       0       0       0       0
   -------------------------------------------------------
    Total      60      60      35      35      35       0
   -------------------------------------------------------

  ==> Integral Setup <==

  DFHelper Memory: AOs need 0.031 [GiB]; user supplied 0.366 [GiB]. Using in-core AOs.

  ==> MemDFJK: Density-Fitted J/K Matrices <==

    J tasked:                   Yes
    K tasked:                   Yes
    wK tasked:                   No
    OpenMP threads:               1
    Memory (MB):                375
    Algorithm:                 Core
    Schwarz Cutoff:           1E-12
    Mask sparsity (%):       4.1111
    Fitting Condition:        1E-12

   => Auxiliary Basis Set <=

  Basis Set: (STO-3G AUX)
    Blend: DEF2-SVP-JKFIT
    Number of shells: 310
    Number of basis function: 930
    Number of Cartesian functions: 1090
    Spherical Harmonics?: true
    Max angular momentum: 4

  Minimum eigenvalue in the overlap matrix is 1.8155241085E-01.
  Using Symmetric Orthogonalization.

  SCF Guess: Superposition of Atomic Densities via on-the-fly atomic UHF.

  ==> Iterations <==

                           Total Energy        Delta E     RMS |[F,P]|

   @DF-RHF iter   0:  -379.40213166175346   -3.79402e+02   1.22404e-01 
   @DF-RHF iter   1:  -379.51109534210934   -1.08964e-01   1.48261e-02 
   @DF-RHF iter   2:  -379.75316914816676   -2.42074e-01   3.85614e-03 DIIS
   @DF-RHF iter   3:  -379.76810729705994   -1.49381e-02   1.54609e-03 DIIS
   @DF-RHF iter   4:  -379.77000707389334   -1.89978e-03   2.31266e-04 DIIS
   @DF-RHF iter   5:  -379.77005870118040   -5.16273e-05   2.54979e-05 DIIS
   @DF-RHF iter   6:  -379.77006000603018   -1.30485e-06   8.41198e-06 DIIS
   @DF-RHF iter   7:  -379.77006011612912   -1.10099e-07   2.68751e-06 DIIS
   @DF-RHF iter   8:  -379.77006012980672   -1.36776e-08   6.92263e-07 DIIS
   @DF-RHF iter   9:  -379.77006013058462   -7.77902e-10   2.08509e-07 DIIS
   @DF-RHF iter  10:  -379.77006013065142   -6.67910e-11   5.08760e-08 DIIS
   @DF-RHF iter  11:  -379.77006013065625   -4.83169e-12   1.17999e-08 DIIS
   @DF-RHF iter  12:  -379.77006013065625    0.00000e+00   2.75561e-09 DIIS

  ==> Post-Iterations <==

    Orbital Energies [Eh]
    ---------------------

    Doubly Occupied:                                                      

       1Bu   -11.040740     1Ag   -11.040678     2Bu   -11.031774  
       2Ag   -11.031774     3Bu   -11.029087     3Ag   -11.028957  
       4Bu   -11.028742     4Ag   -11.028719     5Bu   -11.017661  
       5Ag   -11.017661     6Ag    -1.090230     6Bu    -1.020335  
       7Ag    -0.974974     7Bu    -0.950247     8Bu    -0.909607  
       8Ag    -0.799954     9Ag    -0.762801     9Bu    -0.727692  
      10Ag    -0.696723    11Ag    -0.628044    10Bu    -0.605732  
      11Bu    -0.572927    12Bu    -0.553591    12Ag    -0.553183  
      13Bu    -0.525276    14Bu    -0.496652    13Ag    -0.492548  
       1Au    -0.463659    15Bu    -0.446496    14Ag    -0.421677  
      15Ag    -0.415603     1Bg    -0.377018     2Au    -0.315123  
       2Bg    -0.278320     3Bg    -0.222049  

    Virtual:                                                              

       3Au     0.198852     4Au     0.268590     4Bg     0.308802  
       5Au     0.397161     5Bg     0.521750    16Ag     0.565232  
      16Bu     0.575556    17Ag     0.621548    17Bu     0.626077  
      18Ag     0.658177    18Bu     0.659390    19Bu     0.677308  
      19Ag     0.694224    20Bu     0.706678    20Ag     0.740055  
      21Ag     0.802168    21Bu     0.825483    22Ag     0.860609  
      22Bu     0.887782    23Bu     0.921054    23Ag     0.940056  
      24Ag     0.990390    24Bu     1.027259    25Ag     1.107609  
      25Bu     1.124852  

    Final Occupation by Irrep:
             Ag    Bg    Au    Bu 
    DOCC [    15,    3,    2,   15 ]

  Energy converged.

  @DF-RHF Final Energy:  -379.77006013065625

   => Energetics <=

    Nuclear Repulsion Energy =            445.9288898019786984
    One-Electron Energy =               -1400.2053873816262239
    Two-Electron Energy =                 574.5064374489912780
    Total Energy =                       -379.7700601306562476



Properties will be evaluated at   0.000000,   0.000000,   0.000000 [a0]

Properties computed using the SCF density matrix

  Nuclear Dipole Moment: [e a0]
     X:     0.0000      Y:     0.0000      Z:     0.0000

  Electronic Dipole Moment: [e a0]
     X:     0.0000      Y:     0.0000      Z:     0.0000

  Dipole Moment: [e a0]
     X:     0.0000      Y:     0.0000      Z:     0.0000     Total:     0.0000

  Dipole Moment: [D]
     X:     0.0000      Y:     0.0000      Z:     0.0000     Total:     0.0000


*** tstop() called on osmium at Sat Mar  7 23:47:17 2020
Module time:
	user time   =       2.30 seconds =       0.04 minutes
	system time =       0.02 seconds =       0.00 minutes
	total time  =          2 seconds =       0.03 minutes
Total time:
	user time   =       7.25 seconds =       0.12 minutes
	system time =       0.06 seconds =       0.00 minutes
	total time  =          7 seconds =       0.12 minutes

*** tstart() called on osmium
*** at Sat Mar  7 23:47:17 2020


         ------------------------------------------------------------
                                   SCF GRAD                          
                          Rob Parrish, Justin Turney,                
                       Andy Simmonett, and Alex Sokolov              
         ------------------------------------------------------------

  ==> Geometry <==

    Molecular point group: c2h
    Full point group: C2h

    Geometry (in Angstrom), charge = 0, multiplicity = 1:

       Center              X                  Y                   Z               Mass       
    ------------   -----------------  -----------------  -----------------  -----------------
         C           -1.415793005626     0.230226778935     0.000000000000    12.000000000000
         C            1.415793005626    -0.230226778935     0.000000000000    12.000000000000
         C           -0.495128517898     1.314462614412     0.000000000000    12.000000000000
         C            0.495128517898    -1.314462614412     0.000000000000    12.000000000000
         C            0.889412892871     1.090946236137     0.000000000000    12.000000000000
         C           -0.889412892871    -1.090946236137     0.000000000000    12.000000000000
         H           -0.879542928942     2.343737478180     0.000000000000     1.007825032070
         H            0.879542928942    -2.343737478180     0.000000000000     1.007825032070
         H            1.577911018398     1.945000560073     0.000000000000     1.007825032070
         H           -1.577911018398    -1.945000560073     0.000000000000     1.007825032070
         C            2.884582657605    -0.521099555676     0.000000000000    12.000000000000
         C           -2.884582657605     0.521099555676     0.000000000000    12.000000000000
         H            3.140330063977    -1.591971648760     0.000000000000     1.007825032070
         H           -3.140330063977     1.591971648760     0.000000000000     1.007825032070
         C            3.880044159031     0.382239852181     0.000000000000    12.000000000000
         C           -3.880044159031    -0.382239852181     0.000000000000    12.000000000000
         H            3.694681745823     1.462425920821     0.000000000000     1.007825032070
         H           -3.694681745823    -1.462425920821     0.000000000000     1.007825032070
         H            4.931645605484     0.071087553640     0.000000000000     1.007825032070
         H           -4.931645605484    -0.071087553640     0.000000000000     1.007825032070

  Nuclear repulsion =  445.928889801978698

  ==> Basis Set <==

  Basis Set: STO-3G
    Blend: STO-3G
    Number of shells: 40
    Number of basis function: 60
    Number of Cartesian functions: 60
    Spherical Harmonics?: true
    Max angular momentum: 1

  ==> DFJKGrad: Density-Fitted SCF Gradients <==

    Gradient:                    1
    J tasked:                  Yes
    K tasked:                  Yes
    wK tasked:                  No
    OpenMP threads:              1
    Integrals threads:           1
    Memory (MB):               375
    Schwarz Cutoff:          0E+00
    Fitting Condition:       1E-12

   => Auxiliary Basis Set <=

  Basis Set: (STO-3G AUX)
    Blend: DEF2-SVP-JKFIT
    Number of shells: 310
    Number of basis function: 930
    Number of Cartesian functions: 1090
    Spherical Harmonics?: true
    Max angular momentum: 4


  -Total Gradient:
     Atom            X                  Y                   Z
    ------   -----------------  -----------------  -----------------
       1       -0.025570486600     0.003897094089     0.000000000000
       2        0.025570486600    -0.003897094089     0.000000000000
       3       -0.002717574567     0.014472893130     0.000000000000
       4        0.002717574567    -0.014472893130     0.000000000000
       5        0.005449898761     0.013701738600     0.000000000000
       6       -0.005449898761    -0.013701738600     0.000000000000
       7       -0.005042913692     0.013055800871     0.000000000000
       8        0.005042913692    -0.013055800871     0.000000000000
       9        0.009873351930     0.009796293741     0.000000000000
      10       -0.009873351930    -0.009796293741     0.000000000000
      11       -0.033188592550    -0.017415288397     0.000000000000
      12        0.033188592550     0.017415288397     0.000000000000
      13        0.003231741279    -0.014110271525     0.000000000000
      14       -0.003231741279     0.014110271525     0.000000000000
      15        0.023950286264     0.021026972043     0.000000000000
      16       -0.023950286264    -0.021026972043     0.000000000000
      17       -0.003370957345     0.013514199600     0.000000000000
      18        0.003370957345    -0.013514199600     0.000000000000
      19        0.013257461673    -0.003905316827     0.000000000000
      20       -0.013257461673     0.003905316827     0.000000000000


*** tstop() called on osmium at Sat Mar  7 23:47:20 2020
Module time:
	user time   =       2.57 seconds =       0.04 minutes
	system time =       0.02 seconds =       0.00 minutes
	total time  =          3 seconds =       0.05 minutes
Total time:
	user time   =       9.82 seconds =       0.16 minutes
	system time =       0.08 seconds =       0.00 minutes
	total time  =         10 seconds =       0.17 minutes

  //>>>>>>>>>>>>>>>>>>>>>>>>>>>>>>>>>>>//
  //    Loading displacement 2 of 74   //
  //<<<<<<<<<<<<<<<<<<<<<<<<<<<<<<<<<<<//
gradient() will perform analytic gradient computation.

*** tstart() called on osmium
*** at Sat Mar  7 23:47:20 2020

   => Loading Basis Set <=

    Name: STO-3G
    Role: ORBITAL
    Keyword: BASIS
    atoms 1-6, 11-12, 15-16  entry C          line    61 file /home/eric/.pyenv/versions/miniconda3-4.3.30/envs/psi4-1.2.1/share/psi4/basis/sto-3g.gbs 
    atoms 7-10, 13-14, 17-20 entry H          line    19 file /home/eric/.pyenv/versions/miniconda3-4.3.30/envs/psi4-1.2.1/share/psi4/basis/sto-3g.gbs 


         ---------------------------------------------------------
                                   SCF
            by Justin Turney, Rob Parrish, Andy Simmonett
                             and Daniel Smith
                              RHF Reference
                        1 Threads,    500 MiB Core
         ---------------------------------------------------------

  ==> Geometry <==

    Molecular point group: c2h
    Full point group: C2h

    Geometry (in Angstrom), charge = 0, multiplicity = 1:

       Center              X                  Y                   Z               Mass       
    ------------   -----------------  -----------------  -----------------  -----------------
         C           -1.414713639174     0.230216791865     0.000000000000    12.000000000000
         C            1.414713639174    -0.230216791865     0.000000000000    12.000000000000
         C           -0.495137793702     1.314459120388     0.000000000000    12.000000000000
         C            0.495137793702    -1.314459120388     0.000000000000    12.000000000000
         C            0.889405194329     1.090952512463     0.000000000000    12.000000000000
         C           -0.889405194329    -1.090952512463     0.000000000000    12.000000000000
         H           -0.879559468058     2.343731271420     0.000000000000     1.007825032070
         H            0.879559468058    -2.343731271420     0.000000000000     1.007825032070
         H            1.577897293002     1.945011694927     0.000000000000     1.007825032070
         H           -1.577897293002    -1.945011694927     0.000000000000     1.007825032070
         C            2.884586334795    -0.521079199924     0.000000000000    12.000000000000
         C           -2.884586334795     0.521079199924     0.000000000000    12.000000000000
         H            3.140341298023    -1.591949488240     0.000000000000     1.007825032070
         H           -3.140341298023     1.591949488240     0.000000000000     1.007825032070
         C            3.880041461569     0.382267232619     0.000000000000    12.000000000000
         C           -3.880041461569    -0.382267232619     0.000000000000    12.000000000000
         H            3.694671425777     1.462451993179     0.000000000000     1.007825032070
         H           -3.694671425777    -1.462451993179     0.000000000000     1.007825032070
         H            4.931645103716     0.071122354960     0.000000000000     1.007825032070
         H           -4.931645103716    -0.071122354960     0.000000000000     1.007825032070

  Running in c2h symmetry.

  Rotational constants: A =      0.15403  B =      0.02288  C =      0.01992 [cm^-1]
  Rotational constants: A =   4617.84452  B =    685.79596  C =    597.11799 [MHz]
  Nuclear repulsion =  445.945076805550514

  Charge       = 0
  Multiplicity = 1
  Electrons    = 70
  Nalpha       = 35
  Nbeta        = 35

  ==> Algorithm <==

  SCF Algorithm Type is DF.
  DIIS enabled.
  MOM disabled.
  Fractional occupation disabled.
  Guess Type is SAD.
  Energy threshold   = 1.00e-08
  Density threshold  = 1.00e-08
  Integral threshold = 0.00e+00

  ==> Primary Basis <==

  Basis Set: STO-3G
    Blend: STO-3G
    Number of shells: 40
    Number of basis function: 60
    Number of Cartesian functions: 60
    Spherical Harmonics?: true
    Max angular momentum: 1

   => Loading Basis Set <=

    Name: (STO-3G AUX)
    Role: JKFIT
    Keyword: DF_BASIS_SCF
    atoms 1-6, 11-12, 15-16  entry C          line   203 file /home/eric/.pyenv/versions/miniconda3-4.3.30/envs/psi4-1.2.1/share/psi4/basis/def2-svp-jkfit.gbs 
    atoms 7-10, 13-14, 17-20 entry H          line    23 file /home/eric/.pyenv/versions/miniconda3-4.3.30/envs/psi4-1.2.1/share/psi4/basis/def2-svp-jkfit.gbs 

  ==> Pre-Iterations <==

   -------------------------------------------------------
    Irrep   Nso     Nmo     Nalpha   Nbeta   Ndocc  Nsocc
   -------------------------------------------------------
     Ag        25      25       0       0       0       0
     Bg         5       5       0       0       0       0
     Au         5       5       0       0       0       0
     Bu        25      25       0       0       0       0
   -------------------------------------------------------
    Total      60      60      35      35      35       0
   -------------------------------------------------------

  ==> Integral Setup <==

  DFHelper Memory: AOs need 0.031 [GiB]; user supplied 0.366 [GiB]. Using in-core AOs.

  ==> MemDFJK: Density-Fitted J/K Matrices <==

    J tasked:                   Yes
    K tasked:                   Yes
    wK tasked:                   No
    OpenMP threads:               1
    Memory (MB):                375
    Algorithm:                 Core
    Schwarz Cutoff:           1E-12
    Mask sparsity (%):       4.1111
    Fitting Condition:        1E-12

   => Auxiliary Basis Set <=

  Basis Set: (STO-3G AUX)
    Blend: DEF2-SVP-JKFIT
    Number of shells: 310
    Number of basis function: 930
    Number of Cartesian functions: 1090
    Spherical Harmonics?: true
    Max angular momentum: 4

  Minimum eigenvalue in the overlap matrix is 1.8138961685E-01.
  Using Symmetric Orthogonalization.

  SCF Guess: Superposition of Atomic Densities via on-the-fly atomic UHF.

  ==> Iterations <==

                           Total Energy        Delta E     RMS |[F,P]|

   @DF-RHF iter   0:  -382.06874430140010   -3.82069e+02   1.28267e-01 
   @DF-RHF iter   1:  -379.72438103150444    2.34436e+00   6.48245e-03 
   @DF-RHF iter   2:  -379.76567597999713   -4.12949e-02   2.14933e-03 DIIS
   @DF-RHF iter   3:  -379.76949290125651   -3.81692e-03   7.92467e-04 DIIS
   @DF-RHF iter   4:  -379.77013662616400   -6.43725e-04   1.33672e-04 DIIS
   @DF-RHF iter   5:  -379.77015914682420   -2.25207e-05   2.90866e-05 DIIS
   @DF-RHF iter   6:  -379.77016100370190   -1.85688e-06   1.03621e-05 DIIS
   @DF-RHF iter   7:  -379.77016117991423   -1.76212e-07   2.58228e-06 DIIS
   @DF-RHF iter   8:  -379.77016118920011   -9.28588e-09   1.05738e-06 DIIS
   @DF-RHF iter   9:  -379.77016119107287   -1.87276e-09   1.74455e-07 DIIS
   @DF-RHF iter  10:  -379.77016119113512   -6.22435e-11   2.78390e-08 DIIS
   @DF-RHF iter  11:  -379.77016119113711   -1.98952e-12   7.99071e-09 DIIS

  ==> Post-Iterations <==

    Orbital Energies [Eh]
    ---------------------

    Doubly Occupied:                                                      

       1Bu   -11.040753     1Ag   -11.040690     2Bu   -11.031722  
       2Ag   -11.031721     3Bu   -11.029134     3Ag   -11.029004  
       4Bu   -11.028791     4Ag   -11.028768     5Bu   -11.017606  
       5Ag   -11.017606     6Ag    -1.090403     6Bu    -1.020209  
       7Ag    -0.974906     7Bu    -0.950390     8Bu    -0.909694  
       8Ag    -0.799837     9Ag    -0.762872     9Bu    -0.727592  
      10Ag    -0.696837    11Ag    -0.628050    10Bu    -0.605619  
      11Bu    -0.572967    12Bu    -0.553611    12Ag    -0.553141  
      13Bu    -0.525429    14Bu    -0.496738    13Ag    -0.492509  
       1Au    -0.463783    15Bu    -0.446371    14Ag    -0.421649  
      15Ag    -0.415645     1Bg    -0.376887     2Au    -0.315115  
       2Bg    -0.278383     3Bg    -0.222309  

    Virtual:                                                              

       3Au     0.199180     4Au     0.268487     4Bg     0.308895  
       5Au     0.397043     5Bg     0.521831    16Ag     0.564864  
      16Bu     0.575645    17Ag     0.621623    17Bu     0.625597  
      18Ag     0.658318    18Bu     0.659424    19Bu     0.677108  
      19Ag     0.694173    20Bu     0.706756    20Ag     0.740249  
      21Ag     0.802343    21Bu     0.825891    22Ag     0.860671  
      22Bu     0.887806    23Bu     0.921027    23Ag     0.939899  
      24Ag     0.990257    24Bu     1.027331    25Ag     1.107886  
      25Bu     1.125073  

    Final Occupation by Irrep:
             Ag    Bg    Au    Bu 
    DOCC [    15,    3,    2,   15 ]

  Energy converged.

  @DF-RHF Final Energy:  -379.77016119113711

   => Energetics <=

    Nuclear Repulsion Energy =            445.9450768055505137
    One-Electron Energy =               -1400.2369961636381959
    Two-Electron Energy =                 574.5217581669505762
    Total Energy =                       -379.7701611911370492



Properties will be evaluated at   0.000000,   0.000000,   0.000000 [a0]

Properties computed using the SCF density matrix

  Nuclear Dipole Moment: [e a0]
     X:     0.0000      Y:     0.0000      Z:     0.0000

  Electronic Dipole Moment: [e a0]
     X:     0.0000      Y:     0.0000      Z:     0.0000

  Dipole Moment: [e a0]
     X:     0.0000      Y:     0.0000      Z:     0.0000     Total:     0.0000

  Dipole Moment: [D]
     X:     0.0000      Y:     0.0000      Z:     0.0000     Total:     0.0000


*** tstop() called on osmium at Sat Mar  7 23:47:22 2020
Module time:
	user time   =       2.29 seconds =       0.04 minutes
	system time =       0.01 seconds =       0.00 minutes
	total time  =          2 seconds =       0.03 minutes
Total time:
	user time   =      12.11 seconds =       0.20 minutes
	system time =       0.09 seconds =       0.00 minutes
	total time  =         12 seconds =       0.20 minutes

*** tstart() called on osmium
*** at Sat Mar  7 23:47:22 2020


         ------------------------------------------------------------
                                   SCF GRAD                          
                          Rob Parrish, Justin Turney,                
                       Andy Simmonett, and Alex Sokolov              
         ------------------------------------------------------------

  ==> Geometry <==

    Molecular point group: c2h
    Full point group: C2h

    Geometry (in Angstrom), charge = 0, multiplicity = 1:

       Center              X                  Y                   Z               Mass       
    ------------   -----------------  -----------------  -----------------  -----------------
         C           -1.414713639174     0.230216791865     0.000000000000    12.000000000000
         C            1.414713639174    -0.230216791865     0.000000000000    12.000000000000
         C           -0.495137793702     1.314459120388     0.000000000000    12.000000000000
         C            0.495137793702    -1.314459120388     0.000000000000    12.000000000000
         C            0.889405194329     1.090952512463     0.000000000000    12.000000000000
         C           -0.889405194329    -1.090952512463     0.000000000000    12.000000000000
         H           -0.879559468058     2.343731271420     0.000000000000     1.007825032070
         H            0.879559468058    -2.343731271420     0.000000000000     1.007825032070
         H            1.577897293002     1.945011694927     0.000000000000     1.007825032070
         H           -1.577897293002    -1.945011694927     0.000000000000     1.007825032070
         C            2.884586334795    -0.521079199924     0.000000000000    12.000000000000
         C           -2.884586334795     0.521079199924     0.000000000000    12.000000000000
         H            3.140341298023    -1.591949488240     0.000000000000     1.007825032070
         H           -3.140341298023     1.591949488240     0.000000000000     1.007825032070
         C            3.880041461569     0.382267232619     0.000000000000    12.000000000000
         C           -3.880041461569    -0.382267232619     0.000000000000    12.000000000000
         H            3.694671425777     1.462451993179     0.000000000000     1.007825032070
         H           -3.694671425777    -1.462451993179     0.000000000000     1.007825032070
         H            4.931645103716     0.071122354960     0.000000000000     1.007825032070
         H           -4.931645103716    -0.071122354960     0.000000000000     1.007825032070

  Nuclear repulsion =  445.945076805550514

  ==> Basis Set <==

  Basis Set: STO-3G
    Blend: STO-3G
    Number of shells: 40
    Number of basis function: 60
    Number of Cartesian functions: 60
    Spherical Harmonics?: true
    Max angular momentum: 1

  ==> DFJKGrad: Density-Fitted SCF Gradients <==

    Gradient:                    1
    J tasked:                  Yes
    K tasked:                  Yes
    wK tasked:                  No
    OpenMP threads:              1
    Integrals threads:           1
    Memory (MB):               375
    Schwarz Cutoff:          0E+00
    Fitting Condition:       1E-12

   => Auxiliary Basis Set <=

  Basis Set: (STO-3G AUX)
    Blend: DEF2-SVP-JKFIT
    Number of shells: 310
    Number of basis function: 930
    Number of Cartesian functions: 1090
    Spherical Harmonics?: true
    Max angular momentum: 4


  -Total Gradient:
     Atom            X                  Y                   Z
    ------   -----------------  -----------------  -----------------
       1       -0.023900719349     0.003911543748     0.000000000000
       2        0.023900719349    -0.003911543748     0.000000000000
       3       -0.003188297797     0.014090550458     0.000000000000
       4        0.003188297797    -0.014090550458     0.000000000000
       5        0.005723539296     0.013460139473     0.000000000000
       6       -0.005723539296    -0.013460139473     0.000000000000
       7       -0.005004459401     0.013087101958     0.000000000000
       8        0.005004459401    -0.013087101958     0.000000000000
       9        0.009831562825     0.009852087044     0.000000000000
      10       -0.009831562825    -0.009852087044     0.000000000000
      11       -0.032598774761    -0.017545260959     0.000000000000
      12        0.032598774761     0.017545260959     0.000000000000
      13        0.003244003570    -0.014100027192     0.000000000000
      14       -0.003244003570     0.014100027192     0.000000000000
      15        0.024044544414     0.021050887163     0.000000000000
      16       -0.024044544414    -0.021050887163     0.000000000000
      17       -0.003374927319     0.013513202533     0.000000000000
      18        0.003374927319    -0.013513202533     0.000000000000
      19        0.013259890199    -0.003902635848     0.000000000000
      20       -0.013259890199     0.003902635848     0.000000000000


*** tstop() called on osmium at Sat Mar  7 23:47:25 2020
Module time:
	user time   =       2.56 seconds =       0.04 minutes
	system time =       0.01 seconds =       0.00 minutes
	total time  =          3 seconds =       0.05 minutes
Total time:
	user time   =      14.68 seconds =       0.24 minutes
	system time =       0.10 seconds =       0.00 minutes
	total time  =         15 seconds =       0.25 minutes

  //>>>>>>>>>>>>>>>>>>>>>>>>>>>>>>>>>>>//
  //    Loading displacement 3 of 74   //
  //<<<<<<<<<<<<<<<<<<<<<<<<<<<<<<<<<<<//
gradient() will perform analytic gradient computation.

*** tstart() called on osmium
*** at Sat Mar  7 23:47:25 2020

   => Loading Basis Set <=

    Name: STO-3G
    Role: ORBITAL
    Keyword: BASIS
    atoms 1-6, 11-12, 15-16  entry C          line    61 file /home/eric/.pyenv/versions/miniconda3-4.3.30/envs/psi4-1.2.1/share/psi4/basis/sto-3g.gbs 
    atoms 7-10, 13-14, 17-20 entry H          line    19 file /home/eric/.pyenv/versions/miniconda3-4.3.30/envs/psi4-1.2.1/share/psi4/basis/sto-3g.gbs 


         ---------------------------------------------------------
                                   SCF
            by Justin Turney, Rob Parrish, Andy Simmonett
                             and Daniel Smith
                              RHF Reference
                        1 Threads,    500 MiB Core
         ---------------------------------------------------------

  ==> Geometry <==

    Molecular point group: c2h
    Full point group: C2h

    Geometry (in Angstrom), charge = 0, multiplicity = 1:

       Center              X                  Y                   Z               Mass       
    ------------   -----------------  -----------------  -----------------  -----------------
         C           -1.415253322400     0.229697281077     0.000000000000    12.000000000000
         C            1.415253322400    -0.229697281077     0.000000000000    12.000000000000
         C           -0.495103775762     1.314471934318     0.000000000000    12.000000000000
         C            0.495103775762    -1.314471934318     0.000000000000    12.000000000000
         C            0.889433427844     1.090929494764     0.000000000000    12.000000000000
         C           -0.889433427844    -1.090929494764     0.000000000000    12.000000000000
         H           -0.879498812760     2.343754033999     0.000000000000     1.007825032070
         H            0.879498812760    -2.343754033999     0.000000000000     1.007825032070
         H            1.577947629306     1.944970859136     0.000000000000     1.007825032070
         H           -1.577947629306    -1.944970859136     0.000000000000     1.007825032070
         C            2.884572849124    -0.521153852296     0.000000000000    12.000000000000
         C           -2.884572849124     0.521153852296     0.000000000000    12.000000000000
         H            3.140300098456    -1.592030759393     0.000000000000     1.007825032070
         H           -3.140300098456     1.592030759393     0.000000000000     1.007825032070
         C            3.880051354201     0.382166818019     0.000000000000    12.000000000000
         C           -3.880051354201    -0.382166818019     0.000000000000    12.000000000000
         H            3.694709273355     1.462356375813     0.000000000000     1.007825032070
         H           -3.694709273355    -1.462356375813     0.000000000000     1.007825032070
         H            4.931646943895     0.070994725132     0.000000000000     1.007825032070
         H           -4.931646943895    -0.070994725132     0.000000000000     1.007825032070

  Running in c2h symmetry.

  Rotational constants: A =      0.15404  B =      0.02287  C =      0.01992 [cm^-1]
  Rotational constants: A =   4618.10976  B =    685.76134  C =    597.09617 [MHz]
  Nuclear repulsion =  445.939128250305430

  Charge       = 0
  Multiplicity = 1
  Electrons    = 70
  Nalpha       = 35
  Nbeta        = 35

  ==> Algorithm <==

  SCF Algorithm Type is DF.
  DIIS enabled.
  MOM disabled.
  Fractional occupation disabled.
  Guess Type is SAD.
  Energy threshold   = 1.00e-08
  Density threshold  = 1.00e-08
  Integral threshold = 0.00e+00

  ==> Primary Basis <==

  Basis Set: STO-3G
    Blend: STO-3G
    Number of shells: 40
    Number of basis function: 60
    Number of Cartesian functions: 60
    Spherical Harmonics?: true
    Max angular momentum: 1

   => Loading Basis Set <=

    Name: (STO-3G AUX)
    Role: JKFIT
    Keyword: DF_BASIS_SCF
    atoms 1-6, 11-12, 15-16  entry C          line   203 file /home/eric/.pyenv/versions/miniconda3-4.3.30/envs/psi4-1.2.1/share/psi4/basis/def2-svp-jkfit.gbs 
    atoms 7-10, 13-14, 17-20 entry H          line    23 file /home/eric/.pyenv/versions/miniconda3-4.3.30/envs/psi4-1.2.1/share/psi4/basis/def2-svp-jkfit.gbs 

  ==> Pre-Iterations <==

   -------------------------------------------------------
    Irrep   Nso     Nmo     Nalpha   Nbeta   Ndocc  Nsocc
   -------------------------------------------------------
     Ag        25      25       0       0       0       0
     Bg         5       5       0       0       0       0
     Au         5       5       0       0       0       0
     Bu        25      25       0       0       0       0
   -------------------------------------------------------
    Total      60      60      35      35      35       0
   -------------------------------------------------------

  ==> Integral Setup <==

  DFHelper Memory: AOs need 0.031 [GiB]; user supplied 0.366 [GiB]. Using in-core AOs.

  ==> MemDFJK: Density-Fitted J/K Matrices <==

    J tasked:                   Yes
    K tasked:                   Yes
    wK tasked:                   No
    OpenMP threads:               1
    Memory (MB):                375
    Algorithm:                 Core
    Schwarz Cutoff:           1E-12
    Mask sparsity (%):       4.1111
    Fitting Condition:        1E-12

   => Auxiliary Basis Set <=

  Basis Set: (STO-3G AUX)
    Blend: DEF2-SVP-JKFIT
    Number of shells: 310
    Number of basis function: 930
    Number of Cartesian functions: 1090
    Spherical Harmonics?: true
    Max angular momentum: 4

  Minimum eigenvalue in the overlap matrix is 1.8145426276E-01.
  Using Symmetric Orthogonalization.

  SCF Guess: Superposition of Atomic Densities via on-the-fly atomic UHF.

  ==> Iterations <==

                           Total Energy        Delta E     RMS |[F,P]|

   @DF-RHF iter   0:  -379.40056380052442   -3.79401e+02   1.22401e-01 
   @DF-RHF iter   1:  -379.51120421601377   -1.10640e-01   1.48253e-02 
   @DF-RHF iter   2:  -379.75323502798051   -2.42031e-01   3.85538e-03 DIIS
   @DF-RHF iter   3:  -379.76816863789429   -1.49336e-02   1.54491e-03 DIIS
   @DF-RHF iter   4:  -379.77006527661433   -1.89664e-03   2.31205e-04 DIIS
   @DF-RHF iter   5:  -379.77011682425484   -5.15476e-05   2.54419e-05 DIIS
   @DF-RHF iter   6:  -379.77011812194939   -1.29769e-06   8.39189e-06 DIIS
   @DF-RHF iter   7:  -379.77011823136087   -1.09411e-07   2.68175e-06 DIIS
   @DF-RHF iter   8:  -379.77011824497993   -1.36191e-08   6.92450e-07 DIIS
   @DF-RHF iter   9:  -379.77011824575908   -7.79153e-10   2.08578e-07 DIIS
   @DF-RHF iter  10:  -379.77011824582524   -6.61657e-11   5.07963e-08 DIIS
   @DF-RHF iter  11:  -379.77011824582991   -4.66116e-12   1.18085e-08 DIIS
   @DF-RHF iter  12:  -379.77011824583053   -6.25278e-13   2.75729e-09 DIIS

  ==> Post-Iterations <==

    Orbital Energies [Eh]
    ---------------------

    Doubly Occupied:                                                      

       1Bu   -11.040744     1Ag   -11.040681     2Bu   -11.031742  
       2Ag   -11.031742     3Bu   -11.029111     3Ag   -11.028981  
       4Bu   -11.028764     4Ag   -11.028740     5Bu   -11.017620  
       5Ag   -11.017620     6Ag    -1.090327     6Bu    -1.020267  
       7Ag    -0.974936     7Bu    -0.950305     8Bu    -0.909668  
       8Ag    -0.799830     9Ag    -0.762907     9Bu    -0.727627  
      10Ag    -0.696755    11Ag    -0.628052    10Bu    -0.605658  
      11Bu    -0.572942    12Bu    -0.553664    12Ag    -0.553153  
      13Bu    -0.525333    14Bu    -0.496633    13Ag    -0.492546  
       1Au    -0.463727    15Bu    -0.446468    14Ag    -0.421504  
      15Ag    -0.415763     1Bg    -0.376939     2Au    -0.315115  
       2Bg    -0.278355     3Bg    -0.222192  

    Virtual:                                                              

       3Au     0.199062     4Au     0.268520     4Bg     0.308861  
       5Au     0.397090     5Bg     0.521794    16Ag     0.565067  
      16Bu     0.575681    17Ag     0.621538    17Bu     0.625669  
      18Ag     0.658255    18Bu     0.659446    19Bu     0.677243  
      19Ag     0.694211    20Bu     0.706655    20Ag     0.740129  
      21Ag     0.802264    21Bu     0.825830    22Ag     0.860702  
      22Bu     0.887655    23Bu     0.921142    23Ag     0.939981  
      24Ag     0.990264    24Bu     1.027249    25Ag     1.107781  
      25Bu     1.124994  

    Final Occupation by Irrep:
             Ag    Bg    Au    Bu 
    DOCC [    15,    3,    2,   15 ]

  Energy converged.

  @DF-RHF Final Energy:  -379.77011824583053

   => Energetics <=

    Nuclear Repulsion Energy =            445.9391282503054299
    One-Electron Energy =               -1400.2256706219493481
    Two-Electron Energy =                 574.5164241258133870
    Total Energy =                       -379.7701182458305311



Properties will be evaluated at   0.000000,   0.000000,   0.000000 [a0]

Properties computed using the SCF density matrix

  Nuclear Dipole Moment: [e a0]
     X:     0.0000      Y:     0.0000      Z:     0.0000

  Electronic Dipole Moment: [e a0]
     X:     0.0000      Y:     0.0000      Z:     0.0000

  Dipole Moment: [e a0]
     X:     0.0000      Y:     0.0000      Z:     0.0000     Total:     0.0000

  Dipole Moment: [D]
     X:     0.0000      Y:     0.0000      Z:     0.0000     Total:     0.0000


*** tstop() called on osmium at Sat Mar  7 23:47:27 2020
Module time:
	user time   =       2.30 seconds =       0.04 minutes
	system time =       0.01 seconds =       0.00 minutes
	total time  =          2 seconds =       0.03 minutes
Total time:
	user time   =      16.98 seconds =       0.28 minutes
	system time =       0.11 seconds =       0.00 minutes
	total time  =         17 seconds =       0.28 minutes

*** tstart() called on osmium
*** at Sat Mar  7 23:47:27 2020


         ------------------------------------------------------------
                                   SCF GRAD                          
                          Rob Parrish, Justin Turney,                
                       Andy Simmonett, and Alex Sokolov              
         ------------------------------------------------------------

  ==> Geometry <==

    Molecular point group: c2h
    Full point group: C2h

    Geometry (in Angstrom), charge = 0, multiplicity = 1:

       Center              X                  Y                   Z               Mass       
    ------------   -----------------  -----------------  -----------------  -----------------
         C           -1.415253322400     0.229697281077     0.000000000000    12.000000000000
         C            1.415253322400    -0.229697281077     0.000000000000    12.000000000000
         C           -0.495103775762     1.314471934318     0.000000000000    12.000000000000
         C            0.495103775762    -1.314471934318     0.000000000000    12.000000000000
         C            0.889433427844     1.090929494764     0.000000000000    12.000000000000
         C           -0.889433427844    -1.090929494764     0.000000000000    12.000000000000
         H           -0.879498812760     2.343754033999     0.000000000000     1.007825032070
         H            0.879498812760    -2.343754033999     0.000000000000     1.007825032070
         H            1.577947629306     1.944970859136     0.000000000000     1.007825032070
         H           -1.577947629306    -1.944970859136     0.000000000000     1.007825032070
         C            2.884572849124    -0.521153852296     0.000000000000    12.000000000000
         C           -2.884572849124     0.521153852296     0.000000000000    12.000000000000
         H            3.140300098456    -1.592030759393     0.000000000000     1.007825032070
         H           -3.140300098456     1.592030759393     0.000000000000     1.007825032070
         C            3.880051354201     0.382166818019     0.000000000000    12.000000000000
         C           -3.880051354201    -0.382166818019     0.000000000000    12.000000000000
         H            3.694709273355     1.462356375813     0.000000000000     1.007825032070
         H           -3.694709273355    -1.462356375813     0.000000000000     1.007825032070
         H            4.931646943895     0.070994725132     0.000000000000     1.007825032070
         H           -4.931646943895    -0.070994725132     0.000000000000     1.007825032070

  Nuclear repulsion =  445.939128250305430

  ==> Basis Set <==

  Basis Set: STO-3G
    Blend: STO-3G
    Number of shells: 40
    Number of basis function: 60
    Number of Cartesian functions: 60
    Spherical Harmonics?: true
    Max angular momentum: 1

  ==> DFJKGrad: Density-Fitted SCF Gradients <==

    Gradient:                    1
    J tasked:                  Yes
    K tasked:                  Yes
    wK tasked:                  No
    OpenMP threads:              1
    Integrals threads:           1
    Memory (MB):               375
    Schwarz Cutoff:          0E+00
    Fitting Condition:       1E-12

   => Auxiliary Basis Set <=

  Basis Set: (STO-3G AUX)
    Blend: DEF2-SVP-JKFIT
    Number of shells: 310
    Number of basis function: 930
    Number of Cartesian functions: 1090
    Spherical Harmonics?: true
    Max angular momentum: 4


  -Total Gradient:
     Atom            X                  Y                   Z
    ------   -----------------  -----------------  -----------------
       1       -0.024750057730     0.002954787104     0.000000000000
       2        0.024750057730    -0.002954787104     0.000000000000
       3       -0.002776408233     0.014628285622     0.000000000000
       4        0.002776408233    -0.014628285622     0.000000000000
       5        0.005690635473     0.013138191700     0.000000000000
       6       -0.005690635473    -0.013138191700     0.000000000000
       7       -0.004997765973     0.013088081948     0.000000000000
       8        0.004997765973    -0.013088081948     0.000000000000
       9        0.009866060223     0.009807629889     0.000000000000
      10       -0.009866060223    -0.009807629889     0.000000000000
      11       -0.032862591601    -0.017631266619     0.000000000000
      12        0.032862591601     0.017631266619     0.000000000000
      13        0.003275398582    -0.014107186305     0.000000000000
      14       -0.003275398582     0.014107186305     0.000000000000
      15        0.023971164638     0.021059043182     0.000000000000
      16       -0.023971164638    -0.021059043182     0.000000000000
      17       -0.003370764240     0.013514647737     0.000000000000
      18        0.003370764240    -0.013514647737     0.000000000000
      19        0.013255541731    -0.003908640686     0.000000000000
      20       -0.013255541731     0.003908640686     0.000000000000


*** tstop() called on osmium at Sat Mar  7 23:47:29 2020
Module time:
	user time   =       2.55 seconds =       0.04 minutes
	system time =       0.02 seconds =       0.00 minutes
	total time  =          2 seconds =       0.03 minutes
Total time:
	user time   =      19.53 seconds =       0.33 minutes
	system time =       0.13 seconds =       0.00 minutes
	total time  =         19 seconds =       0.32 minutes

  //>>>>>>>>>>>>>>>>>>>>>>>>>>>>>>>>>>>//
  //    Loading displacement 4 of 74   //
  //<<<<<<<<<<<<<<<<<<<<<<<<<<<<<<<<<<<//
gradient() will perform analytic gradient computation.

*** tstart() called on osmium
*** at Sat Mar  7 23:47:29 2020

   => Loading Basis Set <=

    Name: STO-3G
    Role: ORBITAL
    Keyword: BASIS
    atoms 1-6, 11-12, 15-16  entry C          line    61 file /home/eric/.pyenv/versions/miniconda3-4.3.30/envs/psi4-1.2.1/share/psi4/basis/sto-3g.gbs 
    atoms 7-10, 13-14, 17-20 entry H          line    19 file /home/eric/.pyenv/versions/miniconda3-4.3.30/envs/psi4-1.2.1/share/psi4/basis/sto-3g.gbs 


         ---------------------------------------------------------
                                   SCF
            by Justin Turney, Rob Parrish, Andy Simmonett
                             and Daniel Smith
                              RHF Reference
                        1 Threads,    500 MiB Core
         ---------------------------------------------------------

  ==> Geometry <==

    Molecular point group: c2h
    Full point group: C2h

    Geometry (in Angstrom), charge = 0, multiplicity = 1:

       Center              X                  Y                   Z               Mass       
    ------------   -----------------  -----------------  -----------------  -----------------
         C           -1.415253322400     0.230746289723     0.000000000000    12.000000000000
         C            1.415253322400    -0.230746289723     0.000000000000    12.000000000000
         C           -0.495162535838     1.314449800482     0.000000000000    12.000000000000
         C            0.495162535838    -1.314449800482     0.000000000000    12.000000000000
         C            0.889384659356     1.090969253836     0.000000000000    12.000000000000
         C           -0.889384659356    -1.090969253836     0.000000000000    12.000000000000
         H           -0.879603584240     2.343714715601     0.000000000000     1.007825032070
         H            0.879603584240    -2.343714715601     0.000000000000     1.007825032070
         H            1.577860682094     1.945041395864     0.000000000000     1.007825032070
         H           -1.577860682094    -1.945041395864     0.000000000000     1.007825032070
         C            2.884596143276    -0.521024903304     0.000000000000    12.000000000000
         C           -2.884596143276     0.521024903304     0.000000000000    12.000000000000
         H            3.140371263544    -1.591890377607     0.000000000000     1.007825032070
         H           -3.140371263544     1.591890377607     0.000000000000     1.007825032070
         C            3.880034266399     0.382340266781     0.000000000000    12.000000000000
         C           -3.880034266399    -0.382340266781     0.000000000000    12.000000000000
         H            3.694643898245     1.462521538187     0.000000000000     1.007825032070
         H           -3.694643898245    -1.462521538187     0.000000000000     1.007825032070
         H            4.931643765305     0.071215183468     0.000000000000     1.007825032070
         H           -4.931643765305    -0.071215183468     0.000000000000     1.007825032070

  Running in c2h symmetry.

  Rotational constants: A =      0.15403  B =      0.02287  C =      0.01992 [cm^-1]
  Rotational constants: A =   4617.57632  B =    685.76232  C =    597.08799 [MHz]
  Nuclear repulsion =  445.934833197626119

  Charge       = 0
  Multiplicity = 1
  Electrons    = 70
  Nalpha       = 35
  Nbeta        = 35

  ==> Algorithm <==

  SCF Algorithm Type is DF.
  DIIS enabled.
  MOM disabled.
  Fractional occupation disabled.
  Guess Type is SAD.
  Energy threshold   = 1.00e-08
  Density threshold  = 1.00e-08
  Integral threshold = 0.00e+00

  ==> Primary Basis <==

  Basis Set: STO-3G
    Blend: STO-3G
    Number of shells: 40
    Number of basis function: 60
    Number of Cartesian functions: 60
    Spherical Harmonics?: true
    Max angular momentum: 1

   => Loading Basis Set <=

    Name: (STO-3G AUX)
    Role: JKFIT
    Keyword: DF_BASIS_SCF
    atoms 1-6, 11-12, 15-16  entry C          line   203 file /home/eric/.pyenv/versions/miniconda3-4.3.30/envs/psi4-1.2.1/share/psi4/basis/def2-svp-jkfit.gbs 
    atoms 7-10, 13-14, 17-20 entry H          line    23 file /home/eric/.pyenv/versions/miniconda3-4.3.30/envs/psi4-1.2.1/share/psi4/basis/def2-svp-jkfit.gbs 

  ==> Pre-Iterations <==

   -------------------------------------------------------
    Irrep   Nso     Nmo     Nalpha   Nbeta   Ndocc  Nsocc
   -------------------------------------------------------
     Ag        25      25       0       0       0       0
     Bg         5       5       0       0       0       0
     Au         5       5       0       0       0       0
     Bu        25      25       0       0       0       0
   -------------------------------------------------------
    Total      60      60      35      35      35       0
   -------------------------------------------------------

  ==> Integral Setup <==

  DFHelper Memory: AOs need 0.031 [GiB]; user supplied 0.366 [GiB]. Using in-core AOs.

  ==> MemDFJK: Density-Fitted J/K Matrices <==

    J tasked:                   Yes
    K tasked:                   Yes
    wK tasked:                   No
    OpenMP threads:               1
    Memory (MB):                375
    Algorithm:                 Core
    Schwarz Cutoff:           1E-12
    Mask sparsity (%):       4.1111
    Fitting Condition:        1E-12

   => Auxiliary Basis Set <=

  Basis Set: (STO-3G AUX)
    Blend: DEF2-SVP-JKFIT
    Number of shells: 310
    Number of basis function: 930
    Number of Cartesian functions: 1090
    Spherical Harmonics?: true
    Max angular momentum: 4

  Minimum eigenvalue in the overlap matrix is 1.8148727040E-01.
  Using Symmetric Orthogonalization.

  SCF Guess: Superposition of Atomic Densities via on-the-fly atomic UHF.

  ==> Iterations <==

                           Total Energy        Delta E     RMS |[F,P]|

   @DF-RHF iter   0:  -381.19938700176010   -3.81199e+02   1.24996e-01 
   @DF-RHF iter   1:  -379.71687837604071    1.48251e+00   6.82196e-03 
   @DF-RHF iter   2:  -379.76591351114121   -4.90351e-02   1.94225e-03 DIIS
   @DF-RHF iter   3:  -379.76947324245685   -3.55973e-03   8.09223e-04 DIIS
   @DF-RHF iter   4:  -379.77008217860265   -6.08936e-04   1.32248e-04 DIIS
   @DF-RHF iter   5:  -379.77010104714611   -1.88685e-05   2.64382e-05 DIIS
   @DF-RHF iter   6:  -379.77010262059957   -1.57345e-06   9.91700e-06 DIIS
   @DF-RHF iter   7:  -379.77010278254636   -1.61947e-07   2.41403e-06 DIIS
   @DF-RHF iter   8:  -379.77010279119884   -8.65248e-09   9.56039e-07 DIIS
   @DF-RHF iter   9:  -379.77010279264238   -1.44354e-09   1.94629e-07 DIIS
   @DF-RHF iter  10:  -379.77010279271843   -7.60565e-11   3.35237e-08 DIIS
   @DF-RHF iter  11:  -379.77010279272014   -1.70530e-12   7.95432e-09 DIIS

  ==> Post-Iterations <==

    Orbital Energies [Eh]
    ---------------------

    Doubly Occupied:                                                      

       1Bu   -11.040749     1Ag   -11.040687     2Bu   -11.031754  
       2Ag   -11.031753     3Bu   -11.029110     3Ag   -11.028979  
       4Bu   -11.028769     4Ag   -11.028747     5Bu   -11.017647  
       5Ag   -11.017647     6Ag    -1.090307     6Bu    -1.020278  
       7Ag    -0.974944     7Bu    -0.950332     8Bu    -0.909632  
       8Ag    -0.799961     9Ag    -0.762766     9Bu    -0.727656  
      10Ag    -0.696805    11Ag    -0.628041    10Bu    -0.605693  
      11Bu    -0.572952    12Bu    -0.553537    12Ag    -0.553170  
      13Bu    -0.525372    14Bu    -0.496758    13Ag    -0.492511  
       1Au    -0.463714    15Bu    -0.446398    14Ag    -0.421814  
      15Ag    -0.415493     1Bg    -0.376966     2Au    -0.315123  
       2Bg    -0.278348     3Bg    -0.222165  

    Virtual:                                                              

       3Au     0.198969     4Au     0.268557     4Bg     0.308837  
       5Au     0.397114     5Bg     0.521786    16Ag     0.565029  
      16Bu     0.575521    17Ag     0.621633    17Bu     0.626005  
      18Ag     0.658239    18Bu     0.659367    19Bu     0.677172  
      19Ag     0.694185    20Bu     0.706779    20Ag     0.740176  
      21Ag     0.802246    21Bu     0.825545    22Ag     0.860579  
      22Bu     0.887933    23Bu     0.920939    23Ag     0.939974  
      24Ag     0.990382    24Bu     1.027343    25Ag     1.107715  
      25Bu     1.124932  

    Final Occupation by Irrep:
             Ag    Bg    Au    Bu 
    DOCC [    15,    3,    2,   15 ]

  Energy converged.

  @DF-RHF Final Energy:  -379.77010279272014

   => Energetics <=

    Nuclear Repulsion Energy =            445.9348331976261193
    One-Electron Energy =               -1400.2167021304198897
    Two-Electron Energy =                 574.5117661400736324
    Total Energy =                       -379.7701027927200812



Properties will be evaluated at   0.000000,   0.000000,   0.000000 [a0]

Properties computed using the SCF density matrix

  Nuclear Dipole Moment: [e a0]
     X:     0.0000      Y:     0.0000      Z:     0.0000

  Electronic Dipole Moment: [e a0]
     X:     0.0000      Y:     0.0000      Z:     0.0000

  Dipole Moment: [e a0]
     X:     0.0000      Y:     0.0000      Z:     0.0000     Total:     0.0000

  Dipole Moment: [D]
     X:     0.0000      Y:     0.0000      Z:     0.0000     Total:     0.0000


*** tstop() called on osmium at Sat Mar  7 23:47:32 2020
Module time:
	user time   =       2.28 seconds =       0.04 minutes
	system time =       0.01 seconds =       0.00 minutes
	total time  =          3 seconds =       0.05 minutes
Total time:
	user time   =      21.81 seconds =       0.36 minutes
	system time =       0.14 seconds =       0.00 minutes
	total time  =         22 seconds =       0.37 minutes

*** tstart() called on osmium
*** at Sat Mar  7 23:47:32 2020


         ------------------------------------------------------------
                                   SCF GRAD                          
                          Rob Parrish, Justin Turney,                
                       Andy Simmonett, and Alex Sokolov              
         ------------------------------------------------------------

  ==> Geometry <==

    Molecular point group: c2h
    Full point group: C2h

    Geometry (in Angstrom), charge = 0, multiplicity = 1:

       Center              X                  Y                   Z               Mass       
    ------------   -----------------  -----------------  -----------------  -----------------
         C           -1.415253322400     0.230746289723     0.000000000000    12.000000000000
         C            1.415253322400    -0.230746289723     0.000000000000    12.000000000000
         C           -0.495162535838     1.314449800482     0.000000000000    12.000000000000
         C            0.495162535838    -1.314449800482     0.000000000000    12.000000000000
         C            0.889384659356     1.090969253836     0.000000000000    12.000000000000
         C           -0.889384659356    -1.090969253836     0.000000000000    12.000000000000
         H           -0.879603584240     2.343714715601     0.000000000000     1.007825032070
         H            0.879603584240    -2.343714715601     0.000000000000     1.007825032070
         H            1.577860682094     1.945041395864     0.000000000000     1.007825032070
         H           -1.577860682094    -1.945041395864     0.000000000000     1.007825032070
         C            2.884596143276    -0.521024903304     0.000000000000    12.000000000000
         C           -2.884596143276     0.521024903304     0.000000000000    12.000000000000
         H            3.140371263544    -1.591890377607     0.000000000000     1.007825032070
         H           -3.140371263544     1.591890377607     0.000000000000     1.007825032070
         C            3.880034266399     0.382340266781     0.000000000000    12.000000000000
         C           -3.880034266399    -0.382340266781     0.000000000000    12.000000000000
         H            3.694643898245     1.462521538187     0.000000000000     1.007825032070
         H           -3.694643898245    -1.462521538187     0.000000000000     1.007825032070
         H            4.931643765305     0.071215183468     0.000000000000     1.007825032070
         H           -4.931643765305    -0.071215183468     0.000000000000     1.007825032070

  Nuclear repulsion =  445.934833197626119

  ==> Basis Set <==

  Basis Set: STO-3G
    Blend: STO-3G
    Number of shells: 40
    Number of basis function: 60
    Number of Cartesian functions: 60
    Spherical Harmonics?: true
    Max angular momentum: 1

  ==> DFJKGrad: Density-Fitted SCF Gradients <==

    Gradient:                    1
    J tasked:                  Yes
    K tasked:                  Yes
    wK tasked:                  No
    OpenMP threads:              1
    Integrals threads:           1
    Memory (MB):               375
    Schwarz Cutoff:          0E+00
    Fitting Condition:       1E-12

   => Auxiliary Basis Set <=

  Basis Set: (STO-3G AUX)
    Blend: DEF2-SVP-JKFIT
    Number of shells: 310
    Number of basis function: 930
    Number of Cartesian functions: 1090
    Spherical Harmonics?: true
    Max angular momentum: 4


  -Total Gradient:
     Atom            X                  Y                   Z
    ------   -----------------  -----------------  -----------------
       1       -0.024719328616     0.004852808896     0.000000000000
       2        0.024719328616    -0.004852808896     0.000000000000
       3       -0.003129485903     0.013935188694     0.000000000000
       4        0.003129485903    -0.013935188694     0.000000000000
       5        0.005483088207     0.014022919920     0.000000000000
       6       -0.005483088207    -0.014022919920     0.000000000000
       7       -0.005049605148     0.013054586711     0.000000000000
       8        0.005049605148    -0.013054586711     0.000000000000
       9        0.009838912886     0.009840640123     0.000000000000
      10       -0.009838912886    -0.009840640123     0.000000000000
      11       -0.032923915286    -0.017329553202     0.000000000000
      12        0.032923915286     0.017329553202     0.000000000000
      13        0.003200337337    -0.014103088362     0.000000000000
      14       -0.003200337337     0.014103088362     0.000000000000
      15        0.024023806101     0.021018897422     0.000000000000
      16       -0.024023806101    -0.021018897422     0.000000000000
      17       -0.003375130933     0.013512742675     0.000000000000
      18        0.003375130933    -0.013512742675     0.000000000000
      19        0.013261795528    -0.003899305407     0.000000000000
[...]
     19   H                0.02  0.00 -0.00   -0.02 -0.04 -0.00   -0.04 -0.07 -0.00   
     20   H               -0.02 -0.00 -0.00   -0.02 -0.04  0.00    0.04  0.07 -0.00   

  Vibration                       43                  44                  45          
  Freq [cm^-1]                1636.4461           1714.6100           1726.9945       
  Irrep                           Bu                  Ag                  Bu          
  Reduced mass [u]              2.1995              1.4025              1.3167        
  Force const [mDyne/A]         3.4705              2.4294              2.3137        
  Turning point v=0 [a0]        0.1829              0.2238              0.2301        
  RMS dev v=0 [a0 u^1/2]        0.1918              0.1874              0.1867        
  Char temp [K]               2354.4780           2466.9383           2484.7568       
  ----------------------------------------------------------------------------------
      1   C               -0.00  0.14  0.00   -0.03  0.03  0.00    0.02  0.04  0.00   
      2   C               -0.00  0.14 -0.00    0.03 -0.03  0.00    0.02  0.04 -0.00   
      3   C                0.10 -0.06 -0.00   -0.04 -0.02 -0.00    0.04  0.01 -0.00   
      4   C                0.10 -0.06 -0.00    0.04  0.02 -0.00    0.04  0.01 -0.00   
      5   C               -0.13  0.01  0.00    0.01  0.03 -0.00   -0.02 -0.03  0.00   
      6   C               -0.13  0.01  0.00   -0.01 -0.03  0.00   -0.02 -0.03  0.00   
      7   H               -0.27 -0.23  0.00    0.12  0.04 -0.00   -0.17 -0.07  0.00   
      8   H               -0.27 -0.23 -0.00   -0.12 -0.04 -0.00   -0.17 -0.07 -0.00   
      9   H                0.35 -0.41  0.00    0.06 -0.01  0.00   -0.07  0.01  0.00   
     10   H                0.35 -0.41 -0.00   -0.06  0.01 -0.00   -0.07  0.01 -0.00   
     11   C                0.07 -0.01  0.00   -0.11 -0.03 -0.00   -0.09 -0.03  0.00   
     12   C                0.07 -0.01  0.00    0.11  0.03  0.00   -0.09 -0.03  0.00   
     13   H                0.01 -0.02 -0.00    0.28  0.06  0.00    0.31  0.06  0.00   
     14   H                0.01 -0.02 -0.00   -0.28 -0.06 -0.00    0.31  0.06 -0.00   
     15   C               -0.04 -0.01 -0.00    0.01 -0.02 -0.00   -0.00 -0.03 -0.00   
     16   C               -0.04 -0.01 -0.00   -0.01  0.02 -0.00   -0.00 -0.03 -0.00   
     17   H               -0.06 -0.02 -0.00    0.36  0.05 -0.00    0.37  0.05 -0.00   
     18   H               -0.06 -0.02  0.00   -0.36 -0.05  0.00    0.37  0.05  0.00   
     19   H               -0.09 -0.15 -0.00    0.17  0.46 -0.00    0.15  0.43 -0.00   
     20   H               -0.09 -0.15 -0.00   -0.17 -0.46 -0.00    0.15  0.43 -0.00   

  Vibration                       46                  47                  48          
  Freq [cm^-1]                1786.8504           1807.2725           1874.3204       
  Irrep                           Bu                  Ag                  Ag          
  Reduced mass [u]              2.1536              3.5372              4.5273        
  Force const [mDyne/A]         4.0512              6.8070              9.3709        
  Turning point v=0 [a0]        0.1769              0.1372              0.1191        
  RMS dev v=0 [a0 u^1/2]        0.1835              0.1825              0.1792        
  Char temp [K]               2570.8760           2600.2588           2696.7257       
  ----------------------------------------------------------------------------------
      1   C                0.14 -0.03 -0.00    0.03  0.23  0.00   -0.18  0.04  0.00   
      2   C                0.14 -0.03  0.00   -0.03 -0.23  0.00    0.18 -0.04  0.00   
      3   C               -0.10 -0.07  0.00   -0.10 -0.14 -0.00    0.25  0.02 -0.00   
      4   C               -0.10 -0.07  0.00    0.10  0.14 -0.00   -0.25 -0.02 -0.00   
      5   C               -0.07  0.10 -0.00   -0.05  0.16 -0.00   -0.23  0.10 -0.00   
      6   C               -0.07  0.10 -0.00    0.05 -0.16  0.00    0.23 -0.10 -0.00   
      7   H                0.44  0.12 -0.00    0.33 -0.00 -0.00   -0.34 -0.22  0.00   
      8   H                0.44  0.12  0.00   -0.33  0.00 -0.00    0.34  0.22 -0.00   
      9   H                0.37 -0.23 -0.00    0.33 -0.11  0.00    0.26 -0.32  0.00   
     10   H                0.37 -0.23  0.00   -0.33  0.11 -0.00   -0.26  0.32  0.00   
     11   C               -0.03  0.02 -0.00    0.00  0.02  0.00   -0.03  0.02 -0.00   
     12   C               -0.03  0.02 -0.00   -0.00 -0.02  0.00    0.03 -0.02 -0.00   
     13   H               -0.01  0.03 -0.00   -0.18 -0.03  0.00    0.01  0.03  0.00   
     14   H               -0.01  0.03  0.00    0.18  0.03 -0.00   -0.01 -0.03 -0.00   
     15   C               -0.02 -0.02  0.00    0.04  0.03 -0.00   -0.01 -0.02  0.00   
     16   C               -0.02 -0.02  0.00   -0.04 -0.03 -0.00    0.01  0.02 -0.00   
     17   H                0.14  0.00 -0.00   -0.27 -0.02 -0.00    0.04 -0.01 -0.00   
     18   H                0.14  0.00 -0.00    0.27  0.02  0.00   -0.04  0.01  0.00   
     19   H                0.04  0.18  0.00   -0.04 -0.23 -0.00    0.01  0.07  0.00   
     20   H                0.04  0.18  0.00    0.04  0.23 -0.00   -0.01 -0.07 -0.00   

  Vibration                       49                  50                  51          
  Freq [cm^-1]                1942.4689           1944.9727           3519.8315       
  Irrep                           Ag                  Bu                  Bu          
  Reduced mass [u]              2.9387              2.9547              1.0638        
  Force const [mDyne/A]         6.5331              6.5856              7.7656        
  Turning point v=0 [a0]        0.1452              0.1447              0.1793        
  RMS dev v=0 [a0 u^1/2]        0.1760              0.1759              0.1308        
  Char temp [K]               2794.7759           2798.3784           5064.2462       
  ----------------------------------------------------------------------------------
      1   C                0.04  0.05  0.00   -0.05 -0.02  0.00   -0.00 -0.00 -0.00   
      2   C               -0.04 -0.05  0.00   -0.05 -0.02 -0.00   -0.00 -0.00 -0.00   
      3   C               -0.00 -0.02 -0.00   -0.01  0.01  0.00    0.00 -0.00  0.00   
      4   C                0.00  0.02 -0.00   -0.01  0.01  0.00    0.00 -0.00 -0.00   
      5   C               -0.01  0.02 -0.00    0.02 -0.01  0.00    0.00  0.00  0.00   
      6   C                0.01 -0.02  0.00    0.02 -0.01  0.00    0.00  0.00 -0.00   
      7   H                0.03 -0.02  0.00   -0.00  0.02 -0.00   -0.01  0.02 -0.00   
      8   H               -0.03  0.02 -0.00   -0.00  0.02  0.00   -0.01  0.02 -0.00   
      9   H                0.00  0.02 -0.00   -0.06  0.06 -0.00   -0.02 -0.03  0.00   
     10   H               -0.00 -0.02 -0.00   -0.06  0.06  0.00   -0.02 -0.03 -0.00   
     11   C                0.18  0.11  0.00    0.19  0.11  0.00    0.01 -0.01 -0.00   
     12   C               -0.18 -0.11  0.00    0.19  0.11  0.00    0.01 -0.01 -0.00   
     13   H               -0.30  0.02  0.00   -0.29  0.02  0.00   -0.05  0.21  0.00   
     14   H                0.30 -0.02 -0.00   -0.29  0.02 -0.00   -0.05  0.21  0.00   
     15   C               -0.15 -0.12 -0.00   -0.15 -0.12 -0.00   -0.04 -0.03 -0.00   
     16   C                0.15  0.12 -0.00   -0.15 -0.12 -0.00   -0.04 -0.03  0.00   
     17   H                0.43 -0.05 -0.00    0.43 -0.05 -0.00   -0.08  0.45  0.00   
     18   H               -0.43  0.05  0.00    0.43 -0.05  0.00   -0.08  0.45 -0.00   
     19   H               -0.04  0.37  0.00   -0.05  0.36 -0.00    0.46 -0.14 -0.00   
     20   H                0.04 -0.37 -0.00   -0.05  0.36 -0.00    0.46 -0.14 -0.00   

  Vibration                       52                  53                  54          
  Freq [cm^-1]                3521.0538           3565.3811           3565.7352       
  Irrep                           Ag                  Ag                  Bu          
  Reduced mass [u]              1.0638              1.0996              1.0994        
  Force const [mDyne/A]         7.7708              8.2357              8.2360        
  Turning point v=0 [a0]        0.1793              0.1752              0.1752        
  RMS dev v=0 [a0 u^1/2]        0.1308              0.1299              0.1299        
  Char temp [K]               5066.0047           5129.7818           5130.2912       
  ----------------------------------------------------------------------------------
      1   C                0.00  0.00  0.00    0.00 -0.00 -0.00   -0.00  0.00 -0.00   
      2   C               -0.00 -0.00 -0.00   -0.00  0.00  0.00   -0.00  0.00  0.00   
      3   C                0.00 -0.00  0.00   -0.00  0.00  0.00   -0.00  0.00  0.00   
      4   C               -0.00  0.00 -0.00    0.00 -0.00  0.00   -0.00  0.00 -0.00   
      5   C                0.00  0.00  0.00   -0.00 -0.00 -0.00   -0.00 -0.00  0.00   
      6   C               -0.00 -0.00 -0.00    0.00  0.00 -0.00   -0.00 -0.00  0.00   
      7   H               -0.00  0.00  0.00    0.01 -0.01  0.00    0.00 -0.01  0.00   
      8   H                0.00 -0.00 -0.00   -0.01  0.01  0.00    0.00 -0.01 -0.00   
      9   H               -0.01 -0.02  0.00    0.01  0.01 -0.00    0.01  0.01  0.00   
     10   H                0.01  0.02 -0.00   -0.01 -0.01 -0.00    0.01  0.01 -0.00   
     11   C                0.01 -0.01  0.00    0.01 -0.06  0.00    0.01 -0.06 -0.00   
     12   C               -0.01  0.01 -0.00   -0.01  0.06  0.00    0.01 -0.06  0.00   
     13   H               -0.05  0.20  0.00   -0.16  0.65 -0.00   -0.15  0.65  0.00   
     14   H                0.05 -0.20 -0.00    0.16 -0.65 -0.00   -0.15  0.65 -0.00   
     15   C               -0.04 -0.03  0.00    0.01  0.02 -0.00    0.01  0.02 -0.00   
     16   C                0.04  0.03 -0.00   -0.01 -0.02 -0.00    0.01  0.02 -0.00   
     17   H               -0.08  0.46 -0.00    0.03 -0.16 -0.00    0.03 -0.16 -0.00   
     18   H                0.08 -0.46  0.00   -0.03  0.16  0.00    0.03 -0.16  0.00   
     19   H                0.47 -0.14  0.00   -0.13  0.04  0.00   -0.13  0.04  0.00   
     20   H               -0.47  0.14  0.00    0.13 -0.04 -0.00   -0.13  0.04 -0.00   

  Vibration                       55                  56                  57          
  Freq [cm^-1]                3575.7065           3582.5018           3602.6926       
  Irrep                           Bu                  Ag                  Bu          
  Reduced mass [u]              1.0930              1.0945              1.0994        
  Force const [mDyne/A]         8.2335              8.2763              8.4074        
  Turning point v=0 [a0]        0.1755              0.1752              0.1743        
  RMS dev v=0 [a0 u^1/2]        0.1298              0.1296              0.1293        
  Char temp [K]               5144.6377           5154.4147           5183.4646       
  ----------------------------------------------------------------------------------
      1   C                0.00  0.00  0.00    0.00  0.00  0.00    0.00  0.00  0.00   
      2   C                0.00  0.00  0.00   -0.00 -0.00  0.00    0.00  0.00 -0.00   
      3   C                0.02 -0.05  0.00    0.02 -0.06 -0.00    0.01 -0.02  0.00   
      4   C                0.02 -0.05 -0.00   -0.02  0.06 -0.00    0.01 -0.02  0.00   
      5   C                0.01  0.02 -0.00    0.01  0.02 -0.00   -0.04 -0.04  0.00   
      6   C                0.01  0.02 -0.00   -0.01 -0.02 -0.00   -0.04 -0.04 -0.00   
      7   H               -0.22  0.60 -0.00   -0.23  0.61 -0.00   -0.10  0.27  0.00   
      8   H               -0.22  0.60  0.00    0.23 -0.61 -0.00   -0.10  0.27  0.00   
      9   H               -0.18 -0.23  0.00   -0.16 -0.20  0.00    0.40  0.50  0.00   
     10   H               -0.18 -0.23  0.00    0.16  0.20  0.00    0.40  0.50  0.00   
     11   C               -0.00 -0.00 -0.00    0.00 -0.00 -0.00    0.00 -0.00  0.00   
     12   C               -0.00 -0.00 -0.00   -0.00  0.00 -0.00    0.00 -0.00 -0.00   
     13   H               -0.00  0.00  0.00   -0.00  0.01  0.00    0.00 -0.00 -0.00   
     14   H               -0.00  0.00  0.00    0.00 -0.01  0.00    0.00 -0.00 -0.00   
     15   C                0.00  0.00  0.00    0.00  0.00  0.00   -0.00  0.00 -0.00   
     16   C                0.00  0.00  0.00   -0.00 -0.00  0.00   -0.00  0.00 -0.00   
     17   H                0.00 -0.02 -0.00    0.00 -0.01 -0.00   -0.00  0.00  0.00   
     18   H                0.00 -0.02 -0.00   -0.00  0.01 -0.00   -0.00  0.00 -0.00   
     19   H               -0.03  0.01  0.00   -0.02  0.01  0.00    0.03 -0.01 -0.00   
     20   H               -0.03  0.01  0.00    0.02 -0.01  0.00    0.03 -0.01 -0.00   

  Vibration                       58                  59                  60          
  Freq [cm^-1]                3606.0939           3680.3045           3680.4215       
  Irrep                           Ag                  Ag                  Bu          
  Reduced mass [u]              1.0997              1.1197              1.1198        
  Force const [mDyne/A]         8.4257              8.9357              8.9369        
  Turning point v=0 [a0]        0.1742              0.1709              0.1709        
  RMS dev v=0 [a0 u^1/2]        0.1292              0.1279              0.1279        
  Char temp [K]               5188.3583           5295.1307           5295.2990       
  ----------------------------------------------------------------------------------
      1   C                0.00 -0.00  0.00    0.00  0.00 -0.00   -0.00 -0.00 -0.00   
      2   C               -0.00  0.00  0.00   -0.00 -0.00 -0.00   -0.00 -0.00  0.00   
      3   C                0.01 -0.02 -0.00    0.00 -0.00  0.00    0.00 -0.00  0.00   
      4   C               -0.01  0.02  0.00   -0.00  0.00  0.00    0.00 -0.00 -0.00   
      5   C               -0.04 -0.05 -0.00   -0.00 -0.00  0.00   -0.00 -0.00  0.00   
      6   C                0.04  0.05 -0.00    0.00  0.00 -0.00   -0.00 -0.00 -0.00   
      7   H               -0.09  0.24  0.00   -0.00  0.00  0.00   -0.00  0.00  0.00   
      8   H                0.09 -0.24 -0.00    0.00 -0.00 -0.00   -0.00  0.00  0.00   
      9   H                0.42  0.51  0.00    0.02  0.02 -0.00    0.01  0.02 -0.00   
     10   H               -0.42 -0.51  0.00   -0.02 -0.02  0.00    0.01  0.02  0.00   
     11   C                0.00 -0.00 -0.00    0.00 -0.00  0.00    0.00 -0.00  0.00   
     12   C               -0.00  0.00 -0.00   -0.00  0.00  0.00    0.00 -0.00  0.00   
     13   H                0.00  0.00  0.00   -0.00  0.03  0.00   -0.00  0.03 -0.00   
     14   H               -0.00 -0.00  0.00    0.00 -0.03 -0.00   -0.00  0.03  0.00   
     15   C               -0.00  0.00 -0.00    0.05 -0.05 -0.00    0.05 -0.05  0.00   
     16   C                0.00 -0.00  0.00   -0.05  0.05  0.00    0.05 -0.05 -0.00   
     17   H               -0.00  0.00  0.00   -0.09  0.50  0.00   -0.09  0.50 -0.00   
     18   H                0.00 -0.00 -0.00    0.09 -0.50 -0.00   -0.09  0.50 -0.00   
     19   H                0.03 -0.01 -0.00   -0.47  0.14 -0.00   -0.47  0.14  0.00   
     20   H               -0.03  0.01  0.00    0.47 -0.14  0.00   -0.47  0.14  0.00   

  ==> Thermochemistry Components <==

  Entropy, S
    Electronic S            0.000 [cal/(mol K)]        0.000 [J/(mol K)]       0.00000000 [mEh/K] (multiplicity = 1)
    Translational S        40.502 [cal/(mol K)]      169.460 [J/(mol K)]       0.06454389 [mEh/K] (mol. weight = 130.0783 [u], P = 101325.00 [Pa])
    Rotational S           28.143 [cal/(mol K)]      117.751 [J/(mol K)]       0.04484898 [mEh/K] (symmetry no. = 2)
    Vibrational S          14.373 [cal/(mol K)]       60.138 [J/(mol K)]       0.02290540 [mEh/K]
  Total S                  83.018 [cal/(mol K)]      347.349 [J/(mol K)]       0.13229827 [mEh/K]
  Correction S              0.000 [cal/(mol K)]        0.000 [J/(mol K)]       0.00000000 [mEh/K]

  Constant volume heat capacity, Cv
    Electronic Cv           0.000 [cal/(mol K)]        0.000 [J/(mol K)]       0.00000000 [mEh/K]
    Translational Cv        2.981 [cal/(mol K)]       12.472 [J/(mol K)]       0.00475022 [mEh/K]
    Rotational Cv           2.981 [cal/(mol K)]       12.472 [J/(mol K)]       0.00475022 [mEh/K]
    Vibrational Cv         22.922 [cal/(mol K)]       95.907 [J/(mol K)]       0.03652910 [mEh/K]
  Total Cv                 28.884 [cal/(mol K)]      120.851 [J/(mol K)]       0.04602955 [mEh/K]
  Correction Cv             0.000 [cal/(mol K)]        0.000 [J/(mol K)]       0.00000000 [mEh/K]

  Constant pressure heat capacity, Cp
    Electronic Cp           0.000 [cal/(mol K)]        0.000 [J/(mol K)]       0.00000000 [mEh/K]
    Translational Cp        4.968 [cal/(mol K)]       20.786 [J/(mol K)]       0.00791704 [mEh/K]
    Rotational Cp           2.981 [cal/(mol K)]       12.472 [J/(mol K)]       0.00475022 [mEh/K]
    Vibrational Cp         22.922 [cal/(mol K)]       95.907 [J/(mol K)]       0.03652910 [mEh/K]
  Total Cp                 30.871 [cal/(mol K)]      129.165 [J/(mol K)]       0.04919636 [mEh/K]
  Correction Cp             0.000 [cal/(mol K)]        0.000 [J/(mol K)]       0.00000000 [mEh/K]

  ==> Thermochemistry Energy Analysis <==

  Raw electronic energy, E0
  Total E0, Electronic energy at well bottom at 0 [K]                 -379.77011151 [Eh]

  Zero-point energy, ZPE_vib = Sum_i nu_i / 2
    Electronic ZPE          0.000 [kcal/mol]        0.000 [kJ/mol]       0.00000000 [Eh]
    Translational ZPE       0.000 [kcal/mol]        0.000 [kJ/mol]       0.00000000 [Eh]
    Rotational ZPE          0.000 [kcal/mol]        0.000 [kJ/mol]       0.00000000 [Eh]
    Vibrational ZPE       120.281 [kcal/mol]      503.254 [kJ/mol]       0.19167937 [Eh]       42068.752 [cm^-1]
  Correction ZPE          120.281 [kcal/mol]      503.254 [kJ/mol]       0.19167937 [Eh]       42068.752 [cm^-1]
  Total ZPE, Electronic energy at 0 [K]                               -379.57843215 [Eh]

  Thermal Energy, E (includes ZPE)
    Electronic E            0.000 [kcal/mol]        0.000 [kJ/mol]       0.00000000 [Eh]
    Translational E         0.889 [kcal/mol]        3.718 [kJ/mol]       0.00141628 [Eh]
    Rotational E            0.889 [kcal/mol]        3.718 [kJ/mol]       0.00141628 [Eh]
    Vibrational E         123.027 [kcal/mol]      514.744 [kJ/mol]       0.19605552 [Eh]
  Correction E            124.804 [kcal/mol]      522.181 [kJ/mol]       0.19888808 [Eh]
  Total E, Electronic energy at  298.15 [K]                           -379.57122344 [Eh]

  Enthalpy, H_trans = E_trans + k_B * T
    Electronic H            0.000 [kcal/mol]        0.000 [kJ/mol]       0.00000000 [Eh]
    Translational H         1.481 [kcal/mol]        6.197 [kJ/mol]       0.00236046 [Eh]
    Rotational H            0.889 [kcal/mol]        3.718 [kJ/mol]       0.00141628 [Eh]
    Vibrational H         123.027 [kcal/mol]      514.744 [kJ/mol]       0.19605552 [Eh]
  Correction H            125.397 [kcal/mol]      524.660 [kJ/mol]       0.19983226 [Eh]
  Total H, Enthalpy at  298.15 [K]                                    -379.57027925 [Eh]

  Gibbs free energy, G = H - T * S
    Electronic G            0.000 [kcal/mol]        0.000 [kJ/mol]       0.00000000 [Eh]
    Translational G       -10.594 [kcal/mol]      -44.327 [kJ/mol]      -0.01688330 [Eh]
    Rotational G           -7.502 [kcal/mol]      -31.389 [kJ/mol]      -0.01195544 [Eh]
    Vibrational G         118.741 [kcal/mol]      496.814 [kJ/mol]       0.18922627 [Eh]
  Correction G            100.645 [kcal/mol]      421.097 [kJ/mol]       0.16038753 [Eh]
  Total G, Free enthalpy at  298.15 [K]                               -379.60972398 [Eh]

    Psi4 stopped on: Saturday, 07 March 2020 11:53PM
    Psi4 wall time for execution: 0:06:11.26

*** Psi4 exiting successfully. Buy a developer a beer!
