
    -----------------------------------------------------------------------
          Psi4: An Open-Source Ab Initio Electronic Structure Package
                               Psi4 1.2.1 release

                         Git: Rev {HEAD} 406f4de 


    R. M. Parrish, L. A. Burns, D. G. A. Smith, A. C. Simmonett,
    A. E. DePrince III, E. G. Hohenstein, U. Bozkaya, A. Yu. Sokolov,
    R. Di Remigio, R. M. Richard, J. F. Gonthier, A. M. James,
    H. R. McAlexander, A. Kumar, M. Saitow, X. Wang, B. P. Pritchard,
    P. Verma, H. F. Schaefer III, K. Patkowski, R. A. King, E. F. Valeev,
    F. A. Evangelista, J. M. Turney, T. D. Crawford, and C. D. Sherrill,
    J. Chem. Theory Comput. 13(7) pp 3185--3197 (2017).
    (doi: 10.1021/acs.jctc.7b00174)


                         Additional Contributions by
    P. Kraus, H. Kruse, M. H. Lechner, M. C. Schieber, and R. A. Shaw

    -----------------------------------------------------------------------


    Psi4 started on: Friday, 24 August 2018 06:36PM

    Process ID: 24261
    Host:       gold
    PSIDATADIR: /home/eric/opt/apps/python/psi4conda/share/psi4
    Memory:     500.0 MiB
    Threads:    1
    
  ==> Input File <==

--------------------------------------------------------------------------
molecule dvb {
    1 2
    C    -1.4152533224   0.2302217854   0.0000000000
    C     1.4152533224  -0.2302217854   0.0000000000
    C    -0.4951331558   1.3144608674   0.0000000000
    C     0.4951331558  -1.3144608674   0.0000000000
    C     0.8894090436   1.0909493743   0.0000000000
    C    -0.8894090436  -1.0909493743   0.0000000000
    H    -0.8795511985   2.3437343748   0.0000000000
    H     0.8795511985  -2.3437343748   0.0000000000
    H     1.5779041557   1.9450061275   0.0000000000
    H    -1.5779041557  -1.9450061275   0.0000000000
    C     2.8845844962  -0.5210893778   0.0000000000
    C    -2.8845844962   0.5210893778   0.0000000000
    H     3.1403356810  -1.5919605685   0.0000000000
    H    -3.1403356810   1.5919605685   0.0000000000
    C     3.8800428103   0.3822535424   0.0000000000
    C    -3.8800428103  -0.3822535424   0.0000000000
    H     3.6946765858   1.4624389570   0.0000000000
    H    -3.6946765858  -1.4624389570   0.0000000000
    H     4.9316453546   0.0711049543   0.0000000000
    H    -4.9316453546  -0.0711049543   0.0000000000
}

set {
    basis sto-3g
    reference uhf
    print_basis true
    print_mos true
}

b3lyp_e, b3lyp_wfn = energy('b3lyp', return_wfn=True)
oeprop(b3lyp_wfn, 'MULLIKEN_CHARGES', 'LOWDIN_CHARGES', 'MULTIPOLES(5)')
--------------------------------------------------------------------------

*** tstart() called on gold
*** at Fri Aug 24 18:36:46 2018

   => Loading Basis Set <=

    Name: STO-3G
    Role: ORBITAL
    Keyword: BASIS
    atoms 1-6, 11-12, 15-16  entry C          line    61 file /home/eric/opt/apps/python/psi4conda/share/psi4/basis/sto-3g.gbs 
    atoms 7-10, 13-14, 17-20 entry H          line    19 file /home/eric/opt/apps/python/psi4conda/share/psi4/basis/sto-3g.gbs 


         ---------------------------------------------------------
                                   SCF
            by Justin Turney, Rob Parrish, Andy Simmonett
                             and Daniel Smith
                              UKS Reference
                        1 Threads,    500 MiB Core
         ---------------------------------------------------------

  ==> Geometry <==

    Molecular point group: c2h
    Full point group: C2h

    Geometry (in Angstrom), charge = 1, multiplicity = 2:

       Center              X                  Y                   Z               Mass       
    ------------   -----------------  -----------------  -----------------  -----------------
         C           -1.415253322400     0.230221785400     0.000000000000    12.000000000000
         C            1.415253322400    -0.230221785400     0.000000000000    12.000000000000
         C           -0.495133155800     1.314460867400     0.000000000000    12.000000000000
         C            0.495133155800    -1.314460867400     0.000000000000    12.000000000000
         C            0.889409043600     1.090949374300     0.000000000000    12.000000000000
         C           -0.889409043600    -1.090949374300     0.000000000000    12.000000000000
         H           -0.879551198500     2.343734374800     0.000000000000     1.007825032070
         H            0.879551198500    -2.343734374800     0.000000000000     1.007825032070
         H            1.577904155700     1.945006127500     0.000000000000     1.007825032070
         H           -1.577904155700    -1.945006127500     0.000000000000     1.007825032070
         C            2.884584496200    -0.521089377800     0.000000000000    12.000000000000
         C           -2.884584496200     0.521089377800     0.000000000000    12.000000000000
         H            3.140335681000    -1.591960568500     0.000000000000     1.007825032070
         H           -3.140335681000     1.591960568500     0.000000000000     1.007825032070
         C            3.880042810300     0.382253542400     0.000000000000    12.000000000000
         C           -3.880042810300    -0.382253542400     0.000000000000    12.000000000000
         H            3.694676585800     1.462438957000     0.000000000000     1.007825032070
         H           -3.694676585800    -1.462438957000     0.000000000000     1.007825032070
         H            4.931645354600     0.071104954300     0.000000000000     1.007825032070
         H           -4.931645354600    -0.071104954300     0.000000000000     1.007825032070

  Running in c2h symmetry.

  Rotational constants: A =      0.15403  B =      0.02287  C =      0.01992 [cm^-1]
  Rotational constants: A =   4617.84332  B =    685.76183  C =    597.09209 [MHz]
  Nuclear repulsion =  445.936978114243459

  Charge       = 1
  Multiplicity = 2
  Electrons    = 69
  Nalpha       = 35
  Nbeta        = 34

  ==> Algorithm <==

  SCF Algorithm Type is DF.
  DIIS enabled.
  MOM disabled.
  Fractional occupation disabled.
  Guess Type is GWH.
  Energy threshold   = 1.00e-06
  Density threshold  = 1.00e-06
  Integral threshold = 0.00e+00

  ==> Primary Basis <==

  Basis Set: STO-3G
    Blend: STO-3G
    Number of shells: 40
    Number of basis function: 60
    Number of Cartesian functions: 60
    Spherical Harmonics?: true
    Max angular momentum: 1

  ==> DFT Potential <==

   => Composite Functional: B3LYP <= 

    B3LYP Hyb-GGA Exchange-Correlation Functional

    P. J. Stephens, F. J. Devlin, C. F. Chabalowski, and M. J. Frisch, J. Phys. Chem. 98, 11623 (1994)

    Deriv               =              1
    GGA                 =           TRUE
    Meta                =          FALSE

    Exchange Hybrid     =           TRUE
    MP2 Hybrid          =          FALSE

   => Exchange Functionals <=

    0.0800   Slater exchange
    0.7200         Becke 88

   => Exact (HF) Exchange <=

    0.2000               HF 

   => Correlation Functionals <=

    0.1900   Vosko, Wilk & Nusair (VWN5_RPA)
    0.8100   Lee, Yang & Parr

   => Molecular Quadrature <=

    Radial Scheme       =       TREUTLER
    Pruning Scheme      =           FLAT
    Nuclear Scheme      =       TREUTLER

    BS radius alpha     =              1
    Pruning alpha       =              1
    Radial Points       =             75
    Spherical Points    =            302
    Total Points        =         438996
    Total Blocks        =           3340
    Max Points          =            256
    Max Functions       =             56

   => Loading Basis Set <=

    Name: (STO-3G AUX)
    Role: JKFIT
    Keyword: DF_BASIS_SCF
    atoms 1-6, 11-12, 15-16  entry C          line   203 file /home/eric/opt/apps/python/psi4conda/share/psi4/basis/def2-svp-jkfit.gbs 
    atoms 7-10, 13-14, 17-20 entry H          line    23 file /home/eric/opt/apps/python/psi4conda/share/psi4/basis/def2-svp-jkfit.gbs 

  -AO BASIS SET INFORMATION:
    Name                   = STO-3G
    Blend                  = STO-3G
    Total number of shells = 40
    Number of primitives   = 120
    Number of AO           = 60
    Number of SO           = 60
    Maximum AM             = 1
    Spherical Harmonics    = TRUE

  -Contraction Scheme:
    Atom   Type   All Primitives // Shells:
   ------ ------ --------------------------
       1     C     6s 3p // 2s 1p 
       2     C     6s 3p // 2s 1p 
       3     C     6s 3p // 2s 1p 
       4     C     6s 3p // 2s 1p 
       5     C     6s 3p // 2s 1p 
       6     C     6s 3p // 2s 1p 
       7     H     3s // 1s 
       8     H     3s // 1s 
       9     H     3s // 1s 
      10     H     3s // 1s 
      11     C     6s 3p // 2s 1p 
      12     C     6s 3p // 2s 1p 
      13     H     3s // 1s 
      14     H     3s // 1s 
      15     C     6s 3p // 2s 1p 
      16     C     6s 3p // 2s 1p 
      17     H     3s // 1s 
      18     H     3s // 1s 
      19     H     3s // 1s 
      20     H     3s // 1s 

  ==> AO Basis Functions <==

    [ STO-3G ]
    spherical
    ****
    C   1
    S   3 1.00
                        71.61683700           0.15432897
                        13.04509600           0.53532814
                         3.53051220           0.44463454
    S   3 1.00
                         2.94124940          -0.09996723
                         0.68348310           0.39951283
                         0.22228990           0.70011547
    P   3 1.00
                         2.94124940           0.15591627
                         0.68348310           0.60768372
                         0.22228990           0.39195739
    ****
    C   3
    S   3 1.00
                        71.61683700           0.15432897
                        13.04509600           0.53532814
                         3.53051220           0.44463454
    S   3 1.00
                         2.94124940          -0.09996723
                         0.68348310           0.39951283
                         0.22228990           0.70011547
    P   3 1.00
                         2.94124940           0.15591627
                         0.68348310           0.60768372
                         0.22228990           0.39195739
    ****
    C   5
    S   3 1.00
                        71.61683700           0.15432897
                        13.04509600           0.53532814
                         3.53051220           0.44463454
    S   3 1.00
                         2.94124940          -0.09996723
                         0.68348310           0.39951283
                         0.22228990           0.70011547
    P   3 1.00
                         2.94124940           0.15591627
                         0.68348310           0.60768372
                         0.22228990           0.39195739
    ****
    H   7
    S   3 1.00
                         3.42525091           0.15432897
                         0.62391373           0.53532814
                         0.16885540           0.44463454
    ****
    H   9
    S   3 1.00
                         3.42525091           0.15432897
                         0.62391373           0.53532814
                         0.16885540           0.44463454
    ****
    C  11
    S   3 1.00
                        71.61683700           0.15432897
                        13.04509600           0.53532814
                         3.53051220           0.44463454
    S   3 1.00
                         2.94124940          -0.09996723
                         0.68348310           0.39951283
                         0.22228990           0.70011547
    P   3 1.00
                         2.94124940           0.15591627
                         0.68348310           0.60768372
                         0.22228990           0.39195739
    ****
    H  13
    S   3 1.00
                         3.42525091           0.15432897
                         0.62391373           0.53532814
                         0.16885540           0.44463454
    ****
    C  15
    S   3 1.00
                        71.61683700           0.15432897
                        13.04509600           0.53532814
                         3.53051220           0.44463454
    S   3 1.00
                         2.94124940          -0.09996723
                         0.68348310           0.39951283
                         0.22228990           0.70011547
    P   3 1.00
                         2.94124940           0.15591627
                         0.68348310           0.60768372
                         0.22228990           0.39195739
    ****
    H  17
    S   3 1.00
                         3.42525091           0.15432897
                         0.62391373           0.53532814
                         0.16885540           0.44463454
    ****
    H  19
    S   3 1.00
                         3.42525091           0.15432897
                         0.62391373           0.53532814
                         0.16885540           0.44463454
    ****

  ==> Pre-Iterations <==

   -------------------------------------------------------
    Irrep   Nso     Nmo     Nalpha   Nbeta   Ndocc  Nsocc
   -------------------------------------------------------
     Ag        25      25       0       0       0       0
     Bg         5       5       0       0       0       0
     Au         5       5       0       0       0       0
     Bu        25      25       0       0       0       0
   -------------------------------------------------------
    Total      60      60      35      34      34       1
   -------------------------------------------------------

  ==> Integral Setup <==

  DFHelper Memory: AOs need 0.031 [GiB]; user supplied 0.366 [GiB]. Using in-core AOs.

  ==> MemDFJK: Density-Fitted J/K Matrices <==

    J tasked:                   Yes
    K tasked:                   Yes
    wK tasked:                   No
    OpenMP threads:               1
    Memory (MB):                375
    Algorithm:                 Core
    Schwarz Cutoff:           1E-12
    Mask sparsity (%):       4.1111
    Fitting Condition:        1E-12

   => Auxiliary Basis Set <=

  Basis Set: (STO-3G AUX)
    Blend: DEF2-SVP-JKFIT
    Number of shells: 310
    Number of basis function: 930
    Number of Cartesian functions: 1090
    Spherical Harmonics?: true
    Max angular momentum: 4

  Minimum eigenvalue in the overlap matrix is 1.8147107108E-01.
  Using Symmetric Orthogonalization.

  SCF Guess: Generalized Wolfsberg-Helmholtz.

  ==> Iterations <==

                           Total Energy        Delta E     RMS |[F,P]|

    Occupation by irrep:
             Ag    Bg    Au    Bu 
    DOCC [    15,    2,    2,   15 ]
    SOCC [     0,    1,    0,    0 ]

   @DF-UKS iter   1:  -380.89013880093285   -3.80890e+02   5.12375e-02 
   @DF-UKS iter   2:  -381.09044655639445   -2.00308e-01   2.91319e-02 DIIS
   @DF-UKS iter   3:  -381.29080870254074   -2.00362e-01   2.63086e-02 DIIS
   @DF-UKS iter   4:  -382.06283819372015   -7.72029e-01   4.42593e-03 DIIS
   @DF-UKS iter   5:  -382.07446980660256   -1.16316e-02   2.91593e-03 DIIS
   @DF-UKS iter   6:  -382.08303818411105   -8.56838e-03   5.89025e-04 DIIS
   @DF-UKS iter   7:  -382.08370292811856   -6.64744e-04   3.59166e-04 DIIS
   @DF-UKS iter   8:  -382.08395786720189   -2.54939e-04   2.11658e-04 DIIS
   @DF-UKS iter   9:  -382.08408569147491   -1.27824e-04   8.22654e-05 DIIS
   @DF-UKS iter  10:  -382.08410464412964   -1.89527e-05   3.97739e-05 DIIS
   @DF-UKS iter  11:  -382.08410922420649   -4.58008e-06   1.04581e-05 DIIS
   @DF-UKS iter  12:  -382.08410940474914   -1.80543e-07   4.74084e-06 DIIS
   @DF-UKS iter  13:  -382.08410944015077   -3.54016e-08   1.14338e-06 DIIS
   @DF-UKS iter  14:  -382.08410944295110   -2.80033e-09   3.13710e-07 DIIS

  ==> Post-Iterations <==

   @Spin Contamination Metric:   2.777318936E-02
   @S^2 Expected:                7.500000000E-01
   @S^2 Observed:                7.777731894E-01
   @S   Expected:                5.000000000E-01
   @S   Observed:                5.000000000E-01

    Orbital Energies [Eh]
    ---------------------

    Alpha Occupied:                                                       

       1Bu   -10.253862     1Ag   -10.253812     2Bu   -10.219794  
       2Ag   -10.219753     3Bu   -10.218333     3Ag   -10.218235  
       4Bu   -10.217851     4Ag   -10.217847     5Bu   -10.215527  
       5Ag   -10.215526     6Ag    -1.020772     6Bu    -0.961941  
       7Ag    -0.921638     7Bu    -0.899269     8Bu    -0.876744  
       8Ag    -0.787127     9Ag    -0.759879     9Bu    -0.722513  
      10Ag    -0.703603    11Ag    -0.650481    10Bu    -0.634983  
      11Bu    -0.604004    12Bu    -0.596096    12Ag    -0.587826  
      13Bu    -0.568859    14Bu    -0.552252    13Ag    -0.537112  
       1Au    -0.533640    15Bu    -0.501065    14Ag    -0.493313  
      15Ag    -0.482726     1Bg    -0.473621     2Au    -0.417915  
       2Bg    -0.394351     3Bg    -0.369713  

    Alpha Virtual:                                                        

       3Au    -0.177449     4Au    -0.111529     4Bg    -0.094356  
       5Au    -0.029620     5Bg     0.059962    16Ag     0.139704  
      16Bu     0.148995    17Bu     0.179248    17Ag     0.196441  
      18Ag     0.214669    18Bu     0.220338    19Ag     0.239662  
      19Bu     0.240563    20Bu     0.262992    20Ag     0.285296  
      21Ag     0.319779    21Bu     0.344272    22Ag     0.379980  
      22Bu     0.397829    23Bu     0.425459    23Ag     0.438158  
      24Ag     0.477752    24Bu     0.506042    25Ag     0.567614  
      25Bu     0.581738  

    Beta Occupied:                                                        

       1Bu   -10.250886     1Ag   -10.250840     2Bu   -10.219468  
       2Ag   -10.219431     3Ag   -10.218696     3Bu   -10.218695  
       4Bu   -10.218128     4Ag   -10.218025     5Ag   -10.211062  
       5Bu   -10.211062     6Ag    -1.014718     6Bu    -0.954504  
       7Ag    -0.913763     7Bu    -0.897619     8Bu    -0.864547  
       8Ag    -0.781840     9Ag    -0.755815     9Bu    -0.718616  
      10Ag    -0.700471    11Ag    -0.648283    10Bu    -0.632912  
      11Bu    -0.601294    12Bu    -0.593264    12Ag    -0.584927  
      13Bu    -0.568155    14Bu    -0.549303    13Ag    -0.535161  
       1Au    -0.517369    15Bu    -0.499448    14Ag    -0.491808  
      15Ag    -0.481158     1Bg    -0.450802     2Bg    -0.391168  
       2Au    -0.388746  

    Beta Virtual:                                                         

       3Bg    -0.300480     3Au    -0.147017     4Au    -0.103424  
       4Bg    -0.073648     5Au    -0.008256     5Bg     0.076152  
      16Ag     0.142156    16Bu     0.150869    17Bu     0.181147  
      17Ag     0.197918    18Ag     0.220336    18Bu     0.225725  
      19Bu     0.242012    19Ag     0.246315    20Bu     0.270006  
      20Ag     0.290444    21Ag     0.323507    21Bu     0.347725  
      22Ag     0.381476    22Bu     0.400009    23Bu     0.429781  
      23Ag     0.440725    24Ag     0.481531    24Bu     0.511458  
      25Ag     0.571352    25Bu     0.584878  

    Final Occupation by Irrep:
             Ag    Bg    Au    Bu 
    DOCC [    15,    2,    2,   15 ]
    SOCC [     0,    1,    0,    0 ]

  Energy converged.

  @DF-UKS Final Energy:  -382.08410944295110

   => Energetics <=

    Nuclear Repulsion Energy =            445.9369781142434590
    One-Electron Energy =               -1386.6343722150681970
    Two-Electron Energy =                 605.0060149694853635
    DFT Exchange-Correlation Energy =     -46.3927303116117784
    Empirical Dispersion Energy =           0.0000000000000000
    VV10 Nonlocal Energy =                  0.0000000000000000
    Total Energy =                       -382.0841094429512168


  UHF NO Occupations:
  HONO-2 :    2 Bg 1.9974737
  HONO-1 :    2 Au 1.9899391
  HONO-0 :    3 Bg 1.0000000
  LUNO+0 :    3 Au 0.0100609
  LUNO+1 :    4 Bg 0.0025263
  LUNO+2 :    4 Au 0.0008987
  LUNO+3 :   16 Ag 0.0000999



Properties will be evaluated at   0.000000,   0.000000,   0.000000 [a0]

Properties computed using the SCF density matrix

  Nuclear Dipole Moment: [e a0]
     X:     0.0000      Y:    -0.0000      Z:     0.0000

  Electronic Dipole Moment: [e a0]
     X:     0.0000      Y:     0.0000      Z:     0.0000

  Dipole Moment: [e a0]
     X:     0.0000      Y:    -0.0000      Z:     0.0000     Total:     0.0000

  Dipole Moment: [D]
     X:     0.0000      Y:    -0.0000      Z:     0.0000     Total:     0.0000


  ==> Alpha-Spin Molecular Orbitals <==

                            1            2            3            4            5

 1    C1 s0         0.7002685    0.7002922    0.0099095    0.0062200    0.0057741
 2    C1 s0         0.0312628    0.0310686   -0.0075792   -0.0040934   -0.0046681
 3    C1 p0         0.0000000    0.0000000    0.0000000    0.0000000    0.0000000
 4    C1 p+1        0.0010238    0.0007504   -0.0024092   -0.0008521   -0.0025862
 5    C1 p-1       -0.0000442    0.0000057    0.0032160    0.0048272   -0.0040499
 6    C2 s0        -0.7002685    0.7002922   -0.0099095    0.0062200   -0.0057741
 7    C2 s0        -0.0312628    0.0310686    0.0075792   -0.0040934    0.0046681
 8    C2 p0         0.0000000    0.0000000    0.0000000    0.0000000    0.0000000
 9    C2 p+1        0.0010238   -0.0007504   -0.0024092    0.0008521   -0.0025862
 10   C2 p-1       -0.0000442   -0.0000057    0.0032160   -0.0048272   -0.0040499
 11   C3 s0        -0.0070228   -0.0074461    0.1556302   -0.1800579    0.6827880
 12   C3 s0        -0.0071257   -0.0065326    0.0134920   -0.0141729    0.0287401
 13   C3 p0         0.0000000    0.0000000    0.0000000    0.0000000    0.0000000
 14   C3 p+1        0.0026965    0.0029172    0.0043543   -0.0043184   -0.0004773
 15   C3 p-1        0.0035409    0.0033641   -0.0010600    0.0009902   -0.0009059
 16   C4 s0         0.0070228   -0.0074461   -0.1556302   -0.1800579   -0.6827880
 17   C4 s0         0.0071257   -0.0065326   -0.0134920   -0.0141729   -0.0287401
 18   C4 p0         0.0000000    0.0000000    0.0000000    0.0000000    0.0000000
 19   C4 p+1        0.0026965   -0.0029172    0.0043543    0.0043184   -0.0004773
 20   C4 p-1        0.0035409   -0.0033641   -0.0010600   -0.0009902   -0.0009059
 21   C5 s0         0.0073456   -0.0077264   -0.6826785    0.6766722    0.1566272
 22   C5 s0         0.0070945   -0.0064848   -0.0317787    0.0314717    0.0003423
 23   C5 p0         0.0000000    0.0000000    0.0000000    0.0000000    0.0000000
 24   C5 p+1        0.0014273   -0.0017043    0.0017729   -0.0017253    0.0041021
 25   C5 p-1       -0.0041883    0.0040716    0.0007412   -0.0004282   -0.0007585
 26   C6 s0        -0.0073456   -0.0077264    0.6826785    0.6766722   -0.1566272
 27   C6 s0        -0.0070945   -0.0064848    0.0317787    0.0314717   -0.0003423
 28   C6 p0         0.0000000    0.0000000    0.0000000    0.0000000    0.0000000
 29   C6 p+1        0.0014273    0.0017043    0.0017729    0.0017253    0.0041021
 30   C6 p-1       -0.0041883   -0.0040716    0.0007412    0.0004282   -0.0007585
 31   H7 s0         0.0002229    0.0001108   -0.0015682    0.0016691   -0.0060393
 32   H8 s0        -0.0002229    0.0001108    0.0015682    0.0016691    0.0060393
 33   H9 s0        -0.0002182    0.0001087    0.0061597   -0.0061706   -0.0012234
 34   H10 s0        0.0002182    0.0001087   -0.0061597   -0.0061706    0.0012234
 35   C11 s0        0.0088365   -0.0089456    0.0017224   -0.0040140    0.0134277
 36   C11 s0        0.0058776   -0.0059397   -0.0001604   -0.0001053    0.0004485
 37   C11 p0        0.0000000    0.0000000    0.0000000    0.0000000    0.0000000
 38   C11 p+1      -0.0039859    0.0040287    0.0000532    0.0000511    0.0000416
 39   C11 p-1       0.0008653   -0.0008736   -0.0000668    0.0001166    0.0000051
 40   C12 s0       -0.0088365   -0.0089456   -0.0017224   -0.0040140   -0.0134277
 41   C12 s0       -0.0058776   -0.0059397    0.0001604   -0.0001053   -0.0004485
 42   C12 p0        0.0000000    0.0000000    0.0000000    0.0000000    0.0000000
 43   C12 p+1      -0.0039859   -0.0040287    0.0000532   -0.0000511    0.0000416
 44   C12 p-1       0.0008653    0.0008736   -0.0000668   -0.0001166    0.0000051
 45   H13 s0       -0.0001536    0.0001616    0.0000268   -0.0000123   -0.0000757
 46   H14 s0        0.0001536    0.0001616   -0.0000268   -0.0000123    0.0000757
 47   C15 s0       -0.0000366    0.0000436    0.0027243   -0.0020416   -0.0004413
 48   C15 s0       -0.0002729    0.0002730    0.0001917   -0.0001319   -0.0001165
 49   C15 p0        0.0000000    0.0000000    0.0000000    0.0000000    0.0000000
 50   C15 p+1       0.0001898   -0.0001947   -0.0000687    0.0000374    0.0000400
 51   C15 p-1      -0.0000832    0.0000837    0.0000516   -0.0000527    0.0000407
 52   C16 s0        0.0000366    0.0000436   -0.0027243   -0.0020416    0.0004413
 53   C16 s0        0.0002729    0.0002730   -0.0001917   -0.0001319    0.0001165
 54   C16 p0        0.0000000    0.0000000    0.0000000    0.0000000    0.0000000
 55   C16 p+1       0.0001898    0.0001947   -0.0000687   -0.0000374    0.0000400
 56   C16 p-1      -0.0000832   -0.0000837    0.0000516    0.0000527    0.0000407
 57   H17 s0        0.0001406   -0.0001331   -0.0001926    0.0001908    0.0000260
 58   H18 s0       -0.0001406   -0.0001331    0.0001926    0.0001908   -0.0000260
 59   H19 s0        0.0000238   -0.0000229   -0.0000026    0.0000017    0.0000038
 60   H20 s0       -0.0000238   -0.0000229    0.0000026    0.0000017   -0.0000038

            Ene   -10.2538621  -10.2538116  -10.2197943  -10.2197533  -10.2183332
            Sym            Bu           Ag           Bu           Ag           Bu
            Occ             1            1            1            1            1


                            6            7            8            9           10

 1    C1 s0         0.0096288    0.0099893    0.0107986    0.0008578    0.0009038
 2    C1 s0        -0.0067072   -0.0051808   -0.0056231   -0.0002475   -0.0002698
 3    C1 p0         0.0000000    0.0000000    0.0000000    0.0000000    0.0000000
 4    C1 p+1       -0.0034762    0.0040087    0.0037617    0.0002437    0.0002333
 5    C1 p-1       -0.0021264   -0.0006952   -0.0007601   -0.0000662   -0.0000729
 6    C2 s0         0.0096288   -0.0099893    0.0107986   -0.0008578    0.0009038
 7    C2 s0        -0.0067072    0.0051808   -0.0056231    0.0002475   -0.0002698
 8    C2 p0         0.0000000    0.0000000    0.0000000    0.0000000    0.0000000
 9    C2 p+1        0.0034762    0.0040087   -0.0037617    0.0002437   -0.0002333
 10   C2 p-1        0.0021264   -0.0006952    0.0007601   -0.0000662    0.0000729
 11   C3 s0         0.6749169    0.0133253    0.0521138    0.0013338    0.0037181
 12   C3 s0         0.0280382    0.0006789    0.0021539    0.0000712    0.0000553
 13   C3 p0         0.0000000    0.0000000    0.0000000    0.0000000    0.0000000
 14   C3 p+1       -0.0007303   -0.0000268   -0.0001555    0.0000918    0.0000071
 15   C3 p-1       -0.0005371   -0.0000009    0.0000689    0.0000033    0.0000237
 16   C4 s0         0.6749169   -0.0133253    0.0521138   -0.0013338    0.0037181
 17   C4 s0         0.0280382   -0.0006789    0.0021539   -0.0000712    0.0000553
 18   C4 p0         0.0000000    0.0000000    0.0000000    0.0000000    0.0000000
 19   C4 p+1        0.0007303   -0.0000268    0.0001555    0.0000918   -0.0000071
 20   C4 p-1        0.0005371   -0.0000009   -0.0000689    0.0000033   -0.0000237
 21   C5 s0         0.1801080    0.0016602    0.0178078   -0.0026435    0.0034698
 22   C5 s0         0.0017003   -0.0002245    0.0004015   -0.0000897    0.0000572
 23   C5 p0         0.0000000    0.0000000    0.0000000    0.0000000    0.0000000
 24   C5 p+1        0.0040747    0.0000260    0.0004362    0.0001118   -0.0000636
 25   C5 p-1       -0.0007343   -0.0000334    0.0000236   -0.0000068    0.0000046
 26   C6 s0         0.1801080   -0.0016602    0.0178078    0.0026435    0.0034698
 27   C6 s0         0.0017003    0.0002245    0.0004015    0.0000897    0.0000572
 28   C6 p0         0.0000000    0.0000000    0.0000000    0.0000000    0.0000000
 29   C6 p+1       -0.0040747    0.0000260   -0.0004362    0.0001118    0.0000636
 30   C6 p-1        0.0007343   -0.0000334   -0.0000236   -0.0000068   -0.0000046
 31   H7 s0        -0.0060977   -0.0001280   -0.0004966   -0.0000226   -0.0000471
 32   H8 s0        -0.0060977    0.0001280   -0.0004966    0.0000226   -0.0000471
 33   H9 s0        -0.0015890    0.0001354   -0.0003259   -0.0000737    0.0000655
 34   H10 s0       -0.0015890   -0.0001354   -0.0003259    0.0000737    0.0000655
 35   C11 s0       -0.0551828   -0.6976784    0.6956036   -0.0610170    0.0611186
 36   C11 s0       -0.0023239   -0.0312702    0.0311732    0.0046771   -0.0046734
 37   C11 p0        0.0000000    0.0000000    0.0000000    0.0000000    0.0000000
 38   C11 p+1      -0.0000316   -0.0012352    0.0012489    0.0033312   -0.0033293
 39   C11 p-1      -0.0000977   -0.0011668    0.0011615    0.0030708   -0.0030704
 40   C12 s0       -0.0551828    0.6976784    0.6956036    0.0610170    0.0611186
 41   C12 s0       -0.0023239    0.0312702    0.0311732   -0.0046771   -0.0046734
 42   C12 p0        0.0000000    0.0000000    0.0000000    0.0000000    0.0000000
 43   C12 p+1       0.0000316   -0.0012352   -0.0012489    0.0033312    0.0033293
 44   C12 p-1       0.0000977   -0.0011668   -0.0011615    0.0030708    0.0030704
 45   H13 s0        0.0004164    0.0063230   -0.0063099    0.0004266   -0.0004282
 46   H14 s0        0.0004164   -0.0063230   -0.0063099   -0.0004266   -0.0004282
 47   C15 s0        0.0002945    0.0601467   -0.0604162   -0.6979227    0.6979019
 48   C15 s0        0.0005155    0.0099282   -0.0099238   -0.0302714    0.0302689
 49   C15 p0        0.0000000    0.0000000    0.0000000    0.0000000    0.0000000
 50   C15 p+1      -0.0001852   -0.0035304    0.0035268    0.0008342   -0.0008332
 51   C15 p-1      -0.0002511   -0.0031213    0.0031119    0.0007628   -0.0007623
 52   C16 s0        0.0002945   -0.0601467   -0.0604162    0.6979227    0.6979019
 53   C16 s0        0.0005155   -0.0099282   -0.0099238    0.0302714    0.0302689
 54   C16 p0        0.0000000    0.0000000    0.0000000    0.0000000    0.0000000
 55   C16 p+1       0.0001852   -0.0035304   -0.0035268    0.0008342    0.0008332
 56   C16 p-1       0.0002511   -0.0031213   -0.0031119    0.0007628    0.0007623
 57   H17 s0        0.0000048   -0.0006679    0.0006726    0.0063141   -0.0063139
 58   H18 s0        0.0000048    0.0006679    0.0006726   -0.0063141   -0.0063139
 59   H19 s0       -0.0000329   -0.0006839    0.0006844    0.0062984   -0.0062983
 60   H20 s0       -0.0000329    0.0006839    0.0006844   -0.0062984   -0.0062983

            Ene   -10.2182350  -10.2178509  -10.2178474  -10.2155267  -10.2155265
            Sym            Ag           Bu           Ag           Bu           Ag
            Occ             1            1            1            1            1


                           11           12           13           14           15

 1    C1 s0         0.1123601    0.1122949    0.0052689    0.0174212    0.0954033
 2    C1 s0        -0.2906210   -0.3021411   -0.0173240   -0.0483085   -0.2668772
 3    C1 p0         0.0000000    0.0000000    0.0000000    0.0000000    0.0000000
 4    C1 p+1       -0.0478411    0.0254853    0.1005033   -0.0277635   -0.0670594
 5    C1 p-1        0.0075904   -0.0008176   -0.0090081   -0.1352762    0.0267257
 6    C2 s0         0.1123601   -0.1122949    0.0052689   -0.0174212   -0.0954033
 7    C2 s0        -0.2906210    0.3021411   -0.0173240    0.0483085    0.2668772
 8    C2 p0         0.0000000    0.0000000    0.0000000    0.0000000    0.0000000
 9    C2 p+1        0.0478411    0.0254853   -0.1005033   -0.0277635   -0.0670594
 10   C2 p-1       -0.0075904   -0.0008176    0.0090081   -0.1352762    0.0267257
 11   C3 s0         0.0956315    0.0408134   -0.0439232    0.1345611    0.0323148
 12   C3 s0        -0.2392144   -0.1057770    0.1147790   -0.3639402   -0.0882148
 13   C3 p0         0.0000000    0.0000000    0.0000000    0.0000000    0.0000000
 14   C3 p+1       -0.0122220    0.0621069    0.0345383   -0.0512228    0.0874893
 15   C3 p-1        0.0611327    0.0334826   -0.0200204    0.0114110    0.0406843
 16   C4 s0         0.0956315   -0.0408134   -0.0439232   -0.1345611   -0.0323148
 17   C4 s0        -0.2392144    0.1057770    0.1147790    0.3639402    0.0882148
 18   C4 p0         0.0000000    0.0000000    0.0000000    0.0000000    0.0000000
 19   C4 p+1        0.0122220    0.0621069   -0.0345383   -0.0512228    0.0874893
 20   C4 p-1       -0.0611327    0.0334826    0.0200204    0.0114110    0.0406843
 21   C5 s0         0.0961584   -0.0466950   -0.0388520    0.1182699   -0.0749068
 22   C5 s0        -0.2411756    0.1218136    0.1011871   -0.3204166    0.2052999
 23   C5 p0         0.0000000    0.0000000    0.0000000    0.0000000    0.0000000
 24   C5 p+1        0.0302175    0.0483074   -0.0468721    0.0692498    0.0391799
 25   C5 p-1        0.0543557   -0.0515209   -0.0060746   -0.0256853   -0.0573521
 26   C6 s0         0.0961584    0.0466950   -0.0388520   -0.1182699    0.0749068
 27   C6 s0        -0.2411756   -0.1218136    0.1011871    0.3204166   -0.2052999
 28   C6 p0         0.0000000    0.0000000    0.0000000    0.0000000    0.0000000
 29   C6 p+1       -0.0302175    0.0483074    0.0468721    0.0692498    0.0391799
 30   C6 p-1       -0.0543557   -0.0515209    0.0060746   -0.0256853   -0.0573521
 31   H7 s0        -0.0373824   -0.0235190    0.0191135   -0.0869846   -0.0208830
 32   H8 s0        -0.0373824    0.0235190    0.0191135    0.0869846    0.0208830
 33   H9 s0        -0.0385934    0.0285454    0.0129923   -0.0788009    0.0469640
 34   H10 s0       -0.0385934   -0.0285454    0.0129923    0.0788009   -0.0469640
 35   C11 s0        0.0465529   -0.1081229    0.1194863    0.0023086    0.0615622
 36   C11 s0       -0.1180727    0.2789241   -0.3123606   -0.0051864   -0.1622370
 37   C11 p0        0.0000000    0.0000000    0.0000000    0.0000000    0.0000000
 38   C11 p+1       0.0289985   -0.0131925   -0.0579054   -0.0232734   -0.1240463
 39   C11 p-1      -0.0147213    0.0399989   -0.0562396   -0.0246861   -0.0465804
 40   C12 s0        0.0465529    0.1081229    0.1194863   -0.0023086   -0.0615622
 41   C12 s0       -0.1180727   -0.2789241   -0.3123606    0.0051864    0.1622370
 42   C12 p0        0.0000000    0.0000000    0.0000000    0.0000000    0.0000000
 43   C12 p+1      -0.0289985   -0.0131925    0.0579054   -0.0232734   -0.1240463
 44   C12 p-1       0.0147213    0.0399989    0.0562396   -0.0246861   -0.0465804
 45   H13 s0       -0.0203581    0.0542294   -0.0656804    0.0070328   -0.0380165
 46   H14 s0       -0.0203581   -0.0542294   -0.0656804   -0.0070328    0.0380165
 47   C15 s0        0.0227901   -0.0762473    0.1201377    0.0185186    0.1138562
 48   C15 s0       -0.0588094    0.2008923   -0.3225053   -0.0496568   -0.3135570
 49   C15 p0        0.0000000    0.0000000    0.0000000    0.0000000    0.0000000
 50   C15 p+1       0.0204158   -0.0533724    0.0636133    0.0090111    0.0330754
 51   C15 p-1       0.0121261   -0.0374048    0.0536371    0.0009422    0.0425463
 52   C16 s0        0.0227901    0.0762473    0.1201377   -0.0185186   -0.1138562
 53   C16 s0       -0.0588094   -0.2008923   -0.3225053    0.0496568    0.3135570
 54   C16 p0        0.0000000    0.0000000    0.0000000    0.0000000    0.0000000
 55   C16 p+1      -0.0204158   -0.0533724   -0.0636133    0.0090111    0.0330754
 56   C16 p-1      -0.0121261   -0.0374048   -0.0536371    0.0009422    0.0425463
 57   H17 s0       -0.0111862    0.0400304   -0.0669224   -0.0149577   -0.0690556
 58   H18 s0       -0.0111862   -0.0400304   -0.0669224    0.0149577    0.0690556
 59   H19 s0       -0.0080091    0.0338532   -0.0635368   -0.0100012   -0.0743809
 60   H20 s0       -0.0080091   -0.0338532   -0.0635368    0.0100012    0.0743809

            Ene    -1.0207719   -0.9619407   -0.9216381   -0.8992685   -0.8767441
            Sym            Ag           Bu           Ag           Bu           Bu
            Occ             1            1            1            1            1


                           16           17           18           19           20

 1    C1 s0         0.0750340    0.0527929    0.0087803    0.0494113    0.0307354
 2    C1 s0        -0.2240632   -0.1601644   -0.0248324   -0.1508173   -0.1037102
 3    C1 p0         0.0000000    0.0000000    0.0000000    0.0000000    0.0000000
 4    C1 p+1        0.0799502    0.0731931   -0.1613105   -0.1622763    0.1265842
 5    C1 p-1       -0.1324347    0.2043360    0.0624370   -0.0099187   -0.0531145
 6    C2 s0         0.0750340    0.0527929   -0.0087803    0.0494113    0.0307354
 7    C2 s0        -0.2240632   -0.1601644    0.0248324   -0.1508173   -0.1037102
 8    C2 p0         0.0000000    0.0000000    0.0000000    0.0000000    0.0000000
 9    C2 p+1       -0.0799502   -0.0731931   -0.1613105    0.1622763   -0.1265842
 10   C2 p-1        0.1324347   -0.2043360    0.0624370    0.0099187    0.0531145
 11   C3 s0         0.0005827   -0.1130719    0.0500408   -0.0158502    0.0165060
 12   C3 s0        -0.0028725    0.3343555   -0.1535963    0.0545655   -0.0622313
 13   C3 p0         0.0000000    0.0000000    0.0000000    0.0000000    0.0000000
 14   C3 p+1        0.1708138   -0.0370001   -0.0005718    0.0845646    0.1357605
 15   C3 p-1        0.0307101    0.0575306    0.0129468    0.1904618   -0.1321576
 16   C4 s0         0.0005827   -0.1130719   -0.0500408   -0.0158502    0.0165060
 17   C4 s0        -0.0028725    0.3343555    0.1535963    0.0545655   -0.0622313
 18   C4 p0         0.0000000    0.0000000    0.0000000    0.0000000    0.0000000
 19   C4 p+1       -0.1708138    0.0370001   -0.0005718   -0.0845646   -0.1357605
 20   C4 p-1       -0.0307101   -0.0575306    0.0129468   -0.1904618    0.1321576
 21   C5 s0        -0.0866437    0.0570150   -0.0298853   -0.0528822   -0.0153315
 22   C5 s0         0.2490807   -0.1698820    0.0914985    0.1707290    0.0421310
 23   C5 p0         0.0000000    0.0000000    0.0000000    0.0000000    0.0000000
 24   C5 p+1       -0.0321719   -0.1788413    0.0786950    0.0287585   -0.1315175
 25   C5 p-1        0.0574649    0.0886657   -0.0432246    0.2035097   -0.0916819
 26   C6 s0        -0.0866437    0.0570150    0.0298853   -0.0528822   -0.0153315
 27   C6 s0         0.2490807   -0.1698820   -0.0914985    0.1707290    0.0421310
 28   C6 p0         0.0000000    0.0000000    0.0000000    0.0000000    0.0000000
 29   C6 p+1        0.0321719    0.1788413    0.0786950   -0.0287585    0.1315175
 30   C6 p-1       -0.0574649   -0.0886657   -0.0432246   -0.2035097    0.0916819
 31   H7 s0        -0.0157921    0.1442433   -0.0420692    0.1023768   -0.1223713
 32   H8 s0        -0.0157921    0.1442433    0.0420692    0.1023768   -0.1223713
 33   H9 s0         0.0966570   -0.0771478    0.0475576    0.1547964   -0.0883806
 34   H10 s0        0.0966570   -0.0771478   -0.0475576    0.1547964   -0.0883806
 35   C11 s0        0.0491212    0.0052556    0.1000433   -0.0600670   -0.0491038
 36   C11 s0       -0.1481870   -0.0174670   -0.3092592    0.1855686    0.1580356
 37   C11 p0        0.0000000    0.0000000    0.0000000    0.0000000    0.0000000
 38   C11 p+1       0.1368884    0.0811527    0.0617811   -0.0170278    0.1822207
 39   C11 p-1       0.0758754   -0.0424433    0.1097751   -0.0610178   -0.1081566
 40   C12 s0        0.0491212    0.0052556   -0.1000433   -0.0600670   -0.0491038
 41   C12 s0       -0.1481870   -0.0174670    0.3092592    0.1855686    0.1580356
 42   C12 p0        0.0000000    0.0000000    0.0000000    0.0000000    0.0000000
 43   C12 p+1      -0.1368884   -0.0811527    0.0617811    0.0170278   -0.1822207
 44   C12 p-1      -0.0758754    0.0424433    0.1097751    0.0610178    0.1081566
 45   H13 s0       -0.0656782    0.0280633   -0.1528289    0.0999192    0.1458771
 46   H14 s0       -0.0656782    0.0280633    0.1528289    0.0999192    0.1458771
 47   C15 s0       -0.0813229   -0.0402378   -0.0849729    0.0549863    0.0245784
 48   C15 s0        0.2389580    0.1225264    0.2683685   -0.1774748   -0.0912089
 49   C15 p0        0.0000000    0.0000000    0.0000000    0.0000000    0.0000000
 50   C15 p+1       0.0264455    0.0416182    0.0878564   -0.0776832   -0.0133060
 51   C15 p-1       0.0250684   -0.0169316    0.1174159   -0.0741915   -0.2282636
 52   C16 s0       -0.0813229   -0.0402378    0.0849729    0.0549863    0.0245784
 53   C16 s0        0.2389580    0.1225264   -0.2683685   -0.1774748   -0.0912089
 54   C16 p0        0.0000000    0.0000000    0.0000000    0.0000000    0.0000000
 55   C16 p+1      -0.0264455   -0.0416182    0.0878564    0.0776832    0.0133060
 56   C16 p-1      -0.0250684    0.0169316    0.1174159    0.0741915    0.2282636
 57   H17 s0        0.0861275    0.0222260    0.1472491   -0.0878047   -0.1779372
 58   H18 s0        0.0861275    0.0222260   -0.1472491   -0.0878047   -0.1779372
 59   H19 s0        0.0795865    0.0573839    0.1145008   -0.0879664   -0.0037299
 60   H20 s0        0.0795865    0.0573839   -0.1145008   -0.0879664   -0.0037299

            Ene    -0.7871270   -0.7598788   -0.7225126   -0.7036033   -0.6504811
            Sym            Ag           Ag           Bu           Ag           Ag
            Occ             1            1            1            1            1


                           21           22           23           24           25

 1    C1 s0         0.0160639    0.0501737    0.0494100    0.0176162    0.0036409
 2    C1 s0        -0.0565677   -0.1752222   -0.1731763   -0.0601280   -0.0130317
 3    C1 p0         0.0000000    0.0000000    0.0000000    0.0000000    0.0000000
 4    C1 p+1        0.1475595    0.0721879   -0.1549275    0.0021266   -0.1035431
 5    C1 p-1        0.1739053   -0.1814624    0.1444786   -0.0108372   -0.1020944
 6    C2 s0        -0.0160639   -0.0501737   -0.0494100    0.0176162   -0.0036409
 7    C2 s0         0.0565677    0.1752222    0.1731763   -0.0601280    0.0130317
 8    C2 p0         0.0000000    0.0000000    0.0000000    0.0000000    0.0000000
 9    C2 p+1        0.1475595    0.0721879   -0.1549275   -0.0021266   -0.1035431
 10   C2 p-1        0.1739053   -0.1814624    0.1444786    0.0108372   -0.1020944
 11   C3 s0        -0.0159249   -0.0485139   -0.0267263   -0.0245612    0.0212987
 12   C3 s0         0.0544166    0.1665780    0.0959922    0.0830820   -0.0657092
 13   C3 p0         0.0000000    0.0000000    0.0000000    0.0000000    0.0000000
 14   C3 p+1       -0.2150196    0.0894174   -0.0799500    0.0706645   -0.1197386
 15   C3 p-1       -0.0238853    0.1835457    0.1149116   -0.0069402    0.3345129
 16   C4 s0         0.0159249    0.0485139    0.0267263   -0.0245612   -0.0212987
 17   C4 s0        -0.0544166   -0.1665780   -0.0959922    0.0830820    0.0657092
 18   C4 p0         0.0000000    0.0000000    0.0000000    0.0000000    0.0000000
 19   C4 p+1       -0.2150196    0.0894174   -0.0799500   -0.0706645   -0.1197386
 20   C4 p-1       -0.0238853    0.1835457    0.1149116    0.0069402    0.3345129
 21   C5 s0         0.0368756    0.0486361    0.0182618    0.0205347    0.0163758
 22   C5 s0        -0.1203754   -0.1682396   -0.0685436   -0.0762624   -0.0515370
 23   C5 p0         0.0000000    0.0000000    0.0000000    0.0000000    0.0000000
 24   C5 p+1        0.1415309   -0.1800500   -0.0576183   -0.1287827    0.1928364
 25   C5 p-1       -0.1045060    0.0139097   -0.2841744   -0.0355171    0.1961428
 26   C6 s0        -0.0368756   -0.0486361   -0.0182618    0.0205347   -0.0163758
 27   C6 s0         0.1203754    0.1682396    0.0685436   -0.0762624    0.0515370
 28   C6 p0         0.0000000    0.0000000    0.0000000    0.0000000    0.0000000
 29   C6 p+1        0.1415309   -0.1800500   -0.0576183    0.1287827    0.1928364
 30   C6 p-1       -0.1045060    0.0139097   -0.2841744    0.0355171    0.1961428
 31   H7 s0         0.0614484    0.1743540    0.1402083    0.0080484    0.2482391
 32   H8 s0        -0.0614484   -0.1743540   -0.1402083    0.0080484   -0.2482391
 33   H9 s0        -0.0378778   -0.1374088   -0.2339871   -0.1032062    0.1908991
 34   H10 s0        0.0378778    0.1374088    0.2339871   -0.1032062   -0.1908991
 35   C11 s0       -0.0121953    0.0124798    0.0053407   -0.0220669   -0.0036939
 36   C11 s0        0.0357253   -0.0336161   -0.0188126    0.0621384    0.0085536
 37   C11 p0        0.0000000    0.0000000    0.0000000    0.0000000    0.0000000
 38   C11 p+1      -0.0965716   -0.2086072    0.1072611    0.0584914    0.0884744
 39   C11 p-1       0.2114340   -0.0044646    0.0014801    0.2659288    0.0176195
 40   C12 s0        0.0121953   -0.0124798   -0.0053407   -0.0220669    0.0036939
 41   C12 s0       -0.0357253    0.0336161    0.0188126    0.0621384   -0.0085536
 42   C12 p0        0.0000000    0.0000000    0.0000000    0.0000000    0.0000000
 43   C12 p+1      -0.0965716   -0.2086072    0.1072611   -0.0584914    0.0884744
 44   C12 p-1       0.2114340   -0.0044646    0.0014801   -0.2659288    0.0176195
 45   H13 s0       -0.1365354   -0.0539073   -0.0026869   -0.1504356   -0.0060391
 46   H14 s0        0.1365354    0.0539073    0.0026869   -0.1504356    0.0060391
 47   C15 s0        0.0144124   -0.0149064   -0.0049611    0.0028404    0.0035741
 48   C15 s0       -0.0533342    0.0639629    0.0116587   -0.0248833   -0.0181259
 49   C15 p0        0.0000000    0.0000000    0.0000000    0.0000000    0.0000000
 50   C15 p+1      -0.1995206    0.0652026    0.0858645   -0.3507517   -0.0421144
 51   C15 p-1       0.0810497    0.2031487   -0.1753005    0.0003054   -0.0888693
 52   C16 s0       -0.0144124    0.0149064    0.0049611    0.0028404   -0.0035741
 53   C16 s0        0.0533342   -0.0639629   -0.0116587   -0.0248833    0.0181259
 54   C16 p0        0.0000000    0.0000000    0.0000000    0.0000000    0.0000000
 55   C16 p+1      -0.1995206    0.0652026    0.0858645    0.3507517   -0.0421144
 56   C16 p-1       0.0810497    0.2031487   -0.1753005   -0.0003054   -0.0888693
 57   H17 s0        0.0513341    0.1439570   -0.1437453    0.0215421   -0.0538486
 58   H18 s0       -0.0513341   -0.1439570    0.1437453    0.0215421    0.0538486
 59   H19 s0       -0.1513216    0.0278159    0.0955164   -0.2461932   -0.0188515
 60   H20 s0        0.1513216   -0.0278159   -0.0955164   -0.2461932    0.0188515

            Ene    -0.6349834   -0.6040036   -0.5960960   -0.5878262   -0.5688587
            Sym            Bu           Bu           Bu           Ag           Bu
            Occ             1            1            1            1            1


                           26           27           28           29           30

 1    C1 s0         0.0054213    0.0232780    0.0000000    0.0140673    0.0051644
 2    C1 s0        -0.0201637   -0.0852947    0.0000000   -0.0589243   -0.0270078
 3    C1 p0         0.0000000    0.0000000    0.3620447    0.0000000    0.0000000
 4    C1 p+1        0.1632915   -0.0370091    0.0000000    0.2190745    0.2471428
 5    C1 p-1        0.1351315    0.0945651    0.0000000   -0.0826843    0.1822248
 6    C2 s0        -0.0054213    0.0232780    0.0000000   -0.0140673    0.0051644
 7    C2 s0         0.0201637   -0.0852947    0.0000000    0.0589243   -0.0270078
 8    C2 p0         0.0000000    0.0000000    0.3620447    0.0000000    0.0000000
 9    C2 p+1        0.1632915    0.0370091    0.0000000    0.2190745   -0.2471428
 10   C2 p-1        0.1351315   -0.0945651    0.0000000   -0.0826843   -0.1822248
 11   C3 s0        -0.0121656    0.0087366    0.0000000   -0.0037744    0.0003920
 12   C3 s0         0.0460054   -0.0403466    0.0000000    0.0104583   -0.0038068
 13   C3 p0         0.0000000    0.0000000    0.2854431    0.0000000    0.0000000
 14   C3 p+1       -0.2201153    0.1706832    0.0000000    0.0469527   -0.2445797
 15   C3 p-1       -0.0423164   -0.1416402    0.0000000   -0.0543161   -0.1726813
 16   C4 s0         0.0121656    0.0087366    0.0000000    0.0037744    0.0003920
 17   C4 s0        -0.0460054   -0.0403466    0.0000000   -0.0104583   -0.0038068
 18   C4 p0         0.0000000    0.0000000    0.2854431    0.0000000    0.0000000
 19   C4 p+1       -0.2201153   -0.1706832    0.0000000    0.0469527    0.2445797
 20   C4 p-1       -0.0423164    0.1416402    0.0000000   -0.0543161    0.1726813
 21   C5 s0         0.0090326   -0.0091889    0.0000000    0.0101803    0.0036787
 22   C5 s0        -0.0261876    0.0308807    0.0000000   -0.0358320   -0.0041109
 23   C5 p0         0.0000000    0.0000000    0.2874713    0.0000000    0.0000000
 24   C5 p+1        0.2106157   -0.1692236    0.0000000   -0.0098285    0.2173677
 25   C5 p-1       -0.0255545    0.0679371    0.0000000    0.1265584    0.1433360
 26   C6 s0        -0.0090326   -0.0091889    0.0000000   -0.0101803    0.0036787
 27   C6 s0         0.0261876    0.0308807    0.0000000    0.0358320   -0.0041109
 28   C6 p0         0.0000000    0.0000000    0.2874713    0.0000000    0.0000000
 29   C6 p+1        0.2106157    0.1692236    0.0000000   -0.0098285   -0.2173677
 30   C6 p-1       -0.0255545   -0.0679371    0.0000000    0.1265584   -0.1433360
 31   H7 s0         0.0430270   -0.1701797    0.0000000   -0.0394133   -0.0744677
 32   H8 s0        -0.0430270   -0.1701797    0.0000000    0.0394133   -0.0744677
 33   H9 s0         0.0729172   -0.0043771    0.0000000    0.0404646    0.2596531
 34   H10 s0       -0.0729172   -0.0043771    0.0000000   -0.0404646    0.2596531
 35   C11 s0        0.0008263   -0.0236223    0.0000000    0.0052780    0.0139200
 36   C11 s0        0.0132584    0.0967387    0.0000000   -0.0254545   -0.0593919
 37   C11 p0        0.0000000    0.0000000    0.1635930    0.0000000    0.0000000
 38   C11 p+1      -0.1677058   -0.1180605    0.0000000   -0.1392564    0.2108863
 39   C11 p-1      -0.2162468   -0.1931853    0.0000000    0.2354846   -0.0392239
 40   C12 s0       -0.0008263   -0.0236223    0.0000000   -0.0052780    0.0139200
 41   C12 s0       -0.0132584    0.0967387    0.0000000    0.0254545   -0.0593919
 42   C12 p0        0.0000000    0.0000000    0.1635930    0.0000000    0.0000000
 43   C12 p+1      -0.1677058    0.1180605    0.0000000   -0.1392564   -0.2108863
 44   C12 p-1      -0.2162468    0.1931853    0.0000000    0.2354846    0.0392239
 45   H13 s0        0.1392037    0.1727361    0.0000000   -0.2604452    0.0534901
 46   H14 s0       -0.1392037    0.1727361    0.0000000    0.2604452    0.0534901
 47   C15 s0        0.0128778    0.0097017    0.0000000   -0.0066970   -0.0046769
 48   C15 s0       -0.0299411   -0.0239897    0.0000000    0.0245709    0.0096995
 49   C15 p0        0.0000000    0.0000000    0.0926386    0.0000000    0.0000000
 50   C15 p+1       0.2835610   -0.0423883    0.0000000    0.1486041   -0.1520264
 51   C15 p-1       0.0913578    0.2944427    0.0000000   -0.2338745   -0.0146231
 52   C16 s0       -0.0128778    0.0097017    0.0000000    0.0066970   -0.0046769
 53   C16 s0        0.0299411   -0.0239897    0.0000000   -0.0245709    0.0096995
 54   C16 p0        0.0000000    0.0000000    0.0926386    0.0000000    0.0000000
 55   C16 p+1       0.2835610    0.0423883    0.0000000    0.1486041    0.1520264
 56   C16 p-1       0.0913578   -0.2944427    0.0000000   -0.2338745    0.0146231
 57   H17 s0        0.0316244    0.2376603    0.0000000   -0.2353773    0.0516343
 58   H18 s0       -0.0316244    0.2376603    0.0000000    0.2353773    0.0516343
 59   H19 s0        0.1782794   -0.1146152    0.0000000    0.2048835   -0.1278980
 60   H20 s0       -0.1782794   -0.1146152    0.0000000   -0.2048835   -0.1278980

            Ene    -0.5522516   -0.5371123   -0.5336405   -0.5010654   -0.4933134
            Sym            Bu           Ag           Au           Bu           Ag
            Occ             1            1            1            1            1


                           31           32           33           34           35

 1    C1 s0         0.0113080    0.0000000    0.0000000    0.0000000    0.0000000
 2    C1 s0        -0.0508974    0.0000000    0.0000000    0.0000000    0.0000000
 3    C1 p0         0.0000000    0.3837542    0.0286349    0.0055025    0.3778210
 4    C1 p+1        0.1363868    0.0000000    0.0000000    0.0000000    0.0000000
 5    C1 p-1       -0.2568210    0.0000000    0.0000000    0.0000000    0.0000000
 6    C2 s0         0.0113080    0.0000000    0.0000000    0.0000000    0.0000000
 7    C2 s0        -0.0508974    0.0000000    0.0000000    0.0000000    0.0000000
 8    C2 p0         0.0000000   -0.3837542    0.0286349   -0.0055025   -0.3778210
 9    C2 p+1       -0.1363868    0.0000000    0.0000000    0.0000000    0.0000000
 10   C2 p-1        0.2568210    0.0000000    0.0000000    0.0000000    0.0000000
 11   C3 s0         0.0057292    0.0000000    0.0000000    0.0000000    0.0000000
 12   C3 s0        -0.0131385    0.0000000    0.0000000    0.0000000    0.0000000
 13   C3 p0         0.0000000    0.1342605    0.1690121    0.4608853    0.1939371
 14   C3 p+1       -0.0886232    0.0000000    0.0000000    0.0000000    0.0000000
 15   C3 p-1        0.2019618    0.0000000    0.0000000    0.0000000    0.0000000
 16   C4 s0         0.0057292    0.0000000    0.0000000    0.0000000    0.0000000
 17   C4 s0        -0.0131385    0.0000000    0.0000000    0.0000000    0.0000000
 18   C4 p0         0.0000000   -0.1342605    0.1690121   -0.4608853   -0.1939371
 19   C4 p+1        0.0886232    0.0000000    0.0000000    0.0000000    0.0000000
 20   C4 p-1       -0.2019618    0.0000000    0.0000000    0.0000000    0.0000000
 21   C5 s0        -0.0022156    0.0000000    0.0000000    0.0000000    0.0000000
 22   C5 s0         0.0044600    0.0000000    0.0000000    0.0000000    0.0000000
 23   C5 p0         0.0000000   -0.1401637    0.1678466    0.4603515   -0.2012248
 24   C5 p+1        0.1101685    0.0000000    0.0000000    0.0000000    0.0000000
 25   C5 p-1       -0.2514171    0.0000000    0.0000000    0.0000000    0.0000000
 26   C6 s0        -0.0022156    0.0000000    0.0000000    0.0000000    0.0000000
 27   C6 s0         0.0044600    0.0000000    0.0000000    0.0000000    0.0000000
 28   C6 p0         0.0000000    0.1401637    0.1678466   -0.4603515    0.2012248
 29   C6 p+1       -0.1101685    0.0000000    0.0000000    0.0000000    0.0000000
 30   C6 p-1        0.2514171    0.0000000    0.0000000    0.0000000    0.0000000
 31   H7 s0         0.2344991    0.0000000    0.0000000    0.0000000    0.0000000
 32   H8 s0         0.2344991    0.0000000    0.0000000    0.0000000    0.0000000
 33   H9 s0        -0.1105819    0.0000000    0.0000000    0.0000000    0.0000000
 34   H10 s0       -0.1105819    0.0000000    0.0000000    0.0000000    0.0000000
 35   C11 s0        0.0076354    0.0000000    0.0000000    0.0000000    0.0000000
 36   C11 s0       -0.0248816    0.0000000    0.0000000    0.0000000    0.0000000
 37   C11 p0        0.0000000   -0.3429235   -0.3899068   -0.0048537    0.2282638
 38   C11 p+1       0.1379632    0.0000000    0.0000000    0.0000000    0.0000000
 39   C11 p-1      -0.1654789    0.0000000    0.0000000    0.0000000    0.0000000
 40   C12 s0        0.0076354    0.0000000    0.0000000    0.0000000    0.0000000
 41   C12 s0       -0.0248816    0.0000000    0.0000000    0.0000000    0.0000000
 42   C12 p0        0.0000000    0.3429235   -0.3899068    0.0048537   -0.2282638
 43   C12 p+1      -0.1379632    0.0000000    0.0000000    0.0000000    0.0000000
 44   C12 p-1       0.1654789    0.0000000    0.0000000    0.0000000    0.0000000
 45   H13 s0        0.2007497    0.0000000    0.0000000    0.0000000    0.0000000
 46   H14 s0        0.2007497    0.0000000    0.0000000    0.0000000    0.0000000
 47   C15 s0        0.0048097    0.0000000    0.0000000    0.0000000    0.0000000
 48   C15 s0       -0.0194040    0.0000000    0.0000000    0.0000000    0.0000000
 49   C15 p0        0.0000000   -0.2654438   -0.4475276    0.0049072    0.4294166
 50   C15 p+1      -0.0785469    0.0000000    0.0000000    0.0000000    0.0000000
 51   C15 p-1       0.1378308    0.0000000    0.0000000    0.0000000    0.0000000
 52   C16 s0        0.0048097    0.0000000    0.0000000    0.0000000    0.0000000
 53   C16 s0       -0.0194040    0.0000000    0.0000000    0.0000000    0.0000000
 54   C16 p0        0.0000000    0.2654438   -0.4475276   -0.0049072   -0.4294166
 55   C16 p+1       0.0785469    0.0000000    0.0000000    0.0000000    0.0000000
 56   C16 p-1      -0.1378308    0.0000000    0.0000000    0.0000000    0.0000000
 57   H17 s0        0.1412032    0.0000000    0.0000000    0.0000000    0.0000000
 58   H18 s0        0.1412032    0.0000000    0.0000000    0.0000000    0.0000000
 59   H19 s0       -0.1213566    0.0000000    0.0000000    0.0000000    0.0000000
 60   H20 s0       -0.1213566    0.0000000    0.0000000    0.0000000    0.0000000

            Ene    -0.4827260   -0.4736215   -0.4179146   -0.3943505   -0.3697132
            Sym            Ag           Bg           Au           Bg           Bg
            Occ             1            1            1            1            1


                           36           37           38           39           40

 1    C1 s0         0.0000000    0.0000000    0.0000000    0.0000000    0.0000000
 2    C1 s0         0.0000000    0.0000000    0.0000000    0.0000000    0.0000000
 3    C1 p0         0.4546084    0.0292510    0.0167522    0.4680634    0.5268744
 4    C1 p+1        0.0000000    0.0000000    0.0000000    0.0000000    0.0000000
 5    C1 p-1        0.0000000    0.0000000    0.0000000    0.0000000    0.0000000
 6    C2 s0         0.0000000    0.0000000    0.0000000    0.0000000    0.0000000
 7    C2 s0         0.0000000    0.0000000    0.0000000    0.0000000    0.0000000
 8    C2 p0         0.4546084    0.0292510   -0.0167522    0.4680634   -0.5268744
 9    C2 p+1        0.0000000    0.0000000    0.0000000    0.0000000    0.0000000
 10   C2 p-1        0.0000000    0.0000000    0.0000000    0.0000000    0.0000000
 11   C3 s0         0.0000000    0.0000000    0.0000000    0.0000000    0.0000000
 12   C3 s0         0.0000000    0.0000000    0.0000000    0.0000000    0.0000000
 13   C3 p0        -0.2571108   -0.5835659   -0.2453560   -0.1596449   -0.4729506
 14   C3 p+1        0.0000000    0.0000000    0.0000000    0.0000000    0.0000000
 15   C3 p-1        0.0000000    0.0000000    0.0000000    0.0000000    0.0000000
 16   C4 s0         0.0000000    0.0000000    0.0000000    0.0000000    0.0000000
 17   C4 s0         0.0000000    0.0000000    0.0000000    0.0000000    0.0000000
 18   C4 p0        -0.2571108   -0.5835659    0.2453560   -0.1596449    0.4729506
 19   C4 p+1        0.0000000    0.0000000    0.0000000    0.0000000    0.0000000
 20   C4 p-1        0.0000000    0.0000000    0.0000000    0.0000000    0.0000000
 21   C5 s0         0.0000000    0.0000000    0.0000000    0.0000000    0.0000000
 22   C5 s0         0.0000000    0.0000000    0.0000000    0.0000000    0.0000000
 23   C5 p0        -0.2988777    0.5524985    0.2354011   -0.1920961    0.4737862
 24   C5 p+1        0.0000000    0.0000000    0.0000000    0.0000000    0.0000000
 25   C5 p-1        0.0000000    0.0000000    0.0000000    0.0000000    0.0000000
 26   C6 s0         0.0000000    0.0000000    0.0000000    0.0000000    0.0000000
 27   C6 s0         0.0000000    0.0000000    0.0000000    0.0000000    0.0000000
 28   C6 p0        -0.2988777    0.5524985   -0.2354011   -0.1920961   -0.4737862
 29   C6 p+1        0.0000000    0.0000000    0.0000000    0.0000000    0.0000000
 30   C6 p-1        0.0000000    0.0000000    0.0000000    0.0000000    0.0000000
 31   H7 s0         0.0000000    0.0000000    0.0000000    0.0000000    0.0000000
 32   H8 s0         0.0000000    0.0000000    0.0000000    0.0000000    0.0000000
 33   H9 s0         0.0000000    0.0000000    0.0000000    0.0000000    0.0000000
 34   H10 s0        0.0000000    0.0000000    0.0000000    0.0000000    0.0000000
 35   C11 s0        0.0000000    0.0000000    0.0000000    0.0000000    0.0000000
 36   C11 s0        0.0000000    0.0000000    0.0000000    0.0000000    0.0000000
 37   C11 p0        0.2480455   -0.0054735   -0.5405538   -0.5538290    0.2920490
 38   C11 p+1       0.0000000    0.0000000    0.0000000    0.0000000    0.0000000
 39   C11 p-1       0.0000000    0.0000000    0.0000000    0.0000000    0.0000000
 40   C12 s0        0.0000000    0.0000000    0.0000000    0.0000000    0.0000000
 41   C12 s0        0.0000000    0.0000000    0.0000000    0.0000000    0.0000000
 42   C12 p0        0.2480455   -0.0054735    0.5405538   -0.5538290   -0.2920490
 43   C12 p+1       0.0000000    0.0000000    0.0000000    0.0000000    0.0000000
 44   C12 p-1       0.0000000    0.0000000    0.0000000    0.0000000    0.0000000
 45   H13 s0        0.0000000    0.0000000    0.0000000    0.0000000    0.0000000
 46   H14 s0        0.0000000    0.0000000    0.0000000    0.0000000    0.0000000
 47   C15 s0        0.0000000    0.0000000    0.0000000    0.0000000    0.0000000
 48   C15 s0        0.0000000    0.0000000    0.0000000    0.0000000    0.0000000
 49   C15 p0       -0.4140905   -0.0076244    0.5005451    0.3863693   -0.1557079
 50   C15 p+1       0.0000000    0.0000000    0.0000000    0.0000000    0.0000000
 51   C15 p-1       0.0000000    0.0000000    0.0000000    0.0000000    0.0000000
 52   C16 s0        0.0000000    0.0000000    0.0000000    0.0000000    0.0000000
 53   C16 s0        0.0000000    0.0000000    0.0000000    0.0000000    0.0000000
 54   C16 p0       -0.4140905   -0.0076244   -0.5005451    0.3863693    0.1557079
 55   C16 p+1       0.0000000    0.0000000    0.0000000    0.0000000    0.0000000
 56   C16 p-1       0.0000000    0.0000000    0.0000000    0.0000000    0.0000000
 57   H17 s0        0.0000000    0.0000000    0.0000000    0.0000000    0.0000000
 58   H18 s0        0.0000000    0.0000000    0.0000000    0.0000000    0.0000000
 59   H19 s0        0.0000000    0.0000000    0.0000000    0.0000000    0.0000000
 60   H20 s0        0.0000000    0.0000000    0.0000000    0.0000000    0.0000000

            Ene    -0.1774491   -0.1115285   -0.0943560   -0.0296198    0.0599619
            Sym            Au           Au           Bg           Au           Bg
            Occ             0            0            0            0            0


                           41           42           43           44           45

 1    C1 s0         0.0821106    0.0499711    0.0589039    0.0382603    0.0709469
 2    C1 s0        -0.4880114   -0.2939311   -0.3433475   -0.2345233   -0.4335662
 3    C1 p0         0.0000000    0.0000000    0.0000000    0.0000000    0.0000000
 4    C1 p+1        0.2938188    0.2224834    0.4467343   -0.1074609    0.1143138
 5    C1 p-1       -0.0925319   -0.2993774    0.1836858   -0.1106002    0.3278226
 6    C2 s0         0.0821106   -0.0499711   -0.0589039    0.0382603    0.0709469
 7    C2 s0        -0.4880114    0.2939311    0.3433475   -0.2345233   -0.4335662
 8    C2 p0         0.0000000    0.0000000    0.0000000    0.0000000    0.0000000
 9    C2 p+1       -0.2938188    0.2224834    0.4467343    0.1074609   -0.1143138
 10   C2 p-1        0.0925319   -0.2993774    0.1836858    0.1106002   -0.3278226
 11   C3 s0         0.0193462   -0.0171385   -0.0256169   -0.0758189    0.0663012
 12   C3 s0        -0.1190793    0.0983654    0.1532982    0.4673693   -0.4060747
 13   C3 p0         0.0000000    0.0000000    0.0000000    0.0000000    0.0000000
 14   C3 p+1        0.0185623    0.0437559    0.2588306   -0.1541694   -0.2348539
 15   C3 p-1       -0.2951891   -0.3398775    0.1893214   -0.0239171    0.0070686
 16   C4 s0         0.0193462    0.0171385    0.0256169   -0.0758189    0.0663012
 17   C4 s0        -0.1190793   -0.0983654   -0.1532982    0.4673693   -0.4060747
 18   C4 p0         0.0000000    0.0000000    0.0000000    0.0000000    0.0000000
 19   C4 p+1       -0.0185623    0.0437559    0.2588306    0.1541694    0.2348539
 20   C4 p-1        0.2951891   -0.3398775    0.1893214    0.0239171   -0.0070686
 21   C5 s0         0.0383460    0.0209699    0.0155267   -0.0286454   -0.1251991
 22   C5 s0        -0.2320721   -0.1233380   -0.0894107    0.1805475    0.7708792
 23   C5 p0         0.0000000    0.0000000    0.0000000    0.0000000    0.0000000
 24   C5 p+1       -0.0839216    0.0726511    0.2883064    0.2475015    0.0030146
 25   C5 p-1       -0.2075632   -0.2559890    0.3047102    0.1497140   -0.1237414
 26   C6 s0         0.0383460   -0.0209699   -0.0155267   -0.0286454   -0.1251991
 27   C6 s0        -0.2320721    0.1233380    0.0894107    0.1805475    0.7708792
 28   C6 p0         0.0000000    0.0000000    0.0000000    0.0000000    0.0000000
 29   C6 p+1        0.0839216    0.0726511    0.2883064   -0.2475015   -0.0030146
 30   C6 p-1        0.2075632   -0.2559890    0.3047102   -0.1497140    0.1237414
 31   H7 s0         0.3780976    0.2955177   -0.1670169   -0.3218643    0.1474389
 32   H8 s0         0.3780976   -0.2955177    0.1670169   -0.3218643    0.1474389
 33   H9 s0         0.3906113    0.2231962   -0.4000490   -0.3325506   -0.2701130
 34   H10 s0        0.3906113   -0.2231962    0.4000490   -0.3325506   -0.2701130
 35   C11 s0       -0.0604886    0.0202410    0.0999040    0.0537233   -0.0357012
 36   C11 s0        0.3475546   -0.1193904   -0.5872280   -0.3229133    0.2174717
 37   C11 p0        0.0000000    0.0000000    0.0000000    0.0000000    0.0000000
 38   C11 p+1      -0.3725088    0.2852401    0.3252492   -0.0761519   -0.2272485
 39   C11 p-1       0.2453016   -0.3273607    0.0164404    0.2941527   -0.1827466
 40   C12 s0       -0.0604886   -0.0202410   -0.0999040    0.0537233   -0.0357012
 41   C12 s0        0.3475546    0.1193904    0.5872280   -0.3229133    0.2174717
 42   C12 p0        0.0000000    0.0000000    0.0000000    0.0000000    0.0000000
 43   C12 p+1       0.3725088    0.2852401    0.3252492    0.0761519    0.2272485
 44   C12 p-1      -0.2453016   -0.3273607    0.0164404   -0.2941527    0.1827466
 45   H13 s0        0.1226231   -0.3538353    0.2677907    0.5207801   -0.2585776
 46   H14 s0        0.1226231    0.3538353   -0.2677907    0.5207801   -0.2585776
 47   C15 s0        0.0383698   -0.0097713   -0.0352885   -0.0222303   -0.0817318
 48   C15 s0       -0.2221954    0.0593861    0.2017190    0.1290312    0.5189708
 49   C15 p0        0.0000000    0.0000000    0.0000000    0.0000000    0.0000000
 50   C15 p+1      -0.1193197    0.1396951    0.0559053   -0.2104258    0.0416456
 51   C15 p-1       0.1550079   -0.3137401   -0.0551129    0.3057227    0.1614085
 52   C16 s0        0.0383698    0.0097713    0.0352885   -0.0222303   -0.0817318
 53   C16 s0       -0.2221954   -0.0593861   -0.2017190    0.1290312    0.5189708
 54   C16 p0        0.0000000    0.0000000    0.0000000    0.0000000    0.0000000
 55   C16 p+1       0.1193197    0.1396951    0.0559053    0.2104258   -0.0416456
 56   C16 p-1      -0.1550079   -0.3137401   -0.0551129   -0.3057227   -0.1614085
 57   H17 s0       -0.1324096    0.3229810   -0.0023690   -0.4030948   -0.3868117
 58   H18 s0       -0.1324096   -0.3229810    0.0023690   -0.4030948   -0.3868117
 59   H19 s0        0.3474768   -0.3047564   -0.2177450    0.2262479   -0.2568312
 60   H20 s0        0.3474768    0.3047564    0.2177450    0.2262479   -0.2568312

            Ene     0.1397041    0.1489949    0.1792479    0.1964413    0.2146688
            Sym            Ag           Bu           Bu           Ag           Ag
            Occ             0            0            0            0            0


                           46           47           48           49           50

 1    C1 s0         0.0839302    0.1174101    0.0170460    0.0583056    0.0257113
 2    C1 s0        -0.5051168   -0.7243286   -0.1128220   -0.3537343   -0.1634583
 3    C1 p0         0.0000000    0.0000000    0.0000000    0.0000000    0.0000000
 4    C1 p+1       -0.1083924   -0.1728546   -0.1968201   -0.1158181   -0.0365478
 5    C1 p-1        0.1486983   -0.0456339    0.0908944   -0.1924644   -0.3263464
 6    C2 s0        -0.0839302    0.1174101   -0.0170460   -0.0583056    0.0257113
 7    C2 s0         0.5051168   -0.7243286    0.1128220    0.3537343   -0.1634583
 8    C2 p0         0.0000000    0.0000000    0.0000000    0.0000000    0.0000000
 9    C2 p+1       -0.1083924    0.1728546   -0.1968201   -0.1158181    0.0365478
 10   C2 p-1        0.1486983    0.0456339    0.0908944   -0.1924644    0.3263464
 11   C3 s0        -0.0810862   -0.1021653   -0.0441364   -0.0586370   -0.0901560
 12   C3 s0         0.4843096    0.6386744    0.2757308    0.3612688    0.5738118
 13   C3 p0         0.0000000    0.0000000    0.0000000    0.0000000    0.0000000
 14   C3 p+1       -0.0806626   -0.2320222   -0.3032923   -0.1514898    0.1428985
 15   C3 p-1        0.1108507   -0.0447497    0.2568079   -0.1725315   -0.1485941
 16   C4 s0         0.0810862   -0.1021653    0.0441364    0.0586370   -0.0901560
 17   C4 s0        -0.4843096    0.6386744   -0.2757308   -0.3612688    0.5738118
 18   C4 p0         0.0000000    0.0000000    0.0000000    0.0000000    0.0000000
 19   C4 p+1       -0.0806626    0.2320222   -0.3032923   -0.1514898   -0.1428985
 20   C4 p-1        0.1108507    0.0447497    0.2568079   -0.1725315    0.1485941
 21   C5 s0         0.1058230   -0.0370574   -0.0097747    0.0530166    0.0899340
 22   C5 s0        -0.6433464    0.2346727    0.0705294   -0.3237835   -0.5744617
 23   C5 p0         0.0000000    0.0000000    0.0000000    0.0000000    0.0000000
 24   C5 p+1       -0.2194110    0.2464516   -0.0785297   -0.0898722    0.1752360
 25   C5 p-1        0.0441997   -0.2793741    0.2378338   -0.1452898   -0.0679690
 26   C6 s0        -0.1058230   -0.0370574    0.0097747   -0.0530166    0.0899340
 27   C6 s0         0.6433464    0.2346727   -0.0705294    0.3237835   -0.5744617
 28   C6 p0         0.0000000    0.0000000    0.0000000    0.0000000    0.0000000
 29   C6 p+1       -0.2194110   -0.2464516   -0.0785297   -0.0898722   -0.1752360
 30   C6 p-1        0.0441997    0.2793741    0.2378338   -0.1452898    0.0679690
 31   H7 s0        -0.4127163   -0.3400299   -0.5101345   -0.0661463   -0.1072691
 32   H8 s0         0.4127163   -0.3400299    0.5101345    0.0661463   -0.1072691
 33   H9 s0         0.4096602   -0.0925513   -0.1313482    0.4007923    0.2795994
 34   H10 s0       -0.4096602   -0.0925513    0.1313482   -0.4007923    0.2795994
 35   C11 s0        0.0180579   -0.0798962   -0.0661100    0.0765605   -0.0259392
 36   C11 s0       -0.1151036    0.4833108    0.4196140   -0.4693269    0.1862719
 37   C11 p0        0.0000000    0.0000000    0.0000000    0.0000000    0.0000000
 38   C11 p+1       0.1193266    0.0008628   -0.0444686   -0.1375059   -0.0716383
 39   C11 p-1       0.1352711   -0.0997984   -0.2588164    0.0368551   -0.0646704
 40   C12 s0       -0.0180579   -0.0798962    0.0661100   -0.0765605   -0.0259392
 41   C12 s0        0.1151036    0.4833108   -0.4196140    0.4693269    0.1862719
 42   C12 p0        0.0000000    0.0000000    0.0000000    0.0000000    0.0000000
 43   C12 p+1       0.1193266   -0.0008628   -0.0444686   -0.1375059    0.0716383
 44   C12 p-1       0.1352711    0.0997984   -0.2588164    0.0368551    0.0646704
 45   H13 s0        0.1318624   -0.3467182   -0.4583148    0.3119391   -0.0949390
 46   H14 s0       -0.1318624   -0.3467182    0.4583148   -0.3119391   -0.0949390
 47   C15 s0        0.0762679    0.0746553   -0.0439338   -0.1164855   -0.0814500
 48   C15 s0       -0.4815907   -0.4606657    0.2843232    0.7381307    0.5245405
 49   C15 p0        0.0000000    0.0000000    0.0000000    0.0000000    0.0000000
 50   C15 p+1      -0.0722413    0.0516363    0.3406864   -0.0479211    0.4077810
 51   C15 p-1      -0.2074008   -0.1115813   -0.0248317    0.1671157    0.1376483
 52   C16 s0       -0.0762679    0.0746553    0.0439338    0.1164855   -0.0814500
 53   C16 s0        0.4815907   -0.4606657   -0.2843232   -0.7381307    0.5245405
 54   C16 p0        0.0000000    0.0000000    0.0000000    0.0000000    0.0000000
 55   C16 p+1      -0.0722413   -0.0516363    0.3406864   -0.0479211   -0.4077810
 56   C16 p-1      -0.2074008    0.1115813   -0.0248317    0.1671157   -0.1376483
 57   H17 s0        0.3955756    0.3564476   -0.0285744   -0.5766877   -0.3444269
 58   H18 s0       -0.3955756    0.3564476    0.0285744    0.5766877   -0.3444269
 59   H19 s0        0.2586215    0.1665377   -0.4621826   -0.2803451   -0.5698145
 60   H20 s0       -0.2586215    0.1665377    0.4621826    0.2803451   -0.5698145

            Ene     0.2203381    0.2396617    0.2405634    0.2629919    0.2852956
            Sym            Bu           Ag           Bu           Bu           Ag
            Occ             0            0            0            0            0


                           51           52           53           54           55

 1    C1 s0         0.0455967   -0.0003342    0.0016913    0.0629955    0.0772844
 2    C1 s0        -0.3176138    0.0101402   -0.0062981   -0.4394049   -0.5293889
 3    C1 p0         0.0000000    0.0000000    0.0000000    0.0000000    0.0000000
 4    C1 p+1       -0.6134171   -0.0685470    0.0177698    0.0398556    0.0191947
 5    C1 p-1        0.1373742   -0.5498760   -0.1548994   -0.1842778    0.1932104
 6    C2 s0         0.0455967    0.0003342    0.0016913   -0.0629955   -0.0772844
 7    C2 s0        -0.3176138   -0.0101402   -0.0062981    0.4394049    0.5293889
 8    C2 p0         0.0000000    0.0000000    0.0000000    0.0000000    0.0000000
 9    C2 p+1        0.6134171   -0.0685470   -0.0177698    0.0398556    0.0191947
 10   C2 p-1       -0.1373742   -0.5498760    0.1548994   -0.1842778    0.1932104
 11   C3 s0         0.0019821   -0.0952867    0.0117933    0.0481514    0.0003160
 12   C3 s0        -0.0094212    0.6405695   -0.0694641   -0.3264990   -0.0121155
 13   C3 p0         0.0000000    0.0000000    0.0000000    0.0000000    0.0000000
 14   C3 p+1       -0.1100465   -0.1440155    0.1598667   -0.7068995   -0.0075223
 15   C3 p-1       -0.4399882    0.0595709   -0.5439369   -0.2342390   -0.2486040
 16   C4 s0         0.0019821    0.0952867    0.0117933   -0.0481514   -0.0003160
 17   C4 s0        -0.0094212   -0.6405695   -0.0694641    0.3264990    0.0121155
 18   C4 p0         0.0000000    0.0000000    0.0000000    0.0000000    0.0000000
 19   C4 p+1        0.1100465   -0.1440155   -0.1598667   -0.7068995   -0.0075223
 20   C4 p-1        0.4399882    0.0595709    0.5439369   -0.2342390   -0.2486040
 21   C5 s0        -0.0363826   -0.0441211   -0.0150341   -0.0853512    0.0383485
 22   C5 s0         0.2377183    0.3054205    0.0899752    0.5851972   -0.2580957
 23   C5 p0         0.0000000    0.0000000    0.0000000    0.0000000    0.0000000
 24   C5 p+1       -0.0843689    0.4706906    0.3534277   -0.4330645   -0.0974496
 25   C5 p-1       -0.3358089   -0.1550346    0.5083559    0.3797871    0.3182602
 26   C6 s0        -0.0363826    0.0441211   -0.0150341    0.0853512   -0.0383485
 27   C6 s0         0.2377183   -0.3054205    0.0899752   -0.5851972    0.2580957
 28   C6 p0         0.0000000    0.0000000    0.0000000    0.0000000    0.0000000
 29   C6 p+1        0.0843689    0.4706906   -0.3534277   -0.4330645   -0.0974496
 30   C6 p-1        0.3358089   -0.1550346   -0.5083559    0.3797871    0.3182602
 31   H7 s0         0.3033623   -0.3558153    0.4984042    0.1245596    0.1428988
 32   H8 s0         0.3033623    0.3558153    0.4984042   -0.1245596   -0.1428988
 33   H9 s0         0.1379762   -0.2711269   -0.5500099   -0.2727782   -0.0003708
 34   H10 s0        0.1379762    0.2711269   -0.5500099    0.2727782    0.0003708
 35   C11 s0        0.0925610    0.0226473   -0.0461701    0.0561591   -0.0354718
 36   C11 s0       -0.6002285   -0.1697521    0.3171769   -0.3832002    0.2591156
 37   C11 p0        0.0000000    0.0000000    0.0000000    0.0000000    0.0000000
 38   C11 p+1       0.0185274   -0.0583794    0.1637763    0.0020245    0.4710515
 39   C11 p-1       0.1243985   -0.2245870    0.1376941    0.0413785   -0.3175196
 40   C12 s0        0.0925610   -0.0226473   -0.0461701   -0.0561591    0.0354718
 41   C12 s0       -0.6002285    0.1697521    0.3171769    0.3832002   -0.2591156
 42   C12 p0        0.0000000    0.0000000    0.0000000    0.0000000    0.0000000
 43   C12 p+1      -0.0185274   -0.0583794   -0.1637763    0.0020245    0.4710515
 44   C12 p-1      -0.1243985   -0.2245870   -0.1376941    0.0413785   -0.3175196
 45   H13 s0        0.3434775   -0.1323631   -0.0747395    0.2074985   -0.4014118
 46   H14 s0        0.3434775    0.1323631   -0.0747395   -0.2074985    0.4014118
 47   C15 s0       -0.0290423    0.0042140    0.0425606   -0.0005612    0.0212082
 48   C15 s0        0.1834126   -0.0151757   -0.2942002    0.0004283   -0.1494671
 49   C15 p0        0.0000000    0.0000000    0.0000000    0.0000000    0.0000000
 50   C15 p+1       0.0621022   -0.4591857    0.2657229   -0.1238160   -0.2401894
 51   C15 p-1      -0.3167838   -0.0310862    0.0635318   -0.1956145    0.5583608
 52   C16 s0       -0.0290423   -0.0042140    0.0425606    0.0005612   -0.0212082
 53   C16 s0        0.1834126    0.0151757   -0.2942002   -0.0004283    0.1494671
 54   C16 p0        0.0000000    0.0000000    0.0000000    0.0000000    0.0000000
 55   C16 p+1      -0.0621022   -0.4591857   -0.2657229   -0.1238160   -0.2401894
 56   C16 p-1       0.3167838   -0.0310862   -0.0635318   -0.1956145    0.5583608
 57   H17 s0        0.1734101   -0.0131452    0.1651064    0.1750320   -0.3909017
 58   H18 s0        0.1734101    0.0131452    0.1651064   -0.1750320    0.3909017
 59   H19 s0       -0.2302449    0.3775905   -0.0703702    0.0418093    0.3679372
 60   H20 s0       -0.2302449   -0.3775905   -0.0703702   -0.0418093   -0.3679372

            Ene     0.3197792    0.3442719    0.3799801    0.3978288    0.4254595
            Sym            Ag           Bu           Ag           Bu           Bu
            Occ             0            0            0            0            0


                           56           57           58           59           60

 1    C1 s0         0.0147161    0.0189204    0.0198556    0.0055130    0.0401055
 2    C1 s0        -0.0906761   -0.1216574   -0.1408719   -0.0366990   -0.3034624
 3    C1 p0         0.0000000    0.0000000    0.0000000    0.0000000    0.0000000
 4    C1 p+1        0.2784186    0.3832559   -0.1333714   -0.0458280   -0.6436880
 5    C1 p-1       -0.1192193    0.1140003   -0.4444582   -0.6915264    0.1574249
 6    C2 s0         0.0147161    0.0189204   -0.0198556    0.0055130   -0.0401055
 7    C2 s0        -0.0906761   -0.1216574    0.1408719   -0.0366990    0.3034624
 8    C2 p0         0.0000000    0.0000000    0.0000000    0.0000000    0.0000000
 9    C2 p+1       -0.2784186   -0.3832559   -0.1333714    0.0458280   -0.6436880
 10   C2 p-1        0.1192193   -0.1140003   -0.4444582    0.6915264    0.1574249
 11   C3 s0         0.0257831   -0.0187292   -0.0448542   -0.0048054   -0.0473526
 12   C3 s0        -0.1828923    0.1339903    0.3250204    0.0341507    0.3458385
 13   C3 p0         0.0000000    0.0000000    0.0000000    0.0000000    0.0000000
 14   C3 p+1       -0.4264491    0.3505838   -0.1255492   -0.5424783    0.2462528
 15   C3 p-1        0.2311845    0.1141631   -0.1961508   -0.2417671   -0.5672562
 16   C4 s0         0.0257831   -0.0187292    0.0448542   -0.0048054    0.0473526
 17   C4 s0        -0.1828923    0.1339903   -0.3250204    0.0341507   -0.3458385
 18   C4 p0         0.0000000    0.0000000    0.0000000    0.0000000    0.0000000
 19   C4 p+1        0.4264491   -0.3505838   -0.1255492    0.5424783    0.2462528
[...]
 52   C16 s0       -0.0699035    0.0351610    0.0749164    0.1253249   -0.0859607
 53   C16 s0        0.4376119   -0.2268507   -0.4581781   -0.7883658    0.5485096
 54   C16 p0        0.0000000    0.0000000    0.0000000    0.0000000    0.0000000
 55   C16 p+1      -0.0633198    0.3410325   -0.0442321    0.0008454   -0.4072036
 56   C16 p-1      -0.2108156   -0.0358488    0.0927109    0.1746939   -0.1625121
 57   H17 s0        0.3727094    0.0166579    0.3307125   -0.5899862   -0.3742142
 58   H18 s0       -0.3727094   -0.0166579    0.3307125    0.5899862   -0.3742142
 59   H19 s0        0.2247723   -0.4343867    0.1777585   -0.3451977   -0.5701866
 60   H20 s0       -0.2247723    0.4343867    0.1777585    0.3451977   -0.5701866

            Ene     0.2257251    0.2420116    0.2463151    0.2700059    0.2904441
            Sym            Bu           Bu           Ag           Bu           Ag
            Occ             0            0            0            0            0


                           51           52           53           54           55

 1    C1 s0         0.0511016    0.0014013    0.0015097    0.0626336    0.0802705
 2    C1 s0        -0.3506514   -0.0173186   -0.0049513   -0.4337482   -0.5469334
 3    C1 p0         0.0000000    0.0000000    0.0000000    0.0000000    0.0000000
 4    C1 p+1       -0.6192285    0.0703052    0.0204312    0.0408091    0.0240594
 5    C1 p-1        0.1312079    0.5506529   -0.1574159   -0.2010423    0.1968639
 6    C2 s0         0.0511016   -0.0014013    0.0015097   -0.0626336   -0.0802705
 7    C2 s0        -0.3506514    0.0173186   -0.0049513    0.4337482    0.5469334
 8    C2 p0         0.0000000    0.0000000    0.0000000    0.0000000    0.0000000
 9    C2 p+1        0.6192285    0.0703052   -0.0204312    0.0408091    0.0240594
 10   C2 p-1       -0.1312079    0.5506529    0.1574159   -0.2010423    0.1968639
 11   C3 s0        -0.0021461    0.0957203    0.0101534    0.0456122    0.0015569
 12   C3 s0         0.0171238   -0.6438014   -0.0583947   -0.3094515   -0.0213411
 13   C3 p0         0.0000000    0.0000000    0.0000000    0.0000000    0.0000000
 14   C3 p+1       -0.1164117    0.1307014    0.1718860   -0.7101579   -0.0255919
 15   C3 p-1       -0.4488981   -0.0574486   -0.5444448   -0.2254764   -0.2486265
 16   C4 s0        -0.0021461   -0.0957203    0.0101534   -0.0456122   -0.0015569
 17   C4 s0         0.0171238    0.6438014   -0.0583947    0.3094515    0.0213411
 18   C4 p0         0.0000000    0.0000000    0.0000000    0.0000000    0.0000000
 19   C4 p+1        0.1164117    0.1307014   -0.1718860   -0.7101579   -0.0255919
 20   C4 p-1        0.4488981   -0.0574486    0.5444448   -0.2254764   -0.2486265
 21   C5 s0        -0.0372870    0.0422211   -0.0132955   -0.0861752    0.0375514
 22   C5 s0         0.2433874   -0.2927055    0.0782334    0.5912935   -0.2521502
 23   C5 p0         0.0000000    0.0000000    0.0000000    0.0000000    0.0000000
 24   C5 p+1       -0.0712147   -0.4761441    0.3657549   -0.4245025   -0.1161354
 25   C5 p-1       -0.3418640    0.1655587    0.5089568    0.3655738    0.3275228
 26   C6 s0        -0.0372870   -0.0422211   -0.0132955    0.0861752   -0.0375514
 27   C6 s0         0.2433874    0.2927055    0.0782334   -0.5912935    0.2521502
 28   C6 p0         0.0000000    0.0000000    0.0000000    0.0000000    0.0000000
 29   C6 p+1        0.0712147   -0.4761441   -0.3657549   -0.4245025   -0.1161354
 30   C6 p-1        0.3418640    0.1655587   -0.5089568    0.3655738    0.3275228
 31   H7 s0         0.2961477    0.3501365    0.4969038    0.1110947    0.1415235
 32   H8 s0         0.2961477   -0.3501365    0.4969038   -0.1110947   -0.1415235
 33   H9 s0         0.1334977    0.2600103   -0.5512532   -0.2709422   -0.0001555
 34   H10 s0        0.1334977   -0.2600103   -0.5512532    0.2709422    0.0001555
 35   C11 s0        0.0876237   -0.0222743   -0.0459659    0.0581028   -0.0319161
 36   C11 s0       -0.5693852    0.1678207    0.3151078   -0.3973511    0.2351836
 37   C11 p0        0.0000000    0.0000000    0.0000000    0.0000000    0.0000000
 38   C11 p+1       0.0182512    0.0598855    0.1577749   -0.0077536    0.4652868
 39   C11 p-1       0.1214434    0.2235101    0.1217957    0.0464877   -0.3212148
 40   C12 s0        0.0876237    0.0222743   -0.0459659   -0.0581028    0.0319161
 41   C12 s0       -0.5693852   -0.1678207    0.3151078    0.3973511   -0.2351836
 42   C12 p0        0.0000000    0.0000000    0.0000000    0.0000000    0.0000000
 43   C12 p+1      -0.0182512    0.0598855   -0.1577749   -0.0077536    0.4652868
 44   C12 p-1      -0.1214434    0.2235101   -0.1217957    0.0464877   -0.3212148
 45   H13 s0        0.3256554    0.1315907   -0.0848778    0.2169844   -0.3914837
 46   H14 s0        0.3256554   -0.1315907   -0.0848778   -0.2169844    0.3914837
 47   C15 s0       -0.0305367   -0.0038597    0.0438933   -0.0012929    0.0206766
 48   C15 s0        0.1915992    0.0126224   -0.2992913    0.0055815   -0.1442630
 49   C15 p0        0.0000000    0.0000000    0.0000000    0.0000000    0.0000000
 50   C15 p+1       0.0843758    0.4639412    0.2487830   -0.1236603   -0.2539380
 51   C15 p-1      -0.3088870    0.0254761    0.0578253   -0.2130711    0.5495921
 52   C16 s0       -0.0305367    0.0038597    0.0438933    0.0012929   -0.0206766
 53   C16 s0        0.1915992   -0.0126224   -0.2992913   -0.0055815    0.1442630
 54   C16 p0        0.0000000    0.0000000    0.0000000    0.0000000    0.0000000
 55   C16 p+1      -0.0843758    0.4639412   -0.2487830   -0.1236603   -0.2539380
 56   C16 p-1       0.3088870    0.0254761   -0.0578253   -0.2130711    0.5495921
 57   H17 s0        0.1648637    0.0208953    0.1696253    0.1852238   -0.3851544
 58   H18 s0        0.1648637   -0.0208953    0.1696253   -0.1852238    0.3851544
 59   H19 s0       -0.2489210   -0.3793659   -0.0548412    0.0352385    0.3718919
 60   H20 s0       -0.2489210    0.3793659   -0.0548412   -0.0352385   -0.3718919

            Ene     0.3235069    0.3477248    0.3814764    0.4000087    0.4297807
            Sym            Ag           Bu           Ag           Bu           Bu
            Occ             0            0            0            0            0


                           56           57           58           59           60

 1    C1 s0         0.0152520    0.0189738    0.0210825    0.0057031    0.0414723
 2    C1 s0        -0.0936137   -0.1217196   -0.1489025   -0.0378482   -0.3115206
 3    C1 p0         0.0000000    0.0000000    0.0000000    0.0000000    0.0000000
 4    C1 p+1        0.2829623    0.3804805   -0.1375780   -0.0436727   -0.6451755
 5    C1 p-1       -0.1281455    0.1287799   -0.4401462   -0.6910241    0.1601230
 6    C2 s0         0.0152520    0.0189738   -0.0210825    0.0057031   -0.0414723
 7    C2 s0        -0.0936137   -0.1217196    0.1489025   -0.0378482    0.3115206
 8    C2 p0         0.0000000    0.0000000    0.0000000    0.0000000    0.0000000
 9    C2 p+1       -0.2829623   -0.3804805   -0.1375780    0.0436727   -0.6451755
 10   C2 p-1        0.1281455   -0.1287799   -0.4401462    0.6910241    0.1601230
 11   C3 s0         0.0252840   -0.0183968   -0.0450477   -0.0056292   -0.0476081
 12   C3 s0        -0.1794519    0.1317479    0.3265684    0.0400080    0.3474687
 13   C3 p0         0.0000000    0.0000000    0.0000000    0.0000000    0.0000000
 14   C3 p+1       -0.4230351    0.3578931   -0.1239327   -0.5346932    0.2427452
 15   C3 p-1        0.2198554    0.1202382   -0.2009525   -0.2401327   -0.5669332
 16   C4 s0         0.0252840   -0.0183968    0.0450477   -0.0056292    0.0476081
 17   C4 s0        -0.1794519    0.1317479   -0.3265684    0.0400080   -0.3474687
 18   C4 p0         0.0000000    0.0000000    0.0000000    0.0000000    0.0000000
 19   C4 p+1        0.4230351   -0.3578931   -0.1239327    0.5346932    0.2427452
 20   C4 p-1       -0.2198554   -0.1202382   -0.2009525    0.2401327   -0.5669332
 21   C5 s0        -0.0338761    0.0123242   -0.0201549    0.0051482    0.0527847
 22   C5 s0         0.2334393   -0.0910682    0.1503794   -0.0356500   -0.3873475
 23   C5 p0         0.0000000    0.0000000    0.0000000    0.0000000    0.0000000
 24   C5 p+1       -0.3437103    0.4265304    0.2140222   -0.4125380    0.3905677
 25   C5 p-1        0.1533673    0.0287686   -0.0295347    0.4326077    0.4994884
 26   C6 s0        -0.0338761    0.0123242    0.0201549    0.0051482   -0.0527847
 27   C6 s0         0.2334393   -0.0910682   -0.1503794   -0.0356500    0.3873475
 28   C6 p0         0.0000000    0.0000000    0.0000000    0.0000000    0.0000000
 29   C6 p+1        0.3437103   -0.4265304    0.2140222    0.4125380    0.3905677
 30   C6 p-1       -0.1533673   -0.0287686   -0.0295347   -0.4326077    0.4994884
 31   H7 s0        -0.2073091   -0.0552915   -0.0141422    0.0105646    0.2880851
 32   H8 s0        -0.2073091   -0.0552915    0.0141422    0.0105646   -0.2880851
 33   H9 s0        -0.0341453   -0.2065848   -0.1150221   -0.0454509   -0.2951031
 34   H10 s0       -0.0341453   -0.2065848    0.1150221   -0.0454509    0.2951031
 35   C11 s0       -0.0363585    0.0416251   -0.0599082    0.0266008   -0.0103600
 36   C11 s0        0.2596285   -0.3254754    0.4570955   -0.2137519    0.0605876
 37   C11 p0        0.0000000    0.0000000    0.0000000    0.0000000    0.0000000
 38   C11 p+1      -0.1125273   -0.6654654    0.4572851   -0.3215951   -0.3738339
 39   C11 p-1       0.5588737   -0.0622902    0.6180092   -0.4377624    0.0176172
 40   C12 s0       -0.0363585    0.0416251    0.0599082    0.0266008    0.0103600
 41   C12 s0        0.2596285   -0.3254754   -0.4570955   -0.2137519   -0.0605876
 42   C12 p0        0.0000000    0.0000000    0.0000000    0.0000000    0.0000000
 43   C12 p+1       0.1125273    0.6654654    0.4572851    0.3215951   -0.3738339
 44   C12 p-1      -0.5588737    0.0622902    0.6180092    0.4377624    0.0176172
 45   H13 s0        0.3313519    0.1873677    0.1867693   -0.1678308    0.0562496
 46   H14 s0        0.3313519    0.1873677   -0.1867693   -0.1678308   -0.0562496
 47   C15 s0        0.0312509   -0.0459355    0.0704439   -0.0415232   -0.0106459
 48   C15 s0       -0.2305945    0.3438506   -0.5320078    0.3247655    0.0897821
 49   C15 p0        0.0000000    0.0000000    0.0000000    0.0000000    0.0000000
 50   C15 p+1       0.5593175   -0.1473864    0.5483288   -0.3258501   -0.0037377
 51   C15 p-1      -0.1392508   -0.6056565    0.3914719   -0.2613269   -0.2407107
 52   C16 s0        0.0312509   -0.0459355   -0.0704439   -0.0415232    0.0106459
 53   C16 s0       -0.2305945    0.3438506    0.5320078    0.3247655   -0.0897821
 54   C16 p0        0.0000000    0.0000000    0.0000000    0.0000000    0.0000000
 55   C16 p+1      -0.5593175    0.1473864    0.5483288    0.3258501   -0.0037377
 56   C16 p-1       0.1392508    0.6056565    0.3914719    0.2613269   -0.2407107
 57   H17 s0        0.2778234    0.3021548   -0.0055849    0.0361337    0.1532529
 58   H18 s0        0.2778234    0.3021548    0.0055849    0.0361337   -0.1532529
 59   H19 s0       -0.3532162   -0.1523858   -0.1060941    0.0533510   -0.0722751
 60   H20 s0       -0.3532162   -0.1523858    0.1060941    0.0533510    0.0722751

            Ene     0.4407248    0.4815310    0.5114578    0.5713522    0.5848780
            Sym            Ag           Ag           Bu           Ag           Bu
            Occ             0            0            0            0            0



*** tstop() called on gold at Fri Aug 24 18:37:05 2018
Module time:
	user time   =      18.21 seconds =       0.30 minutes
	system time =       0.27 seconds =       0.00 minutes
	total time  =         19 seconds =       0.32 minutes
Total time:
	user time   =      18.21 seconds =       0.30 minutes
	system time =       0.27 seconds =       0.00 minutes
	total time  =         19 seconds =       0.32 minutes


Properties will be evaluated at   0.000000,   0.000000,   0.000000 [a0]
OEProp: No title given, name of density matrix used for the following properties is 'SCF alpha density'

 Multipole Moments:

 ------------------------------------------------------------------------------------
     Multipole             Electric (a.u.)       Nuclear  (a.u.)        Total (a.u.)
 ------------------------------------------------------------------------------------

 L = 1.  Multiply by 2.5417462300 to convert to Debye
 Dipole X            :          0.0000000            0.0000000            0.0000000
 Dipole Y            :          0.0000000           -0.0000000           -0.0000000
 Dipole Z            :          0.0000000            0.0000000            0.0000000

 L = 2.  Multiply by 1.3450341749 to convert to Debye.ang
 Quadrupole XX       :      -1503.3576643         1496.8839996           -6.4736646
 Quadrupole XY       :        -10.6663878           11.4580038            0.7916160
 Quadrupole XZ       :          0.0000000            0.0000000            0.0000000
 Quadrupole YY       :       -276.9584932          244.8754384          -32.0830548
 Quadrupole YZ       :          0.0000000            0.0000000            0.0000000
 Quadrupole ZZ       :        -42.0199325            0.0000000          -42.0199325

 L = 3.  Multiply by 0.7117614302 to convert to Debye.ang^2
 Octupole XXX        :          0.0000000            0.0000000            0.0000000
 Octupole XXY        :          0.0000000           -0.0000000           -0.0000000
 Octupole XXZ        :          0.0000000            0.0000000            0.0000000
 Octupole XYY        :          0.0000000            0.0000000            0.0000000
 Octupole XYZ        :          0.0000000            0.0000000            0.0000000
 Octupole XZZ        :          0.0000000            0.0000000            0.0000000
 Octupole YYY        :          0.0000000            0.0000000            0.0000000
 Octupole YYZ        :          0.0000000            0.0000000            0.0000000
 Octupole YZZ        :          0.0000000            0.0000000            0.0000000
 Octupole ZZZ        :          0.0000000            0.0000000            0.0000000

 L = 4.  Multiply by 0.3766479268 to convert to Debye.ang^3
 Hexadecapole XXXX   :     -71602.6127282        68490.6499305        -3111.9627977
 Hexadecapole XXXY   :      -2456.0310599         2491.6209456           35.5898857
 Hexadecapole XXXZ   :          0.0000000            0.0000000            0.0000000
 Hexadecapole XXYY   :      -3521.1538982         2641.3398575         -879.8140407
 Hexadecapole XXYZ   :          0.0000000            0.0000000            0.0000000
 Hexadecapole XXZZ   :       -929.4332823            0.0000000         -929.4332823
 Hexadecapole XYYY   :         24.1039588          -48.3518197          -24.2478609
 Hexadecapole XYYZ   :          0.0000000            0.0000000            0.0000000
 Hexadecapole XYZZ   :         -5.5597641            0.0000000           -5.5597641
 Hexadecapole XZZZ   :          0.0000000            0.0000000            0.0000000
 Hexadecapole YYYY   :      -2897.1289398         2103.6746773         -793.4542625
 Hexadecapole YYYZ   :          0.0000000            0.0000000            0.0000000
 Hexadecapole YYZZ   :       -186.4514436            0.0000000         -186.4514436
 Hexadecapole YZZZ   :          0.0000000            0.0000000            0.0000000
 Hexadecapole ZZZZ   :       -120.8959479            0.0000000         -120.8959479

 L = 5.  Multiply by 0.1993134985 to convert to Debye.ang^4
 32-pole XXXXX       :          0.0000000            0.0000000            0.0000000
 32-pole XXXXY       :          0.0000000           -0.0000000           -0.0000000
 32-pole XXXXZ       :          0.0000000            0.0000000            0.0000000
 32-pole XXXYY       :          0.0000000            0.0000000            0.0000000
 32-pole XXXYZ       :          0.0000000            0.0000000            0.0000000
 32-pole XXXZZ       :          0.0000000            0.0000000            0.0000000
 32-pole XXYYY       :          0.0000000           -0.0000000           -0.0000000
 32-pole XXYYZ       :          0.0000000            0.0000000            0.0000000
 32-pole XXYZZ       :          0.0000000            0.0000000            0.0000000
 32-pole XXZZZ       :          0.0000000            0.0000000            0.0000000
 32-pole XYYYY       :          0.0000000           -0.0000000           -0.0000000
 32-pole XYYYZ       :          0.0000000            0.0000000            0.0000000
 32-pole XYYZZ       :          0.0000000            0.0000000            0.0000000
 32-pole XYZZZ       :          0.0000000            0.0000000            0.0000000
 32-pole XZZZZ       :          0.0000000            0.0000000            0.0000000
 32-pole YYYYY       :          0.0000000            0.0000000            0.0000000
 32-pole YYYYZ       :          0.0000000            0.0000000            0.0000000
 32-pole YYYZZ       :          0.0000000            0.0000000            0.0000000
 32-pole YYZZZ       :          0.0000000            0.0000000            0.0000000
 32-pole YZZZZ       :          0.0000000            0.0000000            0.0000000
 32-pole ZZZZZ       :          0.0000000            0.0000000            0.0000000

 --------------------------------------------------------------------------------
  Mulliken Charges: (a.u.)
   Center  Symbol    Alpha    Beta     Spin     Total
       1     C     3.07861  2.86558  0.21303  0.05580
       2     C     3.07861  2.86558  0.21303  0.05580
       3     C     3.02838  3.01036  0.01803 -0.03874
       4     C     3.02838  3.01036  0.01803 -0.03874
       5     C     3.03378  3.00666  0.02712 -0.04044
       6     C     3.03378  3.00666  0.02712 -0.04044
       7     H     0.43572  0.43694 -0.00122  0.12734
       8     H     0.43572  0.43694 -0.00122  0.12734
       9     H     0.43764  0.43921 -0.00158  0.12315
      10     H     0.43764  0.43921 -0.00158  0.12315
      11     C     2.99206  3.04810 -0.05604 -0.04016
      12     C     2.99206  3.04810 -0.05604 -0.04016
      13     H     0.43878  0.43671  0.00207  0.12451
      14     H     0.43878  0.43671  0.00207  0.12451
      15     C     3.20226  2.87447  0.32779 -0.07673
      16     C     3.20226  2.87447  0.32779 -0.07673
      17     H     0.43100  0.44540 -0.01440  0.12359
      18     H     0.43100  0.44540 -0.01440  0.12359
      19     H     0.42176  0.43657 -0.01481  0.14167
      20     H     0.42176  0.43657 -0.01481  0.14167

   Total alpha = 35.00000, Total beta = 34.00000, Total charge =  1.00000

  Lowdin Charges: (a.u.)
   Center  Symbol    Alpha    Beta     Spin     Total
       1     C     3.06167  2.85841  0.20326  0.07991
       2     C     3.06167  2.85841  0.20326  0.07991
       3     C     3.01090  2.98973  0.02117 -0.00063
       4     C     3.01090  2.98973  0.02117 -0.00063
       5     C     3.01581  2.98613  0.02967 -0.00194
       6     C     3.01581  2.98613  0.02967 -0.00194
       7     H     0.45946  0.46036 -0.00090  0.08018
       8     H     0.45946  0.46036 -0.00090  0.08018
       9     H     0.46075  0.46191 -0.00116  0.07733
      10     H     0.46075  0.46191 -0.00116  0.07733
      11     C     2.97678  3.02149 -0.04471  0.00172
      12     C     2.97678  3.02149 -0.04471  0.00172
      13     H     0.46205  0.46048  0.00157  0.07747
      14     H     0.46205  0.46048  0.00157  0.07747
      15     C     3.14897  2.83659  0.31237  0.01444
      16     C     3.14897  2.83659  0.31237  0.01444
      17     H     0.45533  0.46579 -0.01045  0.07888
      18     H     0.45533  0.46579 -0.01045  0.07888
      19     H     0.44828  0.45909 -0.01081  0.09264
      20     H     0.44828  0.45909 -0.01081  0.09264

  Total alpha = 35.00000, Total beta = 34.00000, Total charge =  1.00000

    Psi4 stopped on: Friday, 24 August 2018 06:37PM
    Psi4 wall time for execution: 0:00:18.58

*** Psi4 exiting successfully. Buy a developer a beer!
