
    -----------------------------------------------------------------------
          Psi4: An Open-Source Ab Initio Electronic Structure Package
                               Psi4 1.2.1 release

                         Git: Rev {HEAD} 406f4de 


    R. M. Parrish, L. A. Burns, D. G. A. Smith, A. C. Simmonett,
    A. E. DePrince III, E. G. Hohenstein, U. Bozkaya, A. Yu. Sokolov,
    R. Di Remigio, R. M. Richard, J. F. Gonthier, A. M. James,
    H. R. McAlexander, A. Kumar, M. Saitow, X. Wang, B. P. Pritchard,
    P. Verma, H. F. Schaefer III, K. Patkowski, R. A. King, E. F. Valeev,
    F. A. Evangelista, J. M. Turney, T. D. Crawford, and C. D. Sherrill,
    J. Chem. Theory Comput. 13(7) pp 3185--3197 (2017).
    (doi: 10.1021/acs.jctc.7b00174)


                         Additional Contributions by
    P. Kraus, H. Kruse, M. H. Lechner, M. C. Schieber, and R. A. Shaw

    -----------------------------------------------------------------------


    Psi4 started on: Friday, 24 August 2018 06:30PM

    Process ID: 23733
    Host:       gold
    PSIDATADIR: /home/eric/opt/apps/python/psi4conda/share/psi4
    Memory:     500.0 MiB
    Threads:    1
    
  ==> Input File <==

--------------------------------------------------------------------------
molecule dvb {
    0 1
    C    -1.4152533224   0.2302217854   0.0000000000
    C     1.4152533224  -0.2302217854   0.0000000000
    C    -0.4951331558   1.3144608674   0.0000000000
    C     0.4951331558  -1.3144608674   0.0000000000
    C     0.8894090436   1.0909493743   0.0000000000
    C    -0.8894090436  -1.0909493743   0.0000000000
    H    -0.8795511985   2.3437343748   0.0000000000
    H     0.8795511985  -2.3437343748   0.0000000000
    H     1.5779041557   1.9450061275   0.0000000000
    H    -1.5779041557  -1.9450061275   0.0000000000
    C     2.8845844962  -0.5210893778   0.0000000000
    C    -2.8845844962   0.5210893778   0.0000000000
    H     3.1403356810  -1.5919605685   0.0000000000
    H    -3.1403356810   1.5919605685   0.0000000000
    C     3.8800428103   0.3822535424   0.0000000000
    C    -3.8800428103  -0.3822535424   0.0000000000
    H     3.6946765858   1.4624389570   0.0000000000
    H    -3.6946765858  -1.4624389570   0.0000000000
    H     4.9316453546   0.0711049543   0.0000000000
    H    -4.9316453546  -0.0711049543   0.0000000000
}

set {
    basis sto-3g
}

frequencies('scf', dertype='gradient')
--------------------------------------------------------------------------
gradient() will perform analytic gradient computation.

*** tstart() called on gold
*** at Fri Aug 24 18:30:48 2018

   => Loading Basis Set <=

    Name: STO-3G
    Role: ORBITAL
    Keyword: BASIS
    atoms 1-6, 11-12, 15-16  entry C          line    61 file /home/eric/opt/apps/python/psi4conda/share/psi4/basis/sto-3g.gbs 
    atoms 7-10, 13-14, 17-20 entry H          line    19 file /home/eric/opt/apps/python/psi4conda/share/psi4/basis/sto-3g.gbs 


         ---------------------------------------------------------
                                   SCF
            by Justin Turney, Rob Parrish, Andy Simmonett
                             and Daniel Smith
                              RHF Reference
                        1 Threads,    500 MiB Core
         ---------------------------------------------------------

  ==> Geometry <==

    Molecular point group: c2h
    Full point group: C2h

    Geometry (in Angstrom), charge = 0, multiplicity = 1:

       Center              X                  Y                   Z               Mass       
    ------------   -----------------  -----------------  -----------------  -----------------
         C           -1.415253322400     0.230221785400     0.000000000000    12.000000000000
         C            1.415253322400    -0.230221785400     0.000000000000    12.000000000000
         C           -0.495133155800     1.314460867400     0.000000000000    12.000000000000
         C            0.495133155800    -1.314460867400     0.000000000000    12.000000000000
         C            0.889409043600     1.090949374300     0.000000000000    12.000000000000
         C           -0.889409043600    -1.090949374300     0.000000000000    12.000000000000
         H           -0.879551198500     2.343734374800     0.000000000000     1.007825032070
         H            0.879551198500    -2.343734374800     0.000000000000     1.007825032070
         H            1.577904155700     1.945006127500     0.000000000000     1.007825032070
         H           -1.577904155700    -1.945006127500     0.000000000000     1.007825032070
         C            2.884584496200    -0.521089377800     0.000000000000    12.000000000000
         C           -2.884584496200     0.521089377800     0.000000000000    12.000000000000
         H            3.140335681000    -1.591960568500     0.000000000000     1.007825032070
         H           -3.140335681000     1.591960568500     0.000000000000     1.007825032070
         C            3.880042810300     0.382253542400     0.000000000000    12.000000000000
         C           -3.880042810300    -0.382253542400     0.000000000000    12.000000000000
         H            3.694676585800     1.462438957000     0.000000000000     1.007825032070
         H           -3.694676585800    -1.462438957000     0.000000000000     1.007825032070
         H            4.931645354600     0.071104954300     0.000000000000     1.007825032070
         H           -4.931645354600    -0.071104954300     0.000000000000     1.007825032070

  Running in c2h symmetry.

  Rotational constants: A =      0.15403  B =      0.02287  C =      0.01992 [cm^-1]
  Rotational constants: A =   4617.84332  B =    685.76183  C =    597.09209 [MHz]
  Nuclear repulsion =  445.936978114243459

  Charge       = 0
  Multiplicity = 1
  Electrons    = 70
  Nalpha       = 35
  Nbeta        = 35

  ==> Algorithm <==

  SCF Algorithm Type is DF.
  DIIS enabled.
  MOM disabled.
  Fractional occupation disabled.
  Guess Type is SAD.
  Energy threshold   = 1.00e-08
  Density threshold  = 1.00e-08
  Integral threshold = 0.00e+00

  ==> Primary Basis <==

  Basis Set: STO-3G
    Blend: STO-3G
    Number of shells: 40
    Number of basis function: 60
    Number of Cartesian functions: 60
    Spherical Harmonics?: true
    Max angular momentum: 1

   => Loading Basis Set <=

    Name: (STO-3G AUX)
    Role: JKFIT
    Keyword: DF_BASIS_SCF
    atoms 1-6, 11-12, 15-16  entry C          line   203 file /home/eric/opt/apps/python/psi4conda/share/psi4/basis/def2-svp-jkfit.gbs 
    atoms 7-10, 13-14, 17-20 entry H          line    23 file /home/eric/opt/apps/python/psi4conda/share/psi4/basis/def2-svp-jkfit.gbs 

  ==> Pre-Iterations <==

   -------------------------------------------------------
    Irrep   Nso     Nmo     Nalpha   Nbeta   Ndocc  Nsocc
   -------------------------------------------------------
     Ag        25      25       0       0       0       0
     Bg         5       5       0       0       0       0
     Au         5       5       0       0       0       0
     Bu        25      25       0       0       0       0
   -------------------------------------------------------
    Total      60      60      35      35      35       0
   -------------------------------------------------------

  ==> Integral Setup <==

  DFHelper Memory: AOs need 0.031 [GiB]; user supplied 0.366 [GiB]. Using in-core AOs.

  ==> MemDFJK: Density-Fitted J/K Matrices <==

    J tasked:                   Yes
    K tasked:                   Yes
    wK tasked:                   No
    OpenMP threads:               1
    Memory (MB):                375
    Algorithm:                 Core
    Schwarz Cutoff:           1E-12
    Mask sparsity (%):       4.1111
    Fitting Condition:        1E-12

   => Auxiliary Basis Set <=

  Basis Set: (STO-3G AUX)
    Blend: DEF2-SVP-JKFIT
    Number of shells: 310
    Number of basis function: 930
    Number of Cartesian functions: 1090
    Spherical Harmonics?: true
    Max angular momentum: 4

  Minimum eigenvalue in the overlap matrix is 1.8147107108E-01.
  Using Symmetric Orthogonalization.

  SCF Guess: Superposition of Atomic Densities via on-the-fly atomic UHF.

  ==> Iterations <==

                           Total Energy        Delta E     RMS |[F,P]|

   @DF-RHF iter   0:  -378.98904271117084   -3.78989e+02   1.17793e-01 
   @DF-RHF iter   1:  -379.54917169914671   -5.60129e-01   1.33957e-02 
   @DF-RHF iter   2:  -379.75336736421434   -2.04196e-01   3.73747e-03 DIIS
   @DF-RHF iter   3:  -379.76897258418273   -1.56052e-02   1.21534e-03 DIIS
   @DF-RHF iter   4:  -379.77009945140537   -1.12687e-03   9.79844e-05 DIIS
   @DF-RHF iter   5:  -379.77011050480917   -1.10534e-05   2.82336e-05 DIIS
   @DF-RHF iter   6:  -379.77011142423544   -9.19426e-07   6.53599e-06 DIIS
   @DF-RHF iter   7:  -379.77011150974715   -8.55117e-08   1.55698e-06 DIIS
   @DF-RHF iter   8:  -379.77011151443725   -4.69009e-09   3.98542e-07 DIIS
   @DF-RHF iter   9:  -379.77011151469389   -2.56648e-10   1.12043e-07 DIIS
   @DF-RHF iter  10:  -379.77011151470958   -1.56888e-11   3.87864e-08 DIIS
   @DF-RHF iter  11:  -379.77011151471186   -2.27374e-12   1.22291e-08 DIIS
   @DF-RHF iter  12:  -379.77011151471243   -5.68434e-13   1.51481e-09 DIIS

  ==> Post-Iterations <==

    Orbital Energies [Eh]
    ---------------------

    Doubly Occupied:                                                      

       1Bu   -11.040746     1Ag   -11.040684     2Bu   -11.031748  
       2Ag   -11.031747     3Bu   -11.029111     3Ag   -11.028980  
       4Bu   -11.028767     4Ag   -11.028743     5Bu   -11.017634  
       5Ag   -11.017633     6Ag    -1.090317     6Bu    -1.020272  
       7Ag    -0.974940     7Bu    -0.950318     8Bu    -0.909651  
       8Ag    -0.799896     9Ag    -0.762837     9Bu    -0.727642  
      10Ag    -0.696780    11Ag    -0.628047    10Bu    -0.605675  
      11Bu    -0.572947    12Bu    -0.553601    12Ag    -0.553162  
      13Bu    -0.525353    14Bu    -0.496696    13Ag    -0.492528  
       1Au    -0.463721    15Bu    -0.446434    14Ag    -0.421659  
      15Ag    -0.415628     1Bg    -0.376953     2Au    -0.315119  
       2Bg    -0.278351     3Bg    -0.222179  

    Virtual:                                                              

       3Au     0.199016     4Au     0.268538     4Bg     0.308849  
       5Au     0.397102     5Bg     0.521790    16Ag     0.565048  
      16Bu     0.575601    17Ag     0.621585    17Bu     0.625837  
      18Ag     0.658247    18Bu     0.659407    19Bu     0.677207  
      19Ag     0.694199    20Bu     0.706717    20Ag     0.740152  
      21Ag     0.802255    21Bu     0.825687    22Ag     0.860640  
      22Bu     0.887794    23Bu     0.921040    23Ag     0.939977  
      24Ag     0.990323    24Bu     1.027295    25Ag     1.107747  
      25Bu     1.124962  

    Final Occupation by Irrep:
             Ag    Bg    Au    Bu 
    DOCC [    15,    3,    2,   15 ]

  Energy converged.

  @DF-RHF Final Energy:  -379.77011151471243

   => Energetics <=

    Nuclear Repulsion Energy =            445.9369781142434590
    One-Electron Energy =               -1400.2211834400293355
    Two-Electron Energy =                 574.5140938110735078
    Total Energy =                       -379.7701115147124256



Properties will be evaluated at   0.000000,   0.000000,   0.000000 [a0]

Properties computed using the SCF density matrix

  Nuclear Dipole Moment: [e a0]
     X:     0.0000      Y:    -0.0000      Z:     0.0000

  Electronic Dipole Moment: [e a0]
     X:     0.0000      Y:     0.0000      Z:     0.0000

  Dipole Moment: [e a0]
     X:     0.0000      Y:    -0.0000      Z:     0.0000     Total:     0.0000

  Dipole Moment: [D]
     X:     0.0000      Y:    -0.0000      Z:     0.0000     Total:     0.0000


*** tstop() called on gold at Fri Aug 24 18:30:50 2018
Module time:
	user time   =       2.08 seconds =       0.03 minutes
	system time =       0.06 seconds =       0.00 minutes
	total time  =          2 seconds =       0.03 minutes
Total time:
	user time   =       2.08 seconds =       0.03 minutes
	system time =       0.06 seconds =       0.00 minutes
	total time  =          2 seconds =       0.03 minutes

*** tstart() called on gold
*** at Fri Aug 24 18:30:50 2018


         ------------------------------------------------------------
                                   SCF GRAD                          
                          Rob Parrish, Justin Turney,                
                       Andy Simmonett, and Alex Sokolov              
         ------------------------------------------------------------

  ==> Geometry <==

    Molecular point group: c2h
    Full point group: C2h

    Geometry (in Angstrom), charge = 0, multiplicity = 1:

       Center              X                  Y                   Z               Mass       
    ------------   -----------------  -----------------  -----------------  -----------------
         C           -1.415253322400     0.230221785400     0.000000000000    12.000000000000
         C            1.415253322400    -0.230221785400     0.000000000000    12.000000000000
         C           -0.495133155800     1.314460867400     0.000000000000    12.000000000000
         C            0.495133155800    -1.314460867400     0.000000000000    12.000000000000
         C            0.889409043600     1.090949374300     0.000000000000    12.000000000000
         C           -0.889409043600    -1.090949374300     0.000000000000    12.000000000000
         H           -0.879551198500     2.343734374800     0.000000000000     1.007825032070
         H            0.879551198500    -2.343734374800     0.000000000000     1.007825032070
         H            1.577904155700     1.945006127500     0.000000000000     1.007825032070
         H           -1.577904155700    -1.945006127500     0.000000000000     1.007825032070
         C            2.884584496200    -0.521089377800     0.000000000000    12.000000000000
         C           -2.884584496200     0.521089377800     0.000000000000    12.000000000000
         H            3.140335681000    -1.591960568500     0.000000000000     1.007825032070
         H           -3.140335681000     1.591960568500     0.000000000000     1.007825032070
         C            3.880042810300     0.382253542400     0.000000000000    12.000000000000
         C           -3.880042810300    -0.382253542400     0.000000000000    12.000000000000
         H            3.694676585800     1.462438957000     0.000000000000     1.007825032070
         H           -3.694676585800    -1.462438957000     0.000000000000     1.007825032070
         H            4.931645354600     0.071104954300     0.000000000000     1.007825032070
         H           -4.931645354600    -0.071104954300     0.000000000000     1.007825032070

  Nuclear repulsion =  445.936978114243459

  ==> Basis Set <==

  Basis Set: STO-3G
    Blend: STO-3G
    Number of shells: 40
    Number of basis function: 60
    Number of Cartesian functions: 60
    Spherical Harmonics?: true
    Max angular momentum: 1

  ==> DFJKGrad: Density-Fitted SCF Gradients <==

    Gradient:                    1
    J tasked:                  Yes
    K tasked:                  Yes
    wK tasked:                  No
    OpenMP threads:              1
    Integrals threads:           1
    Memory (MB):               375
    Schwarz Cutoff:          0E+00
    Fitting Condition:       1E-12

   => Auxiliary Basis Set <=

  Basis Set: (STO-3G AUX)
    Blend: DEF2-SVP-JKFIT
    Number of shells: 310
    Number of basis function: 930
    Number of Cartesian functions: 1090
    Spherical Harmonics?: true
    Max angular momentum: 4


  -Total Gradient:
     Atom            X                  Y                   Z
    ------   -----------------  -----------------  -----------------
       1       -0.024735543153     0.003903954829     0.000000000000
       2        0.024735543153    -0.003903954829     0.000000000000
       3       -0.002952821447     0.014282145246     0.000000000000
       4        0.002952821447    -0.014282145246     0.000000000000
       5        0.005586694019     0.013581202690     0.000000000000
       6       -0.005586694019    -0.013581202690     0.000000000000
       7       -0.005023800242     0.013071663484     0.000000000000
       8        0.005023800242    -0.013071663484     0.000000000000
       9        0.009852638125     0.009824357506     0.000000000000
      10       -0.009852638125    -0.009824357506     0.000000000000
      11       -0.032893297518    -0.017480395472     0.000000000000
      12        0.032893297518     0.017480395472     0.000000000000
      13        0.003237905057    -0.014105429079     0.000000000000
      14       -0.003237905057     0.014105429079     0.000000000000
      15        0.023997642200     0.021039084853     0.000000000000
      16       -0.023997642200    -0.021039084853     0.000000000000
      17       -0.003373025075     0.013513926860     0.000000000000
      18        0.003373025075    -0.013513926860     0.000000000000
      19        0.013258846197    -0.003904047150     0.000000000000
      20       -0.013258846197     0.003904047150     0.000000000000


*** tstop() called on gold at Fri Aug 24 18:30:52 2018
Module time:
	user time   =       2.28 seconds =       0.04 minutes
	system time =       0.03 seconds =       0.00 minutes
	total time  =          2 seconds =       0.03 minutes
Total time:
	user time   =       4.37 seconds =       0.07 minutes
	system time =       0.09 seconds =       0.00 minutes
	total time  =          4 seconds =       0.07 minutes

  Based on options and gradient (rms=1.22E-02), recommend projecting translations and not projecting rotations.
hessian() will perform frequency computation by finite difference of analytic gradients.

-------------------------------------------------------------

  Using finite-differences of gradients to determine vibrational frequencies and 
  normal modes.  Resulting frequencies are only valid at stationary points.
	Generating geometries for use with 3-point formula.
	Displacement size will be 5.00e-03.
	Number of atoms is 20.
	Number of irreps is 4.
	Number of SALCS is 57.
	Translations projected? 1. Rotations projected? 0.
	Index of salcs per irrep:
	 1 :  0  1  2  3  4  5  6  7  8  9  10  11  12  13  14  15  16  17  18  19 
	 2 :  20  21  22  23  24  25  26  27  28  29 
	 3 :  30  31  32  33  34  35  36  37  38 
	 4 :  39  40  41  42  43  44  45  46  47  48  49  50  51  52  53  54  55  56 
	Number of SALC's per irrep:
		 Irrep 1: 20
		 Irrep 2: 10
		 Irrep 3: 9
		 Irrep 4: 18
	Number of geometries (including reference) is 78.
	Number of displacements per irrep:
	  Irrep 1: 40
	  Irrep 2: 10
	  Irrep 3: 9
	  Irrep 4: 18

  //>>>>>>>>>>>>>>>>>>>>>>>>>>>>>>>>>>>//
  //    Loading displacement 1 of 78   //
  //<<<<<<<<<<<<<<<<<<<<<<<<<<<<<<<<<<<//
gradient() will perform analytic gradient computation.

*** tstart() called on gold
*** at Fri Aug 24 18:30:52 2018

   => Loading Basis Set <=

    Name: STO-3G
    Role: ORBITAL
    Keyword: BASIS
    atoms 1-6, 11-12, 15-16  entry C          line    61 file /home/eric/opt/apps/python/psi4conda/share/psi4/basis/sto-3g.gbs 
    atoms 7-10, 13-14, 17-20 entry H          line    19 file /home/eric/opt/apps/python/psi4conda/share/psi4/basis/sto-3g.gbs 


         ---------------------------------------------------------
                                   SCF
            by Justin Turney, Rob Parrish, Andy Simmonett
                             and Daniel Smith
                              RHF Reference
                        1 Threads,    500 MiB Core
         ---------------------------------------------------------

  ==> Geometry <==

    Molecular point group: c2h
    Full point group: C2h

    Geometry (in Angstrom), charge = 0, multiplicity = 1:

       Center              X                  Y                   Z               Mass       
    ------------   -----------------  -----------------  -----------------  -----------------
         C           -1.415793411627     0.230221785400     0.000000000000    12.000000000000
         C            1.415793411627    -0.230221785400     0.000000000000    12.000000000000
         C           -0.495133155800     1.314460867400     0.000000000000    12.000000000000
         C            0.495133155800    -1.314460867400     0.000000000000    12.000000000000
         C            0.889409043600     1.090949374300     0.000000000000    12.000000000000
         C           -0.889409043600    -1.090949374300     0.000000000000    12.000000000000
         H           -0.879551198500     2.343734374800     0.000000000000     1.007825032070
         H            0.879551198500    -2.343734374800     0.000000000000     1.007825032070
         H            1.577904155700     1.945006127500     0.000000000000     1.007825032070
         H           -1.577904155700    -1.945006127500     0.000000000000     1.007825032070
         C            2.884584496200    -0.521089377800     0.000000000000    12.000000000000
         C           -2.884584496200     0.521089377800     0.000000000000    12.000000000000
         H            3.140335681000    -1.591960568500     0.000000000000     1.007825032070
         H           -3.140335681000     1.591960568500     0.000000000000     1.007825032070
         C            3.880042810300     0.382253542400     0.000000000000    12.000000000000
         C           -3.880042810300    -0.382253542400     0.000000000000    12.000000000000
         H            3.694676585800     1.462438957000     0.000000000000     1.007825032070
         H           -3.694676585800    -1.462438957000     0.000000000000     1.007825032070
         H            4.931645354600     0.071104954300     0.000000000000     1.007825032070
         H           -4.931645354600    -0.071104954300     0.000000000000     1.007825032070

  Running in c2h symmetry.

  Rotational constants: A =      0.15403  B =      0.02287  C =      0.01992 [cm^-1]
  Rotational constants: A =   4617.84211  B =    685.72771  C =    597.06620 [MHz]
  Nuclear repulsion =  445.928895873455019

  Charge       = 0
  Multiplicity = 1
  Electrons    = 70
  Nalpha       = 35
  Nbeta        = 35

  ==> Algorithm <==

  SCF Algorithm Type is DF.
  DIIS enabled.
  MOM disabled.
  Fractional occupation disabled.
  Guess Type is SAD.
  Energy threshold   = 1.00e-08
  Density threshold  = 1.00e-08
  Integral threshold = 0.00e+00

  ==> Primary Basis <==

  Basis Set: STO-3G
    Blend: STO-3G
    Number of shells: 40
    Number of basis function: 60
    Number of Cartesian functions: 60
    Spherical Harmonics?: true
    Max angular momentum: 1

   => Loading Basis Set <=

    Name: (STO-3G AUX)
    Role: JKFIT
    Keyword: DF_BASIS_SCF
    atoms 1-6, 11-12, 15-16  entry C          line   203 file /home/eric/opt/apps/python/psi4conda/share/psi4/basis/def2-svp-jkfit.gbs 
    atoms 7-10, 13-14, 17-20 entry H          line    23 file /home/eric/opt/apps/python/psi4conda/share/psi4/basis/def2-svp-jkfit.gbs 

  ==> Pre-Iterations <==

   -------------------------------------------------------
    Irrep   Nso     Nmo     Nalpha   Nbeta   Ndocc  Nsocc
   -------------------------------------------------------
     Ag        25      25       0       0       0       0
     Bg         5       5       0       0       0       0
     Au         5       5       0       0       0       0
     Bu        25      25       0       0       0       0
   -------------------------------------------------------
    Total      60      60      35      35      35       0
   -------------------------------------------------------

  ==> Integral Setup <==

  DFHelper Memory: AOs need 0.031 [GiB]; user supplied 0.366 [GiB]. Using in-core AOs.

  ==> MemDFJK: Density-Fitted J/K Matrices <==

    J tasked:                   Yes
    K tasked:                   Yes
    wK tasked:                   No
    OpenMP threads:               1
    Memory (MB):                375
    Algorithm:                 Core
    Schwarz Cutoff:           1E-12
    Mask sparsity (%):       4.1111
    Fitting Condition:        1E-12

   => Auxiliary Basis Set <=

  Basis Set: (STO-3G AUX)
    Blend: DEF2-SVP-JKFIT
    Number of shells: 310
    Number of basis function: 930
    Number of Cartesian functions: 1090
    Spherical Harmonics?: true
    Max angular momentum: 4

  Minimum eigenvalue in the overlap matrix is 1.8155234980E-01.
  Using Symmetric Orthogonalization.

  SCF Guess: Superposition of Atomic Densities via on-the-fly atomic UHF.

  ==> Iterations <==

                           Total Energy        Delta E     RMS |[F,P]|

   @DF-RHF iter   0:  -379.20836814571692   -3.79208e+02   1.18112e-01 
   @DF-RHF iter   1:  -379.60629674485000   -3.97929e-01   1.15772e-02 
   @DF-RHF iter   2:  -379.75809499035341   -1.51798e-01   3.12608e-03 DIIS
   @DF-RHF iter   3:  -379.76954887597714   -1.14539e-02   8.09650e-04 DIIS
   @DF-RHF iter   4:  -379.77004761883592   -4.98743e-04   1.00839e-04 DIIS
   @DF-RHF iter   5:  -379.77005907374951   -1.14549e-05   2.84517e-05 DIIS
   @DF-RHF iter   6:  -379.77006006684036   -9.93091e-07   6.98095e-06 DIIS
   @DF-RHF iter   7:  -379.77006016231422   -9.54739e-08   1.90800e-06 DIIS
   @DF-RHF iter   8:  -379.77006016870507   -6.39085e-09   5.14959e-07 DIIS
   @DF-RHF iter   9:  -379.77006016911457   -4.09500e-10   1.57073e-07 DIIS
   @DF-RHF iter  10:  -379.77006016915055   -3.59819e-11   4.69311e-08 DIIS
   @DF-RHF iter  11:  -379.77006016915414   -3.58114e-12   1.32109e-08 DIIS
   @DF-RHF iter  12:  -379.77006016915448   -3.41061e-13   1.36903e-09 DIIS

  ==> Post-Iterations <==

    Orbital Energies [Eh]
    ---------------------

    Doubly Occupied:                                                      

       1Bu   -11.040740     1Ag   -11.040678     2Bu   -11.031774  
       2Ag   -11.031774     3Bu   -11.029087     3Ag   -11.028957  
       4Bu   -11.028742     4Ag   -11.028719     5Bu   -11.017661  
       5Ag   -11.017661     6Ag    -1.090230     6Bu    -1.020335  
       7Ag    -0.974974     7Bu    -0.950247     8Bu    -0.909607  
       8Ag    -0.799954     9Ag    -0.762801     9Bu    -0.727692  
      10Ag    -0.696723    11Ag    -0.628044    10Bu    -0.605732  
      11Bu    -0.572927    12Bu    -0.553591    12Ag    -0.553183  
      13Bu    -0.525276    14Bu    -0.496652    13Ag    -0.492548  
       1Au    -0.463659    15Bu    -0.446496    14Ag    -0.421677  
      15Ag    -0.415603     1Bg    -0.377018     2Au    -0.315123  
       2Bg    -0.278320     3Bg    -0.222049  

    Virtual:                                                              

       3Au     0.198852     4Au     0.268590     4Bg     0.308802  
       5Au     0.397161     5Bg     0.521750    16Ag     0.565232  
      16Bu     0.575556    17Ag     0.621548    17Bu     0.626077  
      18Ag     0.658177    18Bu     0.659390    19Bu     0.677308  
      19Ag     0.694224    20Bu     0.706678    20Ag     0.740055  
      21Ag     0.802168    21Bu     0.825484    22Ag     0.860609  
      22Bu     0.887782    23Bu     0.921054    23Ag     0.940056  
      24Ag     0.990390    24Bu     1.027259    25Ag     1.107609  
      25Bu     1.124853  

    Final Occupation by Irrep:
             Ag    Bg    Au    Bu 
    DOCC [    15,    3,    2,   15 ]

  Energy converged.

  @DF-RHF Final Energy:  -379.77006016915448

   => Energetics <=

    Nuclear Repulsion Energy =            445.9288958734550192
    One-Electron Energy =               -1400.2053991518969269
    Two-Electron Energy =                 574.5064431092873747
    Total Energy =                       -379.7700601691544762



Properties will be evaluated at   0.000000,   0.000000,   0.000000 [a0]

Properties computed using the SCF density matrix

  Nuclear Dipole Moment: [e a0]
     X:    -0.0000      Y:    -0.0000      Z:     0.0000

  Electronic Dipole Moment: [e a0]
     X:     0.0000      Y:     0.0000      Z:     0.0000

  Dipole Moment: [e a0]
     X:    -0.0000      Y:    -0.0000      Z:     0.0000     Total:     0.0000

  Dipole Moment: [D]
     X:    -0.0000      Y:    -0.0000      Z:     0.0000     Total:     0.0000


*** tstop() called on gold at Fri Aug 24 18:30:54 2018
Module time:
	user time   =       2.07 seconds =       0.03 minutes
	system time =       0.02 seconds =       0.00 minutes
	total time  =          2 seconds =       0.03 minutes
Total time:
	user time   =       6.45 seconds =       0.11 minutes
	system time =       0.11 seconds =       0.00 minutes
	total time  =          6 seconds =       0.10 minutes

*** tstart() called on gold
*** at Fri Aug 24 18:30:54 2018


         ------------------------------------------------------------
                                   SCF GRAD                          
                          Rob Parrish, Justin Turney,                
                       Andy Simmonett, and Alex Sokolov              
         ------------------------------------------------------------

  ==> Geometry <==

    Molecular point group: c2h
    Full point group: C2h

    Geometry (in Angstrom), charge = 0, multiplicity = 1:

       Center              X                  Y                   Z               Mass       
    ------------   -----------------  -----------------  -----------------  -----------------
         C           -1.415793411627     0.230221785400     0.000000000000    12.000000000000
         C            1.415793411627    -0.230221785400     0.000000000000    12.000000000000
         C           -0.495133155800     1.314460867400     0.000000000000    12.000000000000
         C            0.495133155800    -1.314460867400     0.000000000000    12.000000000000
         C            0.889409043600     1.090949374300     0.000000000000    12.000000000000
         C           -0.889409043600    -1.090949374300     0.000000000000    12.000000000000
         H           -0.879551198500     2.343734374800     0.000000000000     1.007825032070
         H            0.879551198500    -2.343734374800     0.000000000000     1.007825032070
         H            1.577904155700     1.945006127500     0.000000000000     1.007825032070
         H           -1.577904155700    -1.945006127500     0.000000000000     1.007825032070
         C            2.884584496200    -0.521089377800     0.000000000000    12.000000000000
         C           -2.884584496200     0.521089377800     0.000000000000    12.000000000000
         H            3.140335681000    -1.591960568500     0.000000000000     1.007825032070
         H           -3.140335681000     1.591960568500     0.000000000000     1.007825032070
         C            3.880042810300     0.382253542400     0.000000000000    12.000000000000
         C           -3.880042810300    -0.382253542400     0.000000000000    12.000000000000
         H            3.694676585800     1.462438957000     0.000000000000     1.007825032070
         H           -3.694676585800    -1.462438957000     0.000000000000     1.007825032070
         H            4.931645354600     0.071104954300     0.000000000000     1.007825032070
         H           -4.931645354600    -0.071104954300     0.000000000000     1.007825032070

  Nuclear repulsion =  445.928895873455019

  ==> Basis Set <==

  Basis Set: STO-3G
    Blend: STO-3G
    Number of shells: 40
    Number of basis function: 60
    Number of Cartesian functions: 60
    Spherical Harmonics?: true
    Max angular momentum: 1

  ==> DFJKGrad: Density-Fitted SCF Gradients <==

    Gradient:                    1
    J tasked:                  Yes
    K tasked:                  Yes
    wK tasked:                  No
    OpenMP threads:              1
    Integrals threads:           1
    Memory (MB):               375
    Schwarz Cutoff:          0E+00
    Fitting Condition:       1E-12

   => Auxiliary Basis Set <=

  Basis Set: (STO-3G AUX)
    Blend: DEF2-SVP-JKFIT
    Number of shells: 310
    Number of basis function: 930
    Number of Cartesian functions: 1090
    Spherical Harmonics?: true
    Max angular momentum: 4


  -Total Gradient:
     Atom            X                  Y                   Z
    ------   -----------------  -----------------  -----------------
       1       -0.025570112459     0.003896851546     0.000000000000
       2        0.025570112459    -0.003896851546     0.000000000000
       3       -0.002717838069     0.014473029424     0.000000000000
       4        0.002717838069    -0.014473029424     0.000000000000
       5        0.005449848854     0.013701957602     0.000000000000
       6       -0.005449848854    -0.013701957602     0.000000000000
       7       -0.005043087475     0.013056070770     0.000000000000
       8        0.005043087475    -0.013056070770     0.000000000000
       9        0.009873566300     0.009796586880     0.000000000000
      10       -0.009873566300    -0.009796586880     0.000000000000
      11       -0.033188202884    -0.017415499347     0.000000000000
      12        0.033188202884     0.017415499347     0.000000000000
      13        0.003231818386    -0.014110606815     0.000000000000
      14       -0.003231818386     0.014110606815     0.000000000000
      15        0.023950471945     0.021027229538     0.000000000000
      16       -0.023950471945    -0.021027229538     0.000000000000
      17       -0.003371126076     0.013514507065     0.000000000000
      18        0.003371126076    -0.013514507065     0.000000000000
      19        0.013257695963    -0.003905359970     0.000000000000
      20       -0.013257695963     0.003905359970     0.000000000000


*** tstop() called on gold at Fri Aug 24 18:30:57 2018
Module time:
	user time   =       2.23 seconds =       0.04 minutes
	system time =       0.02 seconds =       0.00 minutes
	total time  =          3 seconds =       0.05 minutes
Total time:
	user time   =       8.68 seconds =       0.14 minutes
	system time =       0.13 seconds =       0.00 minutes
	total time  =          9 seconds =       0.15 minutes

  //>>>>>>>>>>>>>>>>>>>>>>>>>>>>>>>>>>>//
  //    Loading displacement 2 of 78   //
  //<<<<<<<<<<<<<<<<<<<<<<<<<<<<<<<<<<<//
gradient() will perform analytic gradient computation.

*** tstart() called on gold
*** at Fri Aug 24 18:30:57 2018

   => Loading Basis Set <=

    Name: STO-3G
    Role: ORBITAL
    Keyword: BASIS
    atoms 1-6, 11-12, 15-16  entry C          line    61 file /home/eric/opt/apps/python/psi4conda/share/psi4/basis/sto-3g.gbs 
    atoms 7-10, 13-14, 17-20 entry H          line    19 file /home/eric/opt/apps/python/psi4conda/share/psi4/basis/sto-3g.gbs 


         ---------------------------------------------------------
                                   SCF
            by Justin Turney, Rob Parrish, Andy Simmonett
                             and Daniel Smith
                              RHF Reference
                        1 Threads,    500 MiB Core
         ---------------------------------------------------------

  ==> Geometry <==

    Molecular point group: c2h
    Full point group: C2h

    Geometry (in Angstrom), charge = 0, multiplicity = 1:

       Center              X                  Y                   Z               Mass       
    ------------   -----------------  -----------------  -----------------  -----------------
         C           -1.414713233173     0.230221785400     0.000000000000    12.000000000000
         C            1.414713233173    -0.230221785400     0.000000000000    12.000000000000
         C           -0.495133155800     1.314460867400     0.000000000000    12.000000000000
         C            0.495133155800    -1.314460867400     0.000000000000    12.000000000000
         C            0.889409043600     1.090949374300     0.000000000000    12.000000000000
         C           -0.889409043600    -1.090949374300     0.000000000000    12.000000000000
         H           -0.879551198500     2.343734374800     0.000000000000     1.007825032070
         H            0.879551198500    -2.343734374800     0.000000000000     1.007825032070
         H            1.577904155700     1.945006127500     0.000000000000     1.007825032070
         H           -1.577904155700    -1.945006127500     0.000000000000     1.007825032070
         C            2.884584496200    -0.521089377800     0.000000000000    12.000000000000
         C           -2.884584496200     0.521089377800     0.000000000000    12.000000000000
         H            3.140335681000    -1.591960568500     0.000000000000     1.007825032070
         H           -3.140335681000     1.591960568500     0.000000000000     1.007825032070
         C            3.880042810300     0.382253542400     0.000000000000    12.000000000000
         C           -3.880042810300    -0.382253542400     0.000000000000    12.000000000000
         H            3.694676585800     1.462438957000     0.000000000000     1.007825032070
         H           -3.694676585800    -1.462438957000     0.000000000000     1.007825032070
         H            4.931645354600     0.071104954300     0.000000000000     1.007825032070
         H           -4.931645354600    -0.071104954300     0.000000000000     1.007825032070

  Running in c2h symmetry.

  Rotational constants: A =      0.15403  B =      0.02288  C =      0.01992 [cm^-1]
  Rotational constants: A =   4617.84452  B =    685.79594  C =    597.11797 [MHz]
  Nuclear repulsion =  445.945070708784385

  Charge       = 0
  Multiplicity = 1
  Electrons    = 70
  Nalpha       = 35
  Nbeta        = 35

  ==> Algorithm <==

  SCF Algorithm Type is DF.
  DIIS enabled.
  MOM disabled.
  Fractional occupation disabled.
  Guess Type is SAD.
  Energy threshold   = 1.00e-08
  Density threshold  = 1.00e-08
  Integral threshold = 0.00e+00

  ==> Primary Basis <==

  Basis Set: STO-3G
    Blend: STO-3G
    Number of shells: 40
    Number of basis function: 60
    Number of Cartesian functions: 60
    Spherical Harmonics?: true
    Max angular momentum: 1

   => Loading Basis Set <=

    Name: (STO-3G AUX)
    Role: JKFIT
    Keyword: DF_BASIS_SCF
    atoms 1-6, 11-12, 15-16  entry C          line   203 file /home/eric/opt/apps/python/psi4conda/share/psi4/basis/def2-svp-jkfit.gbs 
    atoms 7-10, 13-14, 17-20 entry H          line    23 file /home/eric/opt/apps/python/psi4conda/share/psi4/basis/def2-svp-jkfit.gbs 

  ==> Pre-Iterations <==

   -------------------------------------------------------
    Irrep   Nso     Nmo     Nalpha   Nbeta   Ndocc  Nsocc
   -------------------------------------------------------
     Ag        25      25       0       0       0       0
     Bg         5       5       0       0       0       0
     Au         5       5       0       0       0       0
     Bu        25      25       0       0       0       0
   -------------------------------------------------------
    Total      60      60      35      35      35       0
   -------------------------------------------------------

  ==> Integral Setup <==

  DFHelper Memory: AOs need 0.031 [GiB]; user supplied 0.366 [GiB]. Using in-core AOs.

  ==> MemDFJK: Density-Fitted J/K Matrices <==

    J tasked:                   Yes
    K tasked:                   Yes
    wK tasked:                   No
    OpenMP threads:               1
    Memory (MB):                375
    Algorithm:                 Core
    Schwarz Cutoff:           1E-12
    Mask sparsity (%):       4.1111
    Fitting Condition:        1E-12

   => Auxiliary Basis Set <=

  Basis Set: (STO-3G AUX)
    Blend: DEF2-SVP-JKFIT
    Number of shells: 310
    Number of basis function: 930
    Number of Cartesian functions: 1090
    Spherical Harmonics?: true
    Max angular momentum: 4

  Minimum eigenvalue in the overlap matrix is 1.8138967818E-01.
  Using Symmetric Orthogonalization.

  SCF Guess: Superposition of Atomic Densities via on-the-fly atomic UHF.

  ==> Iterations <==

                           Total Energy        Delta E     RMS |[F,P]|

   @DF-RHF iter   0:  -382.28191570298600   -3.82282e+02   1.29065e-01 
   @DF-RHF iter   1:  -379.72489037806992    2.55703e+00   6.48381e-03 
   @DF-RHF iter   2:  -379.76547589106463   -4.05855e-02   2.22579e-03 DIIS
   @DF-RHF iter   3:  -379.76949959522977   -4.02370e-03   7.77827e-04 DIIS
   @DF-RHF iter   4:  -379.77013548111120   -6.35886e-04   1.34580e-04 DIIS
   @DF-RHF iter   5:  -379.77015903639017   -2.35553e-05   2.97609e-05 DIIS
   @DF-RHF iter   6:  -379.77016096355408   -1.92716e-06   1.04657e-05 DIIS
   @DF-RHF iter   7:  -379.77016114266780   -1.79114e-07   2.62247e-06 DIIS
   @DF-RHF iter   8:  -379.77016115218919   -9.52139e-09   1.07982e-06 DIIS
   @DF-RHF iter   9:  -379.77016115415972   -1.97053e-09   1.69846e-07 DIIS
   @DF-RHF iter  10:  -379.77016115422043   -6.07088e-11   2.65877e-08 DIIS
   @DF-RHF iter  11:  -379.77016115422180   -1.36424e-12   8.13600e-09 DIIS

  ==> Post-Iterations <==

    Orbital Energies [Eh]
    ---------------------

    Doubly Occupied:                                                      

       1Bu   -11.040753     1Ag   -11.040690     2Bu   -11.031722  
       2Ag   -11.031721     3Bu   -11.029134     3Ag   -11.029004  
       4Bu   -11.028791     4Ag   -11.028768     5Bu   -11.017606  
       5Ag   -11.017606     6Ag    -1.090403     6Bu    -1.020209  
       7Ag    -0.974906     7Bu    -0.950390     8Bu    -0.909694  
       8Ag    -0.799837     9Ag    -0.762872     9Bu    -0.727592  
      10Ag    -0.696837    11Ag    -0.628050    10Bu    -0.605619  
      11Bu    -0.572967    12Bu    -0.553611    12Ag    -0.553141  
      13Bu    -0.525429    14Bu    -0.496738    13Ag    -0.492509  
       1Au    -0.463783    15Bu    -0.446371    14Ag    -0.421649  
      15Ag    -0.415645     1Bg    -0.376887     2Au    -0.315115  
       2Bg    -0.278383     3Bg    -0.222309  

    Virtual:                                                              

       3Au     0.199180     4Au     0.268487     4Bg     0.308895  
       5Au     0.397043     5Bg     0.521831    16Ag     0.564864  
      16Bu     0.575645    17Ag     0.621623    17Bu     0.625597  
      18Ag     0.658318    18Bu     0.659424    19Bu     0.677108  
      19Ag     0.694173    20Bu     0.706756    20Ag     0.740249  
      21Ag     0.802343    21Bu     0.825891    22Ag     0.860671  
      22Bu     0.887806    23Bu     0.921027    23Ag     0.939899  
      24Ag     0.990257    24Bu     1.027331    25Ag     1.107886  
      25Bu     1.125073  

    Final Occupation by Irrep:
             Ag    Bg    Au    Bu 
    DOCC [    15,    3,    2,   15 ]

  Energy converged.

  @DF-RHF Final Energy:  -379.77016115422180

   => Energetics <=

    Nuclear Repulsion Energy =            445.9450707087843853
    One-Electron Energy =               -1400.2369842483813045
    Two-Electron Energy =                 574.5217523853750663
    Total Energy =                       -379.7701611542217961



Properties will be evaluated at   0.000000,   0.000000,   0.000000 [a0]

Properties computed using the SCF density matrix

  Nuclear Dipole Moment: [e a0]
     X:     0.0000      Y:    -0.0000      Z:     0.0000

  Electronic Dipole Moment: [e a0]
     X:     0.0000      Y:     0.0000      Z:     0.0000

  Dipole Moment: [e a0]
     X:     0.0000      Y:    -0.0000      Z:     0.0000     Total:     0.0000

  Dipole Moment: [D]
     X:     0.0000      Y:    -0.0000      Z:     0.0000     Total:     0.0000


*** tstop() called on gold at Fri Aug 24 18:30:59 2018
Module time:
	user time   =       2.04 seconds =       0.03 minutes
	system time =       0.02 seconds =       0.00 minutes
	total time  =          2 seconds =       0.03 minutes
Total time:
	user time   =      10.72 seconds =       0.18 minutes
	system time =       0.15 seconds =       0.00 minutes
	total time  =         11 seconds =       0.18 minutes

*** tstart() called on gold
*** at Fri Aug 24 18:30:59 2018


         ------------------------------------------------------------
                                   SCF GRAD                          
                          Rob Parrish, Justin Turney,                
                       Andy Simmonett, and Alex Sokolov              
         ------------------------------------------------------------

  ==> Geometry <==

    Molecular point group: c2h
    Full point group: C2h

    Geometry (in Angstrom), charge = 0, multiplicity = 1:

       Center              X                  Y                   Z               Mass       
    ------------   -----------------  -----------------  -----------------  -----------------
         C           -1.414713233173     0.230221785400     0.000000000000    12.000000000000
         C            1.414713233173    -0.230221785400     0.000000000000    12.000000000000
         C           -0.495133155800     1.314460867400     0.000000000000    12.000000000000
         C            0.495133155800    -1.314460867400     0.000000000000    12.000000000000
         C            0.889409043600     1.090949374300     0.000000000000    12.000000000000
         C           -0.889409043600    -1.090949374300     0.000000000000    12.000000000000
         H           -0.879551198500     2.343734374800     0.000000000000     1.007825032070
         H            0.879551198500    -2.343734374800     0.000000000000     1.007825032070
         H            1.577904155700     1.945006127500     0.000000000000     1.007825032070
         H           -1.577904155700    -1.945006127500     0.000000000000     1.007825032070
         C            2.884584496200    -0.521089377800     0.000000000000    12.000000000000
         C           -2.884584496200     0.521089377800     0.000000000000    12.000000000000
         H            3.140335681000    -1.591960568500     0.000000000000     1.007825032070
         H           -3.140335681000     1.591960568500     0.000000000000     1.007825032070
         C            3.880042810300     0.382253542400     0.000000000000    12.000000000000
         C           -3.880042810300    -0.382253542400     0.000000000000    12.000000000000
         H            3.694676585800     1.462438957000     0.000000000000     1.007825032070
         H           -3.694676585800    -1.462438957000     0.000000000000     1.007825032070
         H            4.931645354600     0.071104954300     0.000000000000     1.007825032070
         H           -4.931645354600    -0.071104954300     0.000000000000     1.007825032070

  Nuclear repulsion =  445.945070708784385

  ==> Basis Set <==

  Basis Set: STO-3G
    Blend: STO-3G
    Number of shells: 40
    Number of basis function: 60
    Number of Cartesian functions: 60
    Spherical Harmonics?: true
    Max angular momentum: 1

  ==> DFJKGrad: Density-Fitted SCF Gradients <==

    Gradient:                    1
    J tasked:                  Yes
    K tasked:                  Yes
    wK tasked:                  No
    OpenMP threads:              1
    Integrals threads:           1
    Memory (MB):               375
    Schwarz Cutoff:          0E+00
    Fitting Condition:       1E-12

   => Auxiliary Basis Set <=

  Basis Set: (STO-3G AUX)
    Blend: DEF2-SVP-JKFIT
    Number of shells: 310
    Number of basis function: 930
    Number of Cartesian functions: 1090
    Spherical Harmonics?: true
    Max angular momentum: 4


  -Total Gradient:
     Atom            X                  Y                   Z
    ------   -----------------  -----------------  -----------------
       1       -0.023901460112     0.003911522837     0.000000000000
       2        0.023901460112    -0.003911522837     0.000000000000
       3       -0.003188096670     0.014090842220     0.000000000000
       4        0.003188096670    -0.014090842220     0.000000000000
       5        0.005723500845     0.013460354482     0.000000000000
       6       -0.005723500845    -0.013460354482     0.000000000000
       7       -0.005004517184     0.013087264229     0.000000000000
       8        0.005004517184    -0.013087264229     0.000000000000
       9        0.009831729961     0.009852132177     0.000000000000
      10       -0.009831729961    -0.009852132177     0.000000000000
      11       -0.032599065835    -0.017545098205     0.000000000000
      12        0.032599065835     0.017545098205     0.000000000000
      13        0.003243976321    -0.014100266666     0.000000000000
      14       -0.003243976321     0.014100266666     0.000000000000
      15        0.024044729790     0.021050913823     0.000000000000
      16       -0.024044729790    -0.021050913823     0.000000000000
      17       -0.003374936194     0.013513380315     0.000000000000
      18        0.003374936194    -0.013513380315     0.000000000000
      19        0.013260010224    -0.003902744422     0.000000000000
      20       -0.013260010224     0.003902744422     0.000000000000


*** tstop() called on gold at Fri Aug 24 18:31:01 2018
Module time:
	user time   =       2.24 seconds =       0.04 minutes
	system time =       0.02 seconds =       0.00 minutes
	total time  =          2 seconds =       0.03 minutes
Total time:
	user time   =      12.97 seconds =       0.22 minutes
	system time =       0.17 seconds =       0.00 minutes
	total time  =         13 seconds =       0.22 minutes

  //>>>>>>>>>>>>>>>>>>>>>>>>>>>>>>>>>>>//
  //    Loading displacement 3 of 78   //
  //<<<<<<<<<<<<<<<<<<<<<<<<<<<<<<<<<<<//
gradient() will perform analytic gradient computation.

*** tstart() called on gold
*** at Fri Aug 24 18:31:01 2018

   => Loading Basis Set <=

    Name: STO-3G
    Role: ORBITAL
    Keyword: BASIS
    atoms 1-6, 11-12, 15-16  entry C          line    61 file /home/eric/opt/apps/python/psi4conda/share/psi4/basis/sto-3g.gbs 
    atoms 7-10, 13-14, 17-20 entry H          line    19 file /home/eric/opt/apps/python/psi4conda/share/psi4/basis/sto-3g.gbs 


         ---------------------------------------------------------
                                   SCF
            by Justin Turney, Rob Parrish, Andy Simmonett
                             and Daniel Smith
                              RHF Reference
                        1 Threads,    500 MiB Core
         ---------------------------------------------------------

  ==> Geometry <==

    Molecular point group: c2h
    Full point group: C2h

    Geometry (in Angstrom), charge = 0, multiplicity = 1:

       Center              X                  Y                   Z               Mass       
    ------------   -----------------  -----------------  -----------------  -----------------
         C           -1.415253322400     0.229681696173     0.000000000000    12.000000000000
         C            1.415253322400    -0.229681696173     0.000000000000    12.000000000000
         C           -0.495133155800     1.314460867400     0.000000000000    12.000000000000
         C            0.495133155800    -1.314460867400     0.000000000000    12.000000000000
         C            0.889409043600     1.090949374300     0.000000000000    12.000000000000
         C           -0.889409043600    -1.090949374300     0.000000000000    12.000000000000
         H           -0.879551198500     2.343734374800     0.000000000000     1.007825032070
         H            0.879551198500    -2.343734374800     0.000000000000     1.007825032070
         H            1.577904155700     1.945006127500     0.000000000000     1.007825032070
         H           -1.577904155700    -1.945006127500     0.000000000000     1.007825032070
         C            2.884584496200    -0.521089377800     0.000000000000    12.000000000000
         C           -2.884584496200     0.521089377800     0.000000000000    12.000000000000
         H            3.140335681000    -1.591960568500     0.000000000000     1.007825032070
         H           -3.140335681000     1.591960568500     0.000000000000     1.007825032070
         C            3.880042810300     0.382253542400     0.000000000000    12.000000000000
         C           -3.880042810300    -0.382253542400     0.000000000000    12.000000000000
         H            3.694676585800     1.462438957000     0.000000000000     1.007825032070
         H           -3.694676585800    -1.462438957000     0.000000000000     1.007825032070
         H            4.931645354600     0.071104954300     0.000000000000     1.007825032070
         H           -4.931645354600    -0.071104954300     0.000000000000     1.007825032070

  Running in c2h symmetry.

  Rotational constants: A =      0.15404  B =      0.02287  C =      0.01992 [cm^-1]
  Rotational constants: A =   4618.10209  B =    685.76167  C =    597.09629 [MHz]
  Nuclear repulsion =  445.939140896593017

  Charge       = 0
  Multiplicity = 1
  Electrons    = 70
  Nalpha       = 35
  Nbeta        = 35

  ==> Algorithm <==

  SCF Algorithm Type is DF.
  DIIS enabled.
  MOM disabled.
  Fractional occupation disabled.
  Guess Type is SAD.
  Energy threshold   = 1.00e-08
  Density threshold  = 1.00e-08
  Integral threshold = 0.00e+00

  ==> Primary Basis <==

  Basis Set: STO-3G
    Blend: STO-3G
    Number of shells: 40
    Number of basis function: 60
    Number of Cartesian functions: 60
    Spherical Harmonics?: true
    Max angular momentum: 1

   => Loading Basis Set <=

    Name: (STO-3G AUX)
    Role: JKFIT
    Keyword: DF_BASIS_SCF
    atoms 1-6, 11-12, 15-16  entry C          line   203 file /home/eric/opt/apps/python/psi4conda/share/psi4/basis/def2-svp-jkfit.gbs 
    atoms 7-10, 13-14, 17-20 entry H          line    23 file /home/eric/opt/apps/python/psi4conda/share/psi4/basis/def2-svp-jkfit.gbs 

  ==> Pre-Iterations <==

   -------------------------------------------------------
    Irrep   Nso     Nmo     Nalpha   Nbeta   Ndocc  Nsocc
   -------------------------------------------------------
     Ag        25      25       0       0       0       0
     Bg         5       5       0       0       0       0
     Au         5       5       0       0       0       0
     Bu        25      25       0       0       0       0
   -------------------------------------------------------
    Total      60      60      35      35      35       0
   -------------------------------------------------------

  ==> Integral Setup <==

  DFHelper Memory: AOs need 0.031 [GiB]; user supplied 0.366 [GiB]. Using in-core AOs.

  ==> MemDFJK: Density-Fitted J/K Matrices <==

    J tasked:                   Yes
    K tasked:                   Yes
    wK tasked:                   No
    OpenMP threads:               1
    Memory (MB):                375
    Algorithm:                 Core
    Schwarz Cutoff:           1E-12
    Mask sparsity (%):       4.1111
    Fitting Condition:        1E-12

   => Auxiliary Basis Set <=

  Basis Set: (STO-3G AUX)
    Blend: DEF2-SVP-JKFIT
    Number of shells: 310
    Number of basis function: 930
    Number of Cartesian functions: 1090
    Spherical Harmonics?: true
    Max angular momentum: 4

  Minimum eigenvalue in the overlap matrix is 1.8145400640E-01.
  Using Symmetric Orthogonalization.

  SCF Guess: Superposition of Atomic Densities via on-the-fly atomic UHF.

  ==> Iterations <==

                           Total Energy        Delta E     RMS |[F,P]|

   @DF-RHF iter   0:  -379.17790556488632   -3.79178e+02   1.18056e-01 
   @DF-RHF iter   1:  -379.60044961900758   -4.22544e-01   1.17788e-02 
   @DF-RHF iter   2:  -379.75766737408139   -1.57218e-01   3.19322e-03 DIIS
   @DF-RHF iter   3:  -379.76954858098077   -1.18812e-02   8.56232e-04 DIIS
   @DF-RHF iter   4:  -379.77010605203361   -5.57471e-04   1.00535e-04 DIIS
   @DF-RHF iter   5:  -379.77011745841241   -1.14064e-05   2.83791e-05 DIIS
   @DF-RHF iter   6:  -379.77011843997423   -9.81562e-07   6.92055e-06 DIIS
   @DF-RHF iter   7:  -379.77011853360960   -9.36354e-08   1.86841e-06 DIIS
   @DF-RHF iter   8:  -379.77011853980150   -6.19190e-09   5.02964e-07 DIIS
   @DF-RHF iter   9:  -379.77011854019361   -3.92106e-10   1.52976e-07 DIIS
   @DF-RHF iter  10:  -379.77011854022658   -3.29692e-11   4.66065e-08 DIIS
   @DF-RHF iter  11:  -379.77011854023056   -3.97904e-12   1.32363e-08 DIIS
   @DF-RHF iter  12:  -379.77011854023044    1.13687e-13   1.37997e-09 DIIS

  ==> Post-Iterations <==

    Orbital Energies [Eh]
    ---------------------

    Doubly Occupied:                                                      

       1Bu   -11.040744     1Ag   -11.040681     2Bu   -11.031742  
       2Ag   -11.031742     3Bu   -11.029111     3Ag   -11.028981  
       4Bu   -11.028764     4Ag   -11.028740     5Bu   -11.017620  
       5Ag   -11.017620     6Ag    -1.090327     6Bu    -1.020266  
       7Ag    -0.974936     7Bu    -0.950306     8Bu    -0.909668  
       8Ag    -0.799832     9Ag    -0.762906     9Bu    -0.727627  
      10Ag    -0.696756    11Ag    -0.628052    10Bu    -0.605658  
      11Bu    -0.572943    12Bu    -0.553662    12Ag    -0.553153  
      13Bu    -0.525334    14Bu    -0.496635    13Ag    -0.492545  
       1Au    -0.463728    15Bu    -0.446467    14Ag    -0.421508  
      15Ag    -0.415759     1Bg    -0.376939     2Au    -0.315115  
       2Bg    -0.278355     3Bg    -0.222193  

    Virtual:                                                              

       3Au     0.199063     4Au     0.268520     4Bg     0.308861  
       5Au     0.397090     5Bg     0.521794    16Ag     0.565065  
      16Bu     0.575679    17Ag     0.621540    17Bu     0.625672  
      18Ag     0.658255    18Bu     0.659445    19Bu     0.677241  
      19Ag     0.694210    20Bu     0.706657    20Ag     0.740130  
      21Ag     0.802264    21Bu     0.825827    22Ag     0.860700  
      22Bu     0.887659    23Bu     0.921139    23Ag     0.939980  
      24Ag     0.990265    24Bu     1.027251    25Ag     1.107781  
      25Bu     1.124994  

    Final Occupation by Irrep:
             Ag    Bg    Au    Bu 
    DOCC [    15,    3,    2,   15 ]

  Energy converged.

  @DF-RHF Final Energy:  -379.77011854023044

   => Energetics <=

    Nuclear Repulsion Energy =            445.9391408965930168
    One-Electron Energy =               -1400.2256869633154110
    Two-Electron Energy =                 574.5164275264919524
    Total Energy =                       -379.7701185402304418



Properties will be evaluated at   0.000000,   0.000000,   0.000000 [a0]

Properties computed using the SCF density matrix

  Nuclear Dipole Moment: [e a0]
     X:     0.0000      Y:     0.0000      Z:     0.0000

  Electronic Dipole Moment: [e a0]
     X:     0.0000      Y:     0.0000      Z:     0.0000

  Dipole Moment: [e a0]
     X:     0.0000      Y:     0.0000      Z:     0.0000     Total:     0.0000

  Dipole Moment: [D]
     X:     0.0000      Y:     0.0000      Z:     0.0000     Total:     0.0000


*** tstop() called on gold at Fri Aug 24 18:31:03 2018
Module time:
	user time   =       2.04 seconds =       0.03 minutes
	system time =       0.01 seconds =       0.00 minutes
	total time  =          2 seconds =       0.03 minutes
Total time:
	user time   =      15.01 seconds =       0.25 minutes
	system time =       0.18 seconds =       0.00 minutes
	total time  =         15 seconds =       0.25 minutes

*** tstart() called on gold
*** at Fri Aug 24 18:31:03 2018


         ------------------------------------------------------------
                                   SCF GRAD                          
                          Rob Parrish, Justin Turney,                
                       Andy Simmonett, and Alex Sokolov              
         ------------------------------------------------------------

  ==> Geometry <==

    Molecular point group: c2h
    Full point group: C2h

    Geometry (in Angstrom), charge = 0, multiplicity = 1:

       Center              X                  Y                   Z               Mass       
    ------------   -----------------  -----------------  -----------------  -----------------
         C           -1.415253322400     0.229681696173     0.000000000000    12.000000000000
         C            1.415253322400    -0.229681696173     0.000000000000    12.000000000000
         C           -0.495133155800     1.314460867400     0.000000000000    12.000000000000
         C            0.495133155800    -1.314460867400     0.000000000000    12.000000000000
         C            0.889409043600     1.090949374300     0.000000000000    12.000000000000
         C           -0.889409043600    -1.090949374300     0.000000000000    12.000000000000
         H           -0.879551198500     2.343734374800     0.000000000000     1.007825032070
         H            0.879551198500    -2.343734374800     0.000000000000     1.007825032070
         H            1.577904155700     1.945006127500     0.000000000000     1.007825032070
         H           -1.577904155700    -1.945006127500     0.000000000000     1.007825032070
         C            2.884584496200    -0.521089377800     0.000000000000    12.000000000000
         C           -2.884584496200     0.521089377800     0.000000000000    12.000000000000
         H            3.140335681000    -1.591960568500     0.000000000000     1.007825032070
         H           -3.140335681000     1.591960568500     0.000000000000     1.007825032070
         C            3.880042810300     0.382253542400     0.000000000000    12.000000000000
         C           -3.880042810300    -0.382253542400     0.000000000000    12.000000000000
         H            3.694676585800     1.462438957000     0.000000000000     1.007825032070
         H           -3.694676585800    -1.462438957000     0.000000000000     1.007825032070
         H            4.931645354600     0.071104954300     0.000000000000     1.007825032070
         H           -4.931645354600    -0.071104954300     0.000000000000     1.007825032070

  Nuclear repulsion =  445.939140896593017

  ==> Basis Set <==

  Basis Set: STO-3G
    Blend: STO-3G
    Number of shells: 40
    Number of basis function: 60
    Number of Cartesian functions: 60
    Spherical Harmonics?: true
    Max angular momentum: 1

  ==> DFJKGrad: Density-Fitted SCF Gradients <==

    Gradient:                    1
    J tasked:                  Yes
    K tasked:                  Yes
    wK tasked:                  No
    OpenMP threads:              1
    Integrals threads:           1
    Memory (MB):               375
    Schwarz Cutoff:          0E+00
    Fitting Condition:       1E-12

   => Auxiliary Basis Set <=

  Basis Set: (STO-3G AUX)
    Blend: DEF2-SVP-JKFIT
    Number of shells: 310
    Number of basis function: 930
    Number of Cartesian functions: 1090
    Spherical Harmonics?: true
    Max angular momentum: 4


  -Total Gradient:
     Atom            X                  Y                   Z
    ------   -----------------  -----------------  -----------------
       1       -0.024742327426     0.002981643492     0.000000000000
       2        0.024742327426    -0.002981643492     0.000000000000
       3       -0.002784264641     0.014616495148     0.000000000000
       4        0.002784264641    -0.014616495148     0.000000000000
       5        0.005688719984     0.013150009055     0.000000000000
       6       -0.005688719984    -0.013150009055     0.000000000000
       7       -0.004998729302     0.013087969843     0.000000000000
       8        0.004998729302    -0.013087969843     0.000000000000
       9        0.009865381766     0.009808793671     0.000000000000
      10       -0.009865381766    -0.009808793671     0.000000000000
      11       -0.032860505617    -0.017628200596     0.000000000000
      12        0.032860505617     0.017628200596     0.000000000000
      13        0.003274709930    -0.014107278165     0.000000000000
      14       -0.003274709930     0.014107278165     0.000000000000
      15        0.023972035013     0.021059193858     0.000000000000
      16       -0.023972035013    -0.021059193858     0.000000000000
      17       -0.003371197474     0.013514732423     0.000000000000
      18        0.003371197474    -0.013514732423     0.000000000000
      19        0.013255888777    -0.003908274610     0.000000000000
      20       -0.013255888777     0.003908274610     0.000000000000


*** tstop() called on gold at Fri Aug 24 18:31:05 2018
Module time:
	user time   =       2.24 seconds =       0.04 minutes
	system time =       0.02 seconds =       0.00 minutes
	total time  =          2 seconds =       0.03 minutes
Total time:
	user time   =      17.25 seconds =       0.29 minutes
	system time =       0.20 seconds =       0.00 minutes
	total time  =         17 seconds =       0.28 minutes

  //>>>>>>>>>>>>>>>>>>>>>>>>>>>>>>>>>>>//
  //    Loading displacement 4 of 78   //
  //<<<<<<<<<<<<<<<<<<<<<<<<<<<<<<<<<<<//
gradient() will perform analytic gradient computation.

*** tstart() called on gold
*** at Fri Aug 24 18:31:05 2018

   => Loading Basis Set <=

    Name: STO-3G
    Role: ORBITAL
    Keyword: BASIS
    atoms 1-6, 11-12, 15-16  entry C          line    61 file /home/eric/opt/apps/python/psi4conda/share/psi4/basis/sto-3g.gbs 
    atoms 7-10, 13-14, 17-20 entry H          line    19 file /home/eric/opt/apps/python/psi4conda/share/psi4/basis/sto-3g.gbs 


         ---------------------------------------------------------
                                   SCF
            by Justin Turney, Rob Parrish, Andy Simmonett
                             and Daniel Smith
                              RHF Reference
                        1 Threads,    500 MiB Core
         ---------------------------------------------------------

  ==> Geometry <==

    Molecular point group: c2h
    Full point group: C2h

    Geometry (in Angstrom), charge = 0, multiplicity = 1:

       Center              X                  Y                   Z               Mass       
    ------------   -----------------  -----------------  -----------------  -----------------
         C           -1.415253322400     0.230761874627     0.000000000000    12.000000000000
         C            1.415253322400    -0.230761874627     0.000000000000    12.000000000000
         C           -0.495133155800     1.314460867400     0.000000000000    12.000000000000
         C            0.495133155800    -1.314460867400     0.000000000000    12.000000000000
         C            0.889409043600     1.090949374300     0.000000000000    12.000000000000
         C           -0.889409043600    -1.090949374300     0.000000000000    12.000000000000
         H           -0.879551198500     2.343734374800     0.000000000000     1.007825032070
         H            0.879551198500    -2.343734374800     0.000000000000     1.007825032070
         H            1.577904155700     1.945006127500     0.000000000000     1.007825032070
         H           -1.577904155700    -1.945006127500     0.000000000000     1.007825032070
         C            2.884584496200    -0.521089377800     0.000000000000    12.000000000000
         C           -2.884584496200     0.521089377800     0.000000000000    12.000000000000
         H            3.140335681000    -1.591960568500     0.000000000000     1.007825032070
         H           -3.140335681000     1.591960568500     0.000000000000     1.007825032070
         C            3.880042810300     0.382253542400     0.000000000000    12.000000000000
         C           -3.880042810300    -0.382253542400     0.000000000000    12.000000000000
         H            3.694676585800     1.462438957000     0.000000000000     1.007825032070
         H           -3.694676585800    -1.462438957000     0.000000000000     1.007825032070
         H            4.931645354600     0.071104954300     0.000000000000     1.007825032070
         H           -4.931645354600    -0.071104954300     0.000000000000     1.007825032070

  Running in c2h symmetry.

  Rotational constants: A =      0.15403  B =      0.02287  C =      0.01992 [cm^-1]
  Rotational constants: A =   4617.58403  B =    685.76199  C =    597.08787 [MHz]
  Nuclear repulsion =  445.934820121526741

  Charge       = 0
  Multiplicity = 1
  Electrons    = 70
  Nalpha       = 35
  Nbeta        = 35

  ==> Algorithm <==

  SCF Algorithm Type is DF.
  DIIS enabled.
  MOM disabled.
  Fractional occupation disabled.
  Guess Type is SAD.
  Energy threshold   = 1.00e-08
  Density threshold  = 1.00e-08
  Integral threshold = 0.00e+00

  ==> Primary Basis <==

  Basis Set: STO-3G
    Blend: STO-3G
    Number of shells: 40
    Number of basis function: 60
    Number of Cartesian functions: 60
    Spherical Harmonics?: true
    Max angular momentum: 1

   => Loading Basis Set <=

    Name: (STO-3G AUX)
    Role: JKFIT
    Keyword: DF_BASIS_SCF
    atoms 1-6, 11-12, 15-16  entry C          line   203 file /home/eric/opt/apps/python/psi4conda/share/psi4/basis/def2-svp-jkfit.gbs 
    atoms 7-10, 13-14, 17-20 entry H          line    23 file /home/eric/opt/apps/python/psi4conda/share/psi4/basis/def2-svp-jkfit.gbs 

  ==> Pre-Iterations <==

   -------------------------------------------------------
    Irrep   Nso     Nmo     Nalpha   Nbeta   Ndocc  Nsocc
   -------------------------------------------------------
     Ag        25      25       0       0       0       0
     Bg         5       5       0       0       0       0
     Au         5       5       0       0       0       0
     Bu        25      25       0       0       0       0
   -------------------------------------------------------
    Total      60      60      35      35      35       0
   -------------------------------------------------------

  ==> Integral Setup <==

  DFHelper Memory: AOs need 0.031 [GiB]; user supplied 0.366 [GiB]. Using in-core AOs.

  ==> MemDFJK: Density-Fitted J/K Matrices <==

    J tasked:                   Yes
    K tasked:                   Yes
    wK tasked:                   No
    OpenMP threads:               1
    Memory (MB):                375
    Algorithm:                 Core
    Schwarz Cutoff:           1E-12
    Mask sparsity (%):       4.1111
    Fitting Condition:        1E-12

   => Auxiliary Basis Set <=

  Basis Set: (STO-3G AUX)
    Blend: DEF2-SVP-JKFIT
    Number of shells: 310
    Number of basis function: 930
    Number of Cartesian functions: 1090
    Spherical Harmonics?: true
    Max angular momentum: 4

  Minimum eigenvalue in the overlap matrix is 1.8148756675E-01.
  Using Symmetric Orthogonalization.

  SCF Guess: Superposition of Atomic Densities via on-the-fly atomic UHF.

  ==> Iterations <==

                           Total Energy        Delta E     RMS |[F,P]|

   @DF-RHF iter   0:  -379.40193212472349   -3.79402e+02   1.22407e-01 
   @DF-RHF iter   1:  -379.51117112848328   -1.09239e-01   1.48258e-02 
   @DF-RHF iter   2:  -379.75321576830305   -2.42045e-01   3.85598e-03 DIIS
   @DF-RHF iter   3:  -379.76814992396464   -1.49342e-02   1.54616e-03 DIIS
   @DF-RHF iter   4:  -379.77004962557544   -1.89970e-03   2.31140e-04 DIIS
   @DF-RHF iter   5:  -379.77010117981246   -5.15542e-05   2.54673e-05 DIIS
   @DF-RHF iter   6:  -379.77010247936266   -1.29955e-06   8.41276e-06 DIIS
   @DF-RHF iter   7:  -379.77010258932029   -1.09958e-07   2.68765e-06 DIIS
   @DF-RHF iter   8:  -379.77010260299659   -1.36763e-08   6.93257e-07 DIIS
   @DF-RHF iter   9:  -379.77010260377716   -7.80574e-10   2.08332e-07 DIIS
   @DF-RHF iter  10:  -379.77010260384361   -6.64500e-11   5.06666e-08 DIIS
   @DF-RHF iter  11:  -379.77010260384804   -4.43379e-12   1.17642e-08 DIIS
   @DF-RHF iter  12:  -379.77010260384884   -7.95808e-13   2.74108e-09 DIIS

  ==> Post-Iterations <==

    Orbital Energies [Eh]
    ---------------------

    Doubly Occupied:                                                      

       1Bu   -11.040749     1Ag   -11.040687     2Bu   -11.031754  
       2Ag   -11.031753     3Bu   -11.029110     3Ag   -11.028979  
       4Bu   -11.028769     4Ag   -11.028747     5Bu   -11.017647  
       5Ag   -11.017647     6Ag    -1.090306     6Bu    -1.020279  
       7Ag    -0.974945     7Bu    -0.950331     8Bu    -0.909632  
       8Ag    -0.799959     9Ag    -0.762768     9Bu    -0.727656  
      10Ag    -0.696804    11Ag    -0.628041    10Bu    -0.605693  
      11Bu    -0.572952    12Bu    -0.553539    12Ag    -0.553170  
      13Bu    -0.525371    14Bu    -0.496756    13Ag    -0.492512  
       1Au    -0.463714    15Bu    -0.446400    14Ag    -0.421810  
      15Ag    -0.415497     1Bg    -0.376967     2Au    -0.315123  
       2Bg    -0.278348     3Bg    -0.222165  

    Virtual:                                                              

       3Au     0.198969     4Au     0.268556     4Bg     0.308837  
       5Au     0.397114     5Bg     0.521786    16Ag     0.565032  
      16Bu     0.575523    17Ag     0.621631    17Bu     0.626002  
      18Ag     0.658239    18Bu     0.659368    19Bu     0.677174  
      19Ag     0.694186    20Bu     0.706777    20Ag     0.740175  
      21Ag     0.802246    21Bu     0.825547    22Ag     0.860581  
      22Bu     0.887929    23Bu     0.920942    23Ag     0.939975  
      24Ag     0.990381    24Bu     1.027341    25Ag     1.107715  
      25Bu     1.124932  

    Final Occupation by Irrep:
             Ag    Bg    Au    Bu 
    DOCC [    15,    3,    2,   15 ]

  Energy converged.

  @DF-RHF Final Energy:  -379.77010260384884

   => Energetics <=

    Nuclear Repulsion Energy =            445.9348201215267409
    One-Electron Energy =               -1400.2166852362543068
    Two-Electron Energy =                 574.5117625108787252
    Total Energy =                       -379.7701026038488408



Properties will be evaluated at   0.000000,   0.000000,   0.000000 [a0]

Properties computed using the SCF density matrix

  Nuclear Dipole Moment: [e a0]
     X:     0.0000      Y:     0.0000      Z:     0.0000

  Electronic Dipole Moment: [e a0]
     X:     0.0000      Y:     0.0000      Z:     0.0000

  Dipole Moment: [e a0]
     X:     0.0000      Y:     0.0000      Z:     0.0000     Total:     0.0000

  Dipole Moment: [D]
     X:     0.0000      Y:     0.0000      Z:     0.0000     Total:     0.0000


*** tstop() called on gold at Fri Aug 24 18:31:07 2018
Module time:
	user time   =       2.07 seconds =       0.03 minutes
	system time =       0.01 seconds =       0.00 minutes
	total time  =          2 seconds =       0.03 minutes
Total time:
	user time   =      19.33 seconds =       0.32 minutes
	system time =       0.21 seconds =       0.00 minutes
	total time  =         19 seconds =       0.32 minutes

*** tstart() called on gold
*** at Fri Aug 24 18:31:07 2018


         ------------------------------------------------------------
                                   SCF GRAD                          
                          Rob Parrish, Justin Turney,                
                       Andy Simmonett, and Alex Sokolov              
         ------------------------------------------------------------

  ==> Geometry <==

    Molecular point group: c2h
    Full point group: C2h

    Geometry (in Angstrom), charge = 0, multiplicity = 1:

       Center              X                  Y                   Z               Mass       
    ------------   -----------------  -----------------  -----------------  -----------------
         C           -1.415253322400     0.230761874627     0.000000000000    12.000000000000
         C            1.415253322400    -0.230761874627     0.000000000000    12.000000000000
         C           -0.495133155800     1.314460867400     0.000000000000    12.000000000000
         C            0.495133155800    -1.314460867400     0.000000000000    12.000000000000
         C            0.889409043600     1.090949374300     0.000000000000    12.000000000000
         C           -0.889409043600    -1.090949374300     0.000000000000    12.000000000000
         H           -0.879551198500     2.343734374800     0.000000000000     1.007825032070
         H            0.879551198500    -2.343734374800     0.000000000000     1.007825032070
         H            1.577904155700     1.945006127500     0.000000000000     1.007825032070
         H           -1.577904155700    -1.945006127500     0.000000000000     1.007825032070
         C            2.884584496200    -0.521089377800     0.000000000000    12.000000000000
         C           -2.884584496200     0.521089377800     0.000000000000    12.000000000000
         H            3.140335681000    -1.591960568500     0.000000000000     1.007825032070
         H           -3.140335681000     1.591960568500     0.000000000000     1.007825032070
         C            3.880042810300     0.382253542400     0.000000000000    12.000000000000
         C           -3.880042810300    -0.382253542400     0.000000000000    12.000000000000
         H            3.694676585800     1.462438957000     0.000000000000     1.007825032070
         H           -3.694676585800    -1.462438957000     0.000000000000     1.007825032070
         H            4.931645354600     0.071104954300     0.000000000000     1.007825032070
         H           -4.931645354600    -0.071104954300     0.000000000000     1.007825032070

  Nuclear repulsion =  445.934820121526798

  ==> Basis Set <==

  Basis Set: STO-3G
    Blend: STO-3G
    Number of shells: 40
    Number of basis function: 60
    Number of Cartesian functions: 60
    Spherical Harmonics?: true
    Max angular momentum: 1

  ==> DFJKGrad: Density-Fitted SCF Gradients <==

    Gradient:                    1
    J tasked:                  Yes
    K tasked:                  Yes
    wK tasked:                  No
    OpenMP threads:              1
    Integrals threads:           1
    Memory (MB):               375
    Schwarz Cutoff:          0E+00
    Fitting Condition:       1E-12

   => Auxiliary Basis Set <=

  Basis Set: (STO-3G AUX)
    Blend: DEF2-SVP-JKFIT
    Number of shells: 310
    Number of basis function: 930
    Number of Cartesian functions: 1090
    Spherical Harmonics?: true
    Max angular momentum: 4


  -Total Gradient:
     Atom            X                  Y                   Z
    ------   -----------------  -----------------  -----------------
       1       -0.024727743710     0.004825652015     0.000000000000
       2        0.024727743710    -0.004825652015     0.000000000000
       3       -0.003121866191     0.013947343332     0.000000000000
       4        0.003121866191    -0.013947343332     0.000000000000
       5        0.005485052860     0.014011441199     0.000000000000
       6       -0.005485052860    -0.014011441199     0.000000000000
       7       -0.005048912424     0.013055336502     0.000000000000
       8        0.005048912424    -0.013055336502     0.000000000000
       9        0.009839935514     0.009839899125     0.000000000000
      10       -0.009839935514    -0.009839899125     0.000000000000
      11       -0.032925992270    -0.017332614259     0.000000000000
      12        0.032925992270     0.017332614259     0.000000000000
      13        0.003201068567    -0.014103600757     0.000000000000
      14       -0.003201068567     0.014103600757     0.000000000000
      15        0.024023259371     0.021018992130     0.000000000000
      16       -0.024023259371    -0.021018992130     0.000000000000
      17       -0.003374868070     0.013513143850     0.000000000000
      18        0.003374868070    -0.013513143850     0.000000000000
      19        0.013261814935    -0.003899824847     0.000000000000
      20       -0.013261814935     0.003899824847     0.000000000000


*** tstop() called on gold at Fri Aug 24 18:31:10 2018
Module time:
	user time   =       2.30 seconds =       0.04 minutes
	system time =       0.03 seconds =       0.00 minutes
	total time  =          3 seconds =       0.05 minutes
Total time:
	user time   =      21.63 seconds =       0.36 minutes
	system time =       0.24 seconds =       0.00 minutes
	total time  =         22 seconds =       0.37 minutes

[...]
     19   H                0.02  0.00  0.00   -0.02 -0.04 -0.00   -0.04 -0.07  0.00   
     20   H               -0.02 -0.00  0.00   -0.02 -0.04 -0.00    0.04  0.07  0.00   

  Vibration                       43                  44                  45          
  Freq [cm^-1]                1636.4052           1714.7087           1726.9378       
  Irrep                           Bu                  Ag                  Bu          
  Reduced mass [u]              2.1966              1.4029              1.3175        
  Force const [mDyne/A]         3.4656              2.4303              2.3150        
  Turning point v=0 [a0]        0.1830              0.2237              0.2300        
  RMS dev v=0 [a0 u^1/2]        0.1918              0.1874              0.1867        
  Char temp [K]               2354.4191           2467.0802           2484.6752       
  ----------------------------------------------------------------------------------
      1   C               -0.00  0.14  0.00   -0.03  0.03  0.00    0.02  0.04  0.00   
      2   C               -0.00  0.14 -0.00    0.03 -0.03 -0.00    0.02  0.04 -0.00   
      3   C                0.10 -0.06 -0.00   -0.04 -0.02 -0.00    0.04  0.01 -0.00   
      4   C                0.10 -0.06 -0.00    0.04  0.02 -0.00    0.04  0.01 -0.00   
      5   C               -0.13  0.01 -0.00    0.01  0.03 -0.00   -0.02 -0.03 -0.00   
      6   C               -0.13  0.01 -0.00   -0.01 -0.03 -0.00   -0.02 -0.03 -0.00   
      7   H               -0.27 -0.23 -0.00    0.12  0.04 -0.00   -0.17 -0.08 -0.00   
      8   H               -0.27 -0.23 -0.00   -0.12 -0.04 -0.00   -0.17 -0.08 -0.00   
      9   H                0.35 -0.41 -0.00    0.06 -0.01 -0.00   -0.07  0.01 -0.00   
     10   H                0.35 -0.41 -0.00   -0.06  0.01 -0.00   -0.07  0.01 -0.00   
     11   C                0.07 -0.01  0.00   -0.11 -0.03  0.00   -0.09 -0.03  0.00   
     12   C                0.07 -0.01  0.00    0.11  0.03  0.00   -0.09 -0.03  0.00   
     13   H                0.01 -0.02  0.00    0.28  0.06  0.00    0.31  0.06  0.00   
     14   H                0.01 -0.02  0.00   -0.28 -0.06  0.00    0.31  0.06  0.00   
     15   C               -0.04 -0.01  0.00    0.01 -0.02  0.00   -0.00 -0.03  0.00   
     16   C               -0.04 -0.01  0.00   -0.01  0.02  0.00   -0.00 -0.03  0.00   
     17   H               -0.06 -0.02 -0.00    0.36  0.05 -0.00    0.37  0.05 -0.00   
     18   H               -0.06 -0.02  0.00   -0.36 -0.05  0.00    0.37  0.05  0.00   
     19   H               -0.09 -0.15  0.00    0.17  0.46  0.00    0.15  0.43  0.00   
     20   H               -0.09 -0.15  0.00   -0.17 -0.46  0.00    0.15  0.43  0.00   

  Vibration                       46                  47                  48          
  Freq [cm^-1]                1786.9378           1807.2894           1874.3070       
  Irrep                           Bu                  Ag                  Ag          
  Reduced mass [u]              2.1542              3.5285              4.5271        
  Force const [mDyne/A]         4.0527              6.7904              9.3703        
  Turning point v=0 [a0]        0.1769              0.1374              0.1191        
  RMS dev v=0 [a0 u^1/2]        0.1835              0.1825              0.1792        
  Char temp [K]               2571.0017           2600.2830           2696.7063       
  ----------------------------------------------------------------------------------
      1   C                0.14 -0.03  0.00    0.03  0.23  0.00   -0.18  0.04  0.00   
      2   C                0.14 -0.03  0.00   -0.03 -0.23 -0.00    0.18 -0.04  0.00   
      3   C               -0.10 -0.07 -0.00   -0.10 -0.14 -0.00    0.25  0.02  0.00   
      4   C               -0.10 -0.07  0.00    0.10  0.14 -0.00   -0.25 -0.02  0.00   
      5   C               -0.07  0.10  0.00   -0.05  0.16  0.00   -0.23  0.10 -0.00   
      6   C               -0.07  0.10  0.00    0.05 -0.16 -0.00    0.23 -0.10  0.00   
      7   H                0.44  0.12  0.00    0.33 -0.00 -0.00   -0.34 -0.22 -0.00   
      8   H                0.44  0.12  0.00   -0.33  0.00 -0.00    0.34  0.22  0.00   
      9   H                0.37 -0.23  0.00    0.33 -0.11 -0.00    0.26 -0.32 -0.00   
     10   H                0.37 -0.23  0.00   -0.33  0.11 -0.00   -0.26  0.32 -0.00   
     11   C               -0.03  0.02 -0.00    0.00  0.02  0.00   -0.03  0.02 -0.00   
     12   C               -0.03  0.02 -0.00   -0.00 -0.02  0.00    0.03 -0.02  0.00   
     13   H               -0.01  0.03 -0.00   -0.19 -0.03  0.00    0.01  0.03  0.00   
     14   H               -0.01  0.03 -0.00    0.19  0.03  0.00   -0.01 -0.03  0.00   
     15   C               -0.02 -0.03 -0.00    0.04  0.03  0.00   -0.01 -0.01  0.00   
     16   C               -0.02 -0.03 -0.00   -0.04 -0.03  0.00    0.01  0.01  0.00   
     17   H                0.14  0.00  0.00   -0.27 -0.02 -0.00    0.04 -0.01 -0.00   
     18   H                0.14  0.00 -0.00    0.27  0.02  0.00   -0.04  0.01  0.00   
     19   H                0.04  0.18 -0.00   -0.04 -0.23  0.00    0.01  0.07  0.00   
     20   H                0.04  0.18 -0.00    0.04  0.23  0.00   -0.01 -0.07  0.00   

  Vibration                       49                  50                  51          
  Freq [cm^-1]                1942.6287           1944.9750           3519.8381       
  Irrep                           Ag                  Bu                  Bu          
  Reduced mass [u]              2.9398              2.9545              1.0639        
  Force const [mDyne/A]         6.5365              6.5852              7.7657        
  Turning point v=0 [a0]        0.1452              0.1447              0.1793        
  RMS dev v=0 [a0 u^1/2]        0.1760              0.1759              0.1308        
  Char temp [K]               2795.0060           2798.3818           5064.2557       
  ----------------------------------------------------------------------------------
      1   C                0.04  0.05 -0.00   -0.05 -0.02 -0.00   -0.00 -0.00 -0.00   
      2   C               -0.04 -0.05 -0.00   -0.05 -0.02 -0.00   -0.00 -0.00 -0.00   
      3   C               -0.00 -0.02  0.00   -0.01  0.01 -0.00    0.00 -0.00  0.00   
      4   C                0.00  0.02 -0.00   -0.01  0.01 -0.00    0.00 -0.00  0.00   
      5   C               -0.01  0.02  0.00    0.02 -0.01  0.00    0.00  0.00 -0.00   
      6   C                0.01 -0.02  0.00    0.02 -0.01  0.00    0.00  0.00 -0.00   
      7   H                0.03 -0.02 -0.00   -0.00  0.02 -0.00   -0.01  0.02 -0.00   
      8   H               -0.03  0.02 -0.00   -0.00  0.02 -0.00   -0.01  0.02 -0.00   
      9   H                0.00  0.02 -0.00   -0.06  0.06 -0.00   -0.02 -0.03  0.00   
     10   H               -0.00 -0.02 -0.00   -0.06  0.06 -0.00   -0.02 -0.03  0.00   
     11   C                0.18  0.11  0.00    0.19  0.11  0.00    0.01 -0.01 -0.00   
     12   C               -0.18 -0.11  0.00    0.19  0.11  0.00    0.01 -0.01 -0.00   
     13   H               -0.30  0.02  0.00   -0.29  0.02  0.00   -0.05  0.21 -0.00   
     14   H                0.30 -0.02  0.00   -0.29  0.02  0.00   -0.05  0.21 -0.00   
     15   C               -0.15 -0.12  0.00   -0.15 -0.12  0.00   -0.04 -0.03  0.00   
     16   C                0.15  0.12  0.00   -0.15 -0.12  0.00   -0.04 -0.03  0.00   
     17   H                0.43 -0.05  0.00    0.43 -0.05  0.00   -0.08  0.46  0.00   
     18   H               -0.43  0.05  0.00    0.43 -0.05  0.00   -0.08  0.46  0.00   
     19   H               -0.04  0.37  0.00   -0.05  0.36  0.00    0.46 -0.14 -0.00   
     20   H                0.04 -0.37  0.00   -0.05  0.36  0.00    0.46 -0.14 -0.00   

  Vibration                       52                  53                  54          
  Freq [cm^-1]                3521.1502           3565.6043           3565.7441       
  Irrep                           Ag                  Bu                  Ag          
  Reduced mass [u]              1.0638              1.0994              1.0995        
  Force const [mDyne/A]         7.7712              8.2354              8.2366        
  Turning point v=0 [a0]        0.1793              0.1753              0.1752        
  RMS dev v=0 [a0 u^1/2]        0.1308              0.1299              0.1299        
  Char temp [K]               5066.1434           5130.1028           5130.3040       
  ----------------------------------------------------------------------------------
      1   C                0.00  0.00  0.00   -0.00  0.00 -0.00    0.00 -0.00  0.00   
      2   C               -0.00 -0.00  0.00   -0.00  0.00  0.00   -0.00  0.00  0.00   
      3   C               -0.00  0.00 -0.00    0.00 -0.00 -0.00   -0.00  0.00  0.00   
      4   C                0.00 -0.00  0.00    0.00 -0.00 -0.00    0.00 -0.00  0.00   
      5   C                0.00  0.00 -0.00   -0.00 -0.00 -0.00   -0.00 -0.00 -0.00   
      6   C               -0.00 -0.00 -0.00   -0.00 -0.00 -0.00    0.00  0.00  0.00   
      7   H               -0.00  0.00  0.00   -0.00  0.00 -0.00    0.00 -0.01 -0.00   
      8   H                0.00 -0.00 -0.00   -0.00  0.00  0.00   -0.00  0.01 -0.00   
      9   H               -0.02 -0.02  0.00    0.01  0.01 -0.00    0.01  0.01 -0.00   
     10   H                0.02  0.02  0.00    0.01  0.01  0.00   -0.01 -0.01  0.00   
     11   C                0.01 -0.01 -0.00    0.01 -0.06 -0.00    0.01 -0.06 -0.00   
     12   C               -0.01  0.01 -0.00    0.01 -0.06 -0.00   -0.01  0.06 -0.00   
     13   H               -0.05  0.21  0.00   -0.15  0.65 -0.00   -0.15  0.65 -0.00   
     14   H                0.05 -0.21 -0.00   -0.15  0.65  0.00    0.15 -0.65 -0.00   
     15   C               -0.04 -0.03  0.00    0.01  0.02 -0.00    0.01  0.02 -0.00   
     16   C                0.04  0.03 -0.00    0.01  0.02 -0.00   -0.01 -0.02 -0.00   
     17   H               -0.08  0.46 -0.00    0.03 -0.16  0.00    0.03 -0.16 -0.00   
     18   H                0.08 -0.46 -0.00    0.03 -0.16 -0.00   -0.03  0.16 -0.00   
     19   H                0.46 -0.14  0.00   -0.13  0.04 -0.00   -0.13  0.04 -0.00   
     20   H               -0.46  0.14  0.00   -0.13  0.04 -0.00    0.13 -0.04 -0.00   

  Vibration                       55                  56                  57          
  Freq [cm^-1]                3575.5784           3582.4431           3602.7974       
  Irrep                           Bu                  Ag                  Bu          
  Reduced mass [u]              1.0930              1.0945              1.0994        
  Force const [mDyne/A]         8.2331              8.2762              8.4077        
  Turning point v=0 [a0]        0.1755              0.1752              0.1743        
  RMS dev v=0 [a0 u^1/2]        0.1298              0.1296              0.1293        
  Char temp [K]               5144.4534           5154.3301           5183.6154       
  ----------------------------------------------------------------------------------
      1   C                0.00  0.00  0.00    0.00  0.00  0.00    0.00  0.00  0.00   
      2   C                0.00  0.00 -0.00   -0.00 -0.00  0.00    0.00  0.00  0.00   
      3   C                0.02 -0.05 -0.00    0.02 -0.06  0.00    0.01 -0.02 -0.00   
      4   C                0.02 -0.05 -0.00   -0.02  0.06  0.00    0.01 -0.02  0.00   
      5   C                0.01  0.02 -0.00    0.01  0.02 -0.00   -0.04 -0.04 -0.00   
      6   C                0.01  0.02 -0.00   -0.01 -0.02 -0.00   -0.04 -0.04 -0.00   
      7   H               -0.22  0.60 -0.00   -0.23  0.61  0.00   -0.10  0.27  0.00   
      8   H               -0.22  0.60 -0.00    0.23 -0.61  0.00   -0.10  0.27 -0.00   
      9   H               -0.18 -0.23  0.00   -0.16 -0.20 -0.00    0.40  0.50  0.00   
     10   H               -0.18 -0.23 -0.00    0.16  0.20  0.00    0.40  0.50 -0.00   
     11   C               -0.00  0.00  0.00    0.00 -0.00 -0.00    0.00 -0.00  0.00   
     12   C               -0.00  0.00 -0.00   -0.00  0.00 -0.00    0.00 -0.00 -0.00   
     13   H                0.00 -0.01 -0.00   -0.00  0.01  0.00    0.00 -0.00 -0.00   
     14   H                0.00 -0.01  0.00    0.00 -0.01  0.00    0.00 -0.00  0.00   
     15   C                0.00  0.00 -0.00    0.00  0.00  0.00   -0.00  0.00  0.00   
     16   C                0.00  0.00  0.00   -0.00 -0.00  0.00   -0.00  0.00  0.00   
     17   H                0.00 -0.02  0.00    0.00 -0.01 -0.00   -0.00  0.00 -0.00   
     18   H                0.00 -0.02 -0.00   -0.00  0.01 -0.00   -0.00  0.00 -0.00   
     19   H               -0.03  0.01 -0.00   -0.01  0.00  0.00    0.03 -0.01 -0.00   
     20   H               -0.03  0.01  0.00    0.01 -0.00  0.00    0.03 -0.01  0.00   

  Vibration                       58                  59                  60          
  Freq [cm^-1]                3605.9218           3680.4357           3680.4651       
  Irrep                           Ag                  Bu                  Ag          
  Reduced mass [u]              1.0997              1.1198              1.1198        
  Force const [mDyne/A]         8.4251              8.9369              8.9369        
  Turning point v=0 [a0]        0.1742              0.1709              0.1709        
  RMS dev v=0 [a0 u^1/2]        0.1292              0.1279              0.1279        
  Char temp [K]               5188.1107           5295.3195           5295.3618       
  ----------------------------------------------------------------------------------
      1   C                0.00 -0.00  0.00   -0.00 -0.00 -0.00    0.00  0.00  0.00   
      2   C               -0.00  0.00  0.00   -0.00 -0.00 -0.00   -0.00 -0.00 -0.00   
      3   C                0.01 -0.02  0.00    0.00 -0.00  0.00    0.00 -0.00 -0.00   
      4   C               -0.01  0.02  0.00    0.00 -0.00 -0.00   -0.00  0.00 -0.00   
      5   C               -0.04 -0.05 -0.00   -0.00 -0.00  0.00   -0.00 -0.00  0.00   
      6   C                0.04  0.05  0.00   -0.00 -0.00 -0.00    0.00  0.00 -0.00   
      7   H               -0.09  0.24 -0.00   -0.00  0.00 -0.00   -0.00  0.00 -0.00   
      8   H                0.09 -0.24  0.00   -0.00  0.00  0.00    0.00 -0.00  0.00   
      9   H                0.41  0.51  0.00    0.02  0.02  0.00    0.02  0.02 -0.00   
     10   H               -0.41 -0.51  0.00    0.02  0.02  0.00   -0.02 -0.02  0.00   
     11   C                0.00 -0.00 -0.00    0.00 -0.00  0.00    0.00 -0.00  0.00   
     12   C               -0.00  0.00 -0.00    0.00 -0.00  0.00   -0.00  0.00 -0.00   
     13   H                0.00 -0.00 -0.00   -0.00  0.03  0.00   -0.00  0.03 -0.00   
     14   H               -0.00  0.00 -0.00   -0.00  0.03  0.00    0.00 -0.03  0.00   
     15   C               -0.00  0.00 -0.00    0.05 -0.05 -0.00    0.05 -0.05 -0.00   
     16   C                0.00 -0.00  0.00    0.05 -0.05  0.00   -0.05  0.05 -0.00   
     17   H               -0.00  0.00  0.00   -0.09  0.50 -0.00   -0.09  0.50  0.00   
     18   H                0.00 -0.00  0.00   -0.09  0.50  0.00    0.09 -0.50 -0.00   
     19   H                0.04 -0.01  0.00   -0.47  0.14 -0.00   -0.47  0.14  0.00   
     20   H               -0.04  0.01 -0.00   -0.47  0.14 -0.00    0.47 -0.14  0.00   

  ==> Thermochemistry Components <==

  Entropy, S
    Electronic S            0.000 [cal/(mol K)]        0.000 [J/(mol K)]       0.00000000 [mEh/K] (multiplicity = 1)
    Translational S        40.502 [cal/(mol K)]      169.460 [J/(mol K)]       0.06454389 [mEh/K] (mol. weight = 130.0783 [u], P = 101325.00 [Pa])
    Rotational S           28.143 [cal/(mol K)]      117.751 [J/(mol K)]       0.04484898 [mEh/K] (symmetry no. = 2)
    Vibrational S          24.777 [cal/(mol K)]      103.667 [J/(mol K)]       0.03948467 [mEh/K]
  Total S                  93.422 [cal/(mol K)]      390.878 [J/(mol K)]       0.14887754 [mEh/K]
  Correction S              0.000 [cal/(mol K)]        0.000 [J/(mol K)]       0.00000000 [mEh/K]

  Constant volume heat capacity, Cv
    Electronic Cv           0.000 [cal/(mol K)]        0.000 [J/(mol K)]       0.00000000 [mEh/K]
    Translational Cv        2.981 [cal/(mol K)]       12.472 [J/(mol K)]       0.00475022 [mEh/K]
    Rotational Cv           2.981 [cal/(mol K)]       12.472 [J/(mol K)]       0.00475022 [mEh/K]
    Vibrational Cv         28.705 [cal/(mol K)]      120.104 [J/(mol K)]       0.04574501 [mEh/K]
  Total Cv                 34.667 [cal/(mol K)]      145.047 [J/(mol K)]       0.05524545 [mEh/K]
  Correction Cv             0.000 [cal/(mol K)]        0.000 [J/(mol K)]       0.00000000 [mEh/K]

  Constant pressure heat capacity, Cp
    Electronic Cp           0.000 [cal/(mol K)]        0.000 [J/(mol K)]       0.00000000 [mEh/K]
    Translational Cp        4.968 [cal/(mol K)]       20.786 [J/(mol K)]       0.00791704 [mEh/K]
    Rotational Cp           2.981 [cal/(mol K)]       12.472 [J/(mol K)]       0.00475022 [mEh/K]
    Vibrational Cp         28.705 [cal/(mol K)]      120.104 [J/(mol K)]       0.04574501 [mEh/K]
  Total Cp                 36.654 [cal/(mol K)]      153.361 [J/(mol K)]       0.05841227 [mEh/K]
  Correction Cp             0.000 [cal/(mol K)]        0.000 [J/(mol K)]       0.00000000 [mEh/K]

  ==> Thermochemistry Energy Analysis <==

  Raw electronic energy, E0
  Total E0, Electronic energy at well bottom at 0 [K]                 -379.77011151 [Eh]

  Zero-point energy, ZPE_vib = Sum_i nu_i / 2
    Electronic ZPE          0.000 [kcal/mol]        0.000 [kJ/mol]       0.00000000 [Eh]
    Translational ZPE       0.000 [kcal/mol]        0.000 [kJ/mol]       0.00000000 [Eh]
    Rotational ZPE          0.000 [kcal/mol]        0.000 [kJ/mol]       0.00000000 [Eh]
    Vibrational ZPE       120.761 [kcal/mol]      505.263 [kJ/mol]       0.19244431 [Eh]       42236.638 [cm^-1]
  Correction ZPE          120.761 [kcal/mol]      505.263 [kJ/mol]       0.19244431 [Eh]       42236.638 [cm^-1]
  Total ZPE, Electronic energy at 0 [K]                               -379.57766720 [Eh]

  Thermal Energy, E (includes ZPE)
    Electronic E            0.000 [kcal/mol]        0.000 [kJ/mol]       0.00000000 [Eh]
    Translational E         0.889 [kcal/mol]        3.718 [kJ/mol]       0.00141628 [Eh]
    Rotational E            0.889 [kcal/mol]        3.718 [kJ/mol]       0.00141628 [Eh]
    Vibrational E         124.861 [kcal/mol]      522.420 [kJ/mol]       0.19897921 [Eh]
  Correction E            126.639 [kcal/mol]      529.857 [kJ/mol]       0.20181177 [Eh]
  Total E, Electronic energy at  298.15 [K]                           -379.56829975 [Eh]

  Enthalpy, H_trans = E_trans + k_B * T
    Electronic H            0.000 [kcal/mol]        0.000 [kJ/mol]       0.00000000 [Eh]
    Translational H         1.481 [kcal/mol]        6.197 [kJ/mol]       0.00236046 [Eh]
    Rotational H            0.889 [kcal/mol]        3.718 [kJ/mol]       0.00141628 [Eh]
    Vibrational H         124.861 [kcal/mol]      522.420 [kJ/mol]       0.19897921 [Eh]
  Correction H            127.231 [kcal/mol]      532.336 [kJ/mol]       0.20275595 [Eh]
  Total H, Enthalpy at  298.15 [K]                                    -379.56735556 [Eh]

  Gibbs free energy, G = H - T * S
    Electronic G            0.000 [kcal/mol]        0.000 [kJ/mol]       0.00000000 [Eh]
    Translational G       -10.594 [kcal/mol]      -44.327 [kJ/mol]      -0.01688330 [Eh]
    Rotational G           -7.502 [kcal/mol]      -31.389 [kJ/mol]      -0.01195544 [Eh]
    Vibrational G         117.474 [kcal/mol]      491.512 [kJ/mol]       0.18720685 [Eh]
  Correction G             99.377 [kcal/mol]      415.795 [kJ/mol]       0.15836811 [Eh]
  Total G, Free enthalpy at  298.15 [K]                               -379.61174340 [Eh]

    Psi4 stopped on: Friday, 24 August 2018 06:36PM
    Psi4 wall time for execution: 0:05:39.96

*** Psi4 exiting successfully. Buy a developer a beer!
