
    -----------------------------------------------------------------------
          Psi4: An Open-Source Ab Initio Electronic Structure Package
                               Psi4 1.2.1 release

                         Git: Rev {HEAD} 406f4de 


    R. M. Parrish, L. A. Burns, D. G. A. Smith, A. C. Simmonett,
    A. E. DePrince III, E. G. Hohenstein, U. Bozkaya, A. Yu. Sokolov,
    R. Di Remigio, R. M. Richard, J. F. Gonthier, A. M. James,
    H. R. McAlexander, A. Kumar, M. Saitow, X. Wang, B. P. Pritchard,
    P. Verma, H. F. Schaefer III, K. Patkowski, R. A. King, E. F. Valeev,
    F. A. Evangelista, J. M. Turney, T. D. Crawford, and C. D. Sherrill,
    J. Chem. Theory Comput. 13(7) pp 3185--3197 (2017).
    (doi: 10.1021/acs.jctc.7b00174)


                         Additional Contributions by
    P. Kraus, H. Kruse, M. H. Lechner, M. C. Schieber, and R. A. Shaw

    -----------------------------------------------------------------------


    Psi4 started on: Friday, 24 August 2018 06:36PM

    Process ID: 24252
    Host:       gold
    PSIDATADIR: /home/eric/opt/apps/python/psi4conda/share/psi4
    Memory:     500.0 MiB
    Threads:    1
    
  ==> Input File <==

--------------------------------------------------------------------------
molecule dvb {
    1 2
    C    -1.4152533224   0.2302217854   0.0000000000
    C     1.4152533224  -0.2302217854   0.0000000000
    C    -0.4951331558   1.3144608674   0.0000000000
    C     0.4951331558  -1.3144608674   0.0000000000
    C     0.8894090436   1.0909493743   0.0000000000
    C    -0.8894090436  -1.0909493743   0.0000000000
    H    -0.8795511985   2.3437343748   0.0000000000
    H     0.8795511985  -2.3437343748   0.0000000000
    H     1.5779041557   1.9450061275   0.0000000000
    H    -1.5779041557  -1.9450061275   0.0000000000
    C     2.8845844962  -0.5210893778   0.0000000000
    C    -2.8845844962   0.5210893778   0.0000000000
    H     3.1403356810  -1.5919605685   0.0000000000
    H    -3.1403356810   1.5919605685   0.0000000000
    C     3.8800428103   0.3822535424   0.0000000000
    C    -3.8800428103  -0.3822535424   0.0000000000
    H     3.6946765858   1.4624389570   0.0000000000
    H    -3.6946765858  -1.4624389570   0.0000000000
    H     4.9316453546   0.0711049543   0.0000000000
    H    -4.9316453546  -0.0711049543   0.0000000000
}

set {
    basis sto-3g
    reference uhf
    print_basis true
    print_mos true
}

scf_e, scf_wfn = energy('scf', return_wfn=True)
oeprop(scf_wfn, 'MULLIKEN_CHARGES', 'LOWDIN_CHARGES', 'MULTIPOLE(5)')
--------------------------------------------------------------------------

*** tstart() called on gold
*** at Fri Aug 24 18:36:44 2018

   => Loading Basis Set <=

    Name: STO-3G
    Role: ORBITAL
    Keyword: BASIS
    atoms 1-6, 11-12, 15-16  entry C          line    61 file /home/eric/opt/apps/python/psi4conda/share/psi4/basis/sto-3g.gbs 
    atoms 7-10, 13-14, 17-20 entry H          line    19 file /home/eric/opt/apps/python/psi4conda/share/psi4/basis/sto-3g.gbs 


         ---------------------------------------------------------
                                   SCF
            by Justin Turney, Rob Parrish, Andy Simmonett
                             and Daniel Smith
                              UHF Reference
                        1 Threads,    500 MiB Core
         ---------------------------------------------------------

  ==> Geometry <==

    Molecular point group: c2h
    Full point group: C2h

    Geometry (in Angstrom), charge = 1, multiplicity = 2:

       Center              X                  Y                   Z               Mass       
    ------------   -----------------  -----------------  -----------------  -----------------
         C           -1.415253322400     0.230221785400     0.000000000000    12.000000000000
         C            1.415253322400    -0.230221785400     0.000000000000    12.000000000000
         C           -0.495133155800     1.314460867400     0.000000000000    12.000000000000
         C            0.495133155800    -1.314460867400     0.000000000000    12.000000000000
         C            0.889409043600     1.090949374300     0.000000000000    12.000000000000
         C           -0.889409043600    -1.090949374300     0.000000000000    12.000000000000
         H           -0.879551198500     2.343734374800     0.000000000000     1.007825032070
         H            0.879551198500    -2.343734374800     0.000000000000     1.007825032070
         H            1.577904155700     1.945006127500     0.000000000000     1.007825032070
         H           -1.577904155700    -1.945006127500     0.000000000000     1.007825032070
         C            2.884584496200    -0.521089377800     0.000000000000    12.000000000000
         C           -2.884584496200     0.521089377800     0.000000000000    12.000000000000
         H            3.140335681000    -1.591960568500     0.000000000000     1.007825032070
         H           -3.140335681000     1.591960568500     0.000000000000     1.007825032070
         C            3.880042810300     0.382253542400     0.000000000000    12.000000000000
         C           -3.880042810300    -0.382253542400     0.000000000000    12.000000000000
         H            3.694676585800     1.462438957000     0.000000000000     1.007825032070
         H           -3.694676585800    -1.462438957000     0.000000000000     1.007825032070
         H            4.931645354600     0.071104954300     0.000000000000     1.007825032070
         H           -4.931645354600    -0.071104954300     0.000000000000     1.007825032070

  Running in c2h symmetry.

  Rotational constants: A =      0.15403  B =      0.02287  C =      0.01992 [cm^-1]
  Rotational constants: A =   4617.84332  B =    685.76183  C =    597.09209 [MHz]
  Nuclear repulsion =  445.936978114243459

  Charge       = 1
  Multiplicity = 2
  Electrons    = 69
  Nalpha       = 35
  Nbeta        = 34

  ==> Algorithm <==

  SCF Algorithm Type is DF.
  DIIS enabled.
  MOM disabled.
  Fractional occupation disabled.
  Guess Type is GWH.
  Energy threshold   = 1.00e-06
  Density threshold  = 1.00e-06
  Integral threshold = 0.00e+00

  ==> Primary Basis <==

  Basis Set: STO-3G
    Blend: STO-3G
    Number of shells: 40
    Number of basis function: 60
    Number of Cartesian functions: 60
    Spherical Harmonics?: true
    Max angular momentum: 1

   => Loading Basis Set <=

    Name: (STO-3G AUX)
    Role: JKFIT
    Keyword: DF_BASIS_SCF
    atoms 1-6, 11-12, 15-16  entry C          line   203 file /home/eric/opt/apps/python/psi4conda/share/psi4/basis/def2-svp-jkfit.gbs 
    atoms 7-10, 13-14, 17-20 entry H          line    23 file /home/eric/opt/apps/python/psi4conda/share/psi4/basis/def2-svp-jkfit.gbs 

  -AO BASIS SET INFORMATION:
    Name                   = STO-3G
    Blend                  = STO-3G
    Total number of shells = 40
    Number of primitives   = 120
    Number of AO           = 60
    Number of SO           = 60
    Maximum AM             = 1
    Spherical Harmonics    = TRUE

  -Contraction Scheme:
    Atom   Type   All Primitives // Shells:
   ------ ------ --------------------------
       1     C     6s 3p // 2s 1p 
       2     C     6s 3p // 2s 1p 
       3     C     6s 3p // 2s 1p 
       4     C     6s 3p // 2s 1p 
       5     C     6s 3p // 2s 1p 
       6     C     6s 3p // 2s 1p 
       7     H     3s // 1s 
       8     H     3s // 1s 
       9     H     3s // 1s 
      10     H     3s // 1s 
      11     C     6s 3p // 2s 1p 
      12     C     6s 3p // 2s 1p 
      13     H     3s // 1s 
      14     H     3s // 1s 
      15     C     6s 3p // 2s 1p 
      16     C     6s 3p // 2s 1p 
      17     H     3s // 1s 
      18     H     3s // 1s 
      19     H     3s // 1s 
      20     H     3s // 1s 

  ==> AO Basis Functions <==

    [ STO-3G ]
    spherical
    ****
    C   1
    S   3 1.00
                        71.61683700           0.15432897
                        13.04509600           0.53532814
                         3.53051220           0.44463454
    S   3 1.00
                         2.94124940          -0.09996723
                         0.68348310           0.39951283
                         0.22228990           0.70011547
    P   3 1.00
                         2.94124940           0.15591627
                         0.68348310           0.60768372
                         0.22228990           0.39195739
    ****
    C   3
    S   3 1.00
                        71.61683700           0.15432897
                        13.04509600           0.53532814
                         3.53051220           0.44463454
    S   3 1.00
                         2.94124940          -0.09996723
                         0.68348310           0.39951283
                         0.22228990           0.70011547
    P   3 1.00
                         2.94124940           0.15591627
                         0.68348310           0.60768372
                         0.22228990           0.39195739
    ****
    C   5
    S   3 1.00
                        71.61683700           0.15432897
                        13.04509600           0.53532814
                         3.53051220           0.44463454
    S   3 1.00
                         2.94124940          -0.09996723
                         0.68348310           0.39951283
                         0.22228990           0.70011547
    P   3 1.00
                         2.94124940           0.15591627
                         0.68348310           0.60768372
                         0.22228990           0.39195739
    ****
    H   7
    S   3 1.00
                         3.42525091           0.15432897
                         0.62391373           0.53532814
                         0.16885540           0.44463454
    ****
    H   9
    S   3 1.00
                         3.42525091           0.15432897
                         0.62391373           0.53532814
                         0.16885540           0.44463454
    ****
    C  11
    S   3 1.00
                        71.61683700           0.15432897
                        13.04509600           0.53532814
                         3.53051220           0.44463454
    S   3 1.00
                         2.94124940          -0.09996723
                         0.68348310           0.39951283
                         0.22228990           0.70011547
    P   3 1.00
                         2.94124940           0.15591627
                         0.68348310           0.60768372
                         0.22228990           0.39195739
    ****
    H  13
    S   3 1.00
                         3.42525091           0.15432897
                         0.62391373           0.53532814
                         0.16885540           0.44463454
    ****
    C  15
    S   3 1.00
                        71.61683700           0.15432897
                        13.04509600           0.53532814
                         3.53051220           0.44463454
    S   3 1.00
                         2.94124940          -0.09996723
                         0.68348310           0.39951283
                         0.22228990           0.70011547
    P   3 1.00
                         2.94124940           0.15591627
                         0.68348310           0.60768372
                         0.22228990           0.39195739
    ****
    H  17
    S   3 1.00
                         3.42525091           0.15432897
                         0.62391373           0.53532814
                         0.16885540           0.44463454
    ****
    H  19
    S   3 1.00
                         3.42525091           0.15432897
                         0.62391373           0.53532814
                         0.16885540           0.44463454
    ****

  ==> Pre-Iterations <==

   -------------------------------------------------------
    Irrep   Nso     Nmo     Nalpha   Nbeta   Ndocc  Nsocc
   -------------------------------------------------------
     Ag        25      25       0       0       0       0
     Bg         5       5       0       0       0       0
     Au         5       5       0       0       0       0
     Bu        25      25       0       0       0       0
   -------------------------------------------------------
    Total      60      60      35      34      34       1
   -------------------------------------------------------

  ==> Integral Setup <==

  DFHelper Memory: AOs need 0.031 [GiB]; user supplied 0.366 [GiB]. Using in-core AOs.

  ==> MemDFJK: Density-Fitted J/K Matrices <==

    J tasked:                   Yes
    K tasked:                   Yes
    wK tasked:                   No
    OpenMP threads:               1
    Memory (MB):                375
    Algorithm:                 Core
    Schwarz Cutoff:           1E-12
    Mask sparsity (%):       4.1111
    Fitting Condition:        1E-12

   => Auxiliary Basis Set <=

  Basis Set: (STO-3G AUX)
    Blend: DEF2-SVP-JKFIT
    Number of shells: 310
    Number of basis function: 930
    Number of Cartesian functions: 1090
    Spherical Harmonics?: true
    Max angular momentum: 4

  Minimum eigenvalue in the overlap matrix is 1.8147107108E-01.
  Using Symmetric Orthogonalization.

  SCF Guess: Generalized Wolfsberg-Helmholtz.

  ==> Iterations <==

                           Total Energy        Delta E     RMS |[F,P]|

    Occupation by irrep:
             Ag    Bg    Au    Bu 
    DOCC [    15,    2,    2,   15 ]
    SOCC [     0,    1,    0,    0 ]

   @DF-UHF iter   1:  -378.13811070012571   -3.78138e+02   5.93541e-02 
   @DF-UHF iter   2:  -379.35057247114059   -1.21246e+00   1.54544e-02 DIIS
   @DF-UHF iter   3:  -379.53363571038790   -1.83063e-01   7.07972e-03 DIIS
   @DF-UHF iter   4:  -379.57673393926393   -4.30982e-02   1.16171e-03 DIIS
   @DF-UHF iter   5:  -379.58095795633244   -4.22402e-03   8.88246e-04 DIIS
   @DF-UHF iter   6:  -379.58390090196895   -2.94295e-03   8.35421e-04 DIIS
   @DF-UHF iter   7:  -379.58746204055615   -3.56114e-03   8.06950e-04 DIIS
   @DF-UHF iter   8:  -379.59526083469927   -7.79879e-03   6.41426e-04 DIIS
   @DF-UHF iter   9:  -379.59977685557851   -4.51602e-03   3.34094e-04 DIIS
   @DF-UHF iter  10:  -379.59999520139354   -2.18346e-04   2.09446e-04 DIIS
   @DF-UHF iter  11:  -379.60026831060463   -2.73109e-04   1.33523e-04 DIIS
   @DF-UHF iter  12:  -379.60037808969037   -1.09779e-04   5.30358e-05 DIIS
   @DF-UHF iter  13:  -379.60039696054878   -1.88709e-05   3.09627e-05 DIIS
   @DF-UHF iter  14:  -379.60040186961578   -4.90907e-06   3.25244e-05 DIIS
   @DF-UHF iter  15:  -379.60039399165930    7.87796e-06   3.66132e-05 DIIS
   @DF-UHF iter  16:  -379.60035972494506    3.42667e-05   3.28241e-05 DIIS
   @DF-UHF iter  17:  -379.60026095441299    9.87705e-05   2.30387e-05 DIIS
   @DF-UHF iter  18:  -379.60025866612636    2.28829e-06   1.86534e-05 DIIS
   @DF-UHF iter  19:  -379.60025455790014    4.10823e-06   4.45571e-06 DIIS
   @DF-UHF iter  20:  -379.60025440970389    1.48196e-07   1.44701e-06 DIIS
   @DF-UHF iter  21:  -379.60025441539642   -5.69253e-09   8.18412e-07 DIIS

  ==> Post-Iterations <==

   @Spin Contamination Metric:   6.099535857E-01
   @S^2 Expected:                7.500000000E-01
   @S^2 Observed:                1.359953586E+00
   @S   Expected:                5.000000000E-01
   @S   Observed:                5.000000000E-01

    Orbital Energies [Eh]
    ---------------------

    Alpha Occupied:                                                       

       1Bu   -11.308052     1Ag   -11.307988     2Bu   -11.265077  
       2Ag   -11.264996     3Bu   -11.259991     3Ag   -11.259915  
       4Bu   -11.221146     4Ag   -11.221146     5Bu   -11.216830  
       5Ag   -11.216829     6Ag    -1.326103     6Bu    -1.237221  
       7Ag    -1.170208     7Bu    -1.166024     8Bu    -1.131156  
       8Ag    -1.011059     9Ag    -0.981980     9Bu    -0.911678  
      10Ag    -0.900332    11Ag    -0.820656    10Bu    -0.807014  
      11Bu    -0.778420    12Bu    -0.759942    12Ag    -0.735560  
      13Bu    -0.735159    14Bu    -0.697111     1Au    -0.694792  
      13Ag    -0.679959    14Ag    -0.636818    15Bu    -0.632301  
      15Ag    -0.616393     1Bg    -0.596614     2Au    -0.531873  
       2Bg    -0.491539     3Bg    -0.479069  

    Alpha Virtual:                                                        

       3Au    -0.047719     4Au     0.062139     4Bg     0.131906  
       5Au     0.208905     5Bg     0.297058    16Ag     0.369829  
      16Bu     0.380852    17Bu     0.420249    17Ag     0.436267  
      18Ag     0.453031    18Bu     0.454852    19Ag     0.483613  
      19Bu     0.492589    20Bu     0.516714    20Ag     0.544303  
      21Ag     0.584310    21Bu     0.610141    22Ag     0.649265  
      22Bu     0.673886    23Bu     0.723528    23Ag     0.738220  
      24Ag     0.787926    24Bu     0.821086    25Ag     0.884301  
      25Bu     0.891454  

    Beta Occupied:                                                        

       1Bu   -11.296267     1Ag   -11.296227     2Bu   -11.265575  
       2Ag   -11.265504     3Bu   -11.261969     3Ag   -11.261907  
       4Ag   -11.237281     4Bu   -11.237281     5Ag   -11.197109  
       5Bu   -11.197108     6Ag    -1.308288     6Bu    -1.222403  
       7Bu    -1.169683     7Ag    -1.165539     8Bu    -1.089861  
       8Ag    -0.994175     9Ag    -0.966880     9Bu    -0.908139  
      10Ag    -0.893228    11Ag    -0.819828    10Bu    -0.803837  
      11Bu    -0.771323    12Bu    -0.753854    13Bu    -0.735358  
      12Ag    -0.731594    14Bu    -0.691296    13Ag    -0.677171  
       1Au    -0.644457    14Ag    -0.632380    15Bu    -0.628294  
      15Ag    -0.614932     1Bg    -0.561340     2Bg    -0.502075  
       2Au    -0.489148  

    Beta Virtual:                                                         

       3Bg    -0.148802     3Au     0.074513     4Au     0.085211  
       4Bg     0.176059     5Au     0.238926     5Bg     0.328713  
      16Ag     0.367403    16Bu     0.382430    17Bu     0.413785  
      17Ag     0.437242    18Bu     0.465637    18Ag     0.465821  
      19Bu     0.489570    19Ag     0.494344    20Bu     0.539301  
      20Ag     0.563131    21Ag     0.586456    21Bu     0.618789  
      22Ag     0.649182    22Bu     0.675456    23Bu     0.730145  
      23Ag     0.740119    24Ag     0.791599    24Bu     0.825618  
      25Ag     0.889417    25Bu     0.896422  

    Final Occupation by Irrep:
             Ag    Bg    Au    Bu 
    DOCC [    15,    2,    2,   15 ]
    SOCC [     0,    1,    0,    0 ]

  Energy converged.

  @DF-UHF Final Energy:  -379.60025441539642

   => Energetics <=

    Nuclear Repulsion Energy =            445.9369781142434590
    One-Electron Energy =               -1385.7121871012323027
    Two-Electron Energy =                 560.1749545715923659
    Total Energy =                       -379.6002544153965346


  UHF NO Occupations:
  HONO-2 :    2 Bg 1.8968903
  HONO-1 :    2 Au 1.8076988
  HONO-0 :    3 Bg 1.0000000
  LUNO+0 :    3 Au 0.1923012
  LUNO+1 :    4 Bg 0.1031097
  LUNO+2 :    4 Au 0.0216688
  LUNO+3 :   16 Ag 0.0019222



Properties will be evaluated at   0.000000,   0.000000,   0.000000 [a0]

Properties computed using the SCF density matrix

  Nuclear Dipole Moment: [e a0]
     X:     0.0000      Y:    -0.0000      Z:     0.0000

  Electronic Dipole Moment: [e a0]
     X:     0.0000      Y:     0.0000      Z:     0.0000

  Dipole Moment: [e a0]
     X:     0.0000      Y:    -0.0000      Z:     0.0000     Total:     0.0000

  Dipole Moment: [D]
     X:     0.0000      Y:    -0.0000      Z:     0.0000     Total:     0.0000


  ==> Alpha-Spin Molecular Orbitals <==

                            1            2            3            4            5

 1    C1 s0         0.7015007    0.7015370    0.0010802    0.0003969    0.0010355
 2    C1 s0         0.0256586    0.0255375    0.0049201    0.0047817    0.0052003
 3    C1 p0         0.0000000    0.0000000    0.0000000    0.0000000    0.0000000
 4    C1 p+1        0.0009247    0.0006959    0.0011664    0.0012599    0.0021170
 5    C1 p-1       -0.0000586   -0.0000174   -0.0029291   -0.0029049    0.0022063
 6    C2 s0        -0.7015007    0.7015370   -0.0010802    0.0003969   -0.0010355
 7    C2 s0        -0.0256586    0.0255375   -0.0049201    0.0047817   -0.0052003
 8    C2 p0         0.0000000    0.0000000    0.0000000    0.0000000    0.0000000
 9    C2 p+1        0.0009247   -0.0006959    0.0011664   -0.0012599    0.0021170
 10   C2 p-1       -0.0000586    0.0000174   -0.0029291    0.0029049    0.0022063
 11   C3 s0         0.0015872    0.0009515    0.0222208   -0.0121775   -0.7012862
 12   C3 s0        -0.0050659   -0.0047809   -0.0042918    0.0043496   -0.0253589
 13   C3 p0         0.0000000    0.0000000    0.0000000    0.0000000    0.0000000
 14   C3 p+1        0.0020042    0.0020647   -0.0030033    0.0031323   -0.0004512
 15   C3 p-1        0.0025046    0.0025110    0.0005449   -0.0006044    0.0010305
 16   C4 s0        -0.0015872    0.0009515   -0.0222208   -0.0121775    0.7012862
 17   C4 s0         0.0050659   -0.0047809    0.0042918    0.0043496    0.0253589
 18   C4 p0         0.0000000    0.0000000    0.0000000    0.0000000    0.0000000
 19   C4 p+1        0.0020042   -0.0020647   -0.0030033   -0.0031323   -0.0004512
 20   C4 p-1        0.0025046   -0.0025110    0.0005449    0.0006044    0.0010305
 21   C5 s0        -0.0017022    0.0010360    0.7012868   -0.7015734    0.0216937
 22   C5 s0         0.0050335   -0.0047318    0.0251232   -0.0250627    0.0058673
 23   C5 p0         0.0000000    0.0000000    0.0000000    0.0000000    0.0000000
 24   C5 p+1        0.0010997   -0.0011677   -0.0005378    0.0004053   -0.0030594
 25   C5 p-1       -0.0029937    0.0030054   -0.0008612    0.0006107    0.0003729
 26   C6 s0         0.0017022    0.0010360   -0.7012868   -0.7015734   -0.0216937
 27   C6 s0        -0.0050335   -0.0047318   -0.0251232   -0.0250627   -0.0058673
 28   C6 p0         0.0000000    0.0000000    0.0000000    0.0000000    0.0000000
 29   C6 p+1        0.0010997    0.0011677   -0.0005378   -0.0004053   -0.0030594
 30   C6 p-1       -0.0029937   -0.0030054   -0.0008612   -0.0006107    0.0003729
 31   H7 s0         0.0000900   -0.0000087   -0.0000225    0.0000872    0.0045716
 32   H8 s0        -0.0000900   -0.0000087    0.0000225    0.0000872   -0.0045716
 33   H9 s0        -0.0000827   -0.0000138   -0.0046043    0.0046964   -0.0002650
 34   H10 s0        0.0000827   -0.0000138    0.0046043    0.0046964    0.0002650
 35   C11 s0        0.0005932   -0.0006226   -0.0001277    0.0002664   -0.0002391
 36   C11 s0        0.0041874   -0.0042429    0.0001747   -0.0000864    0.0001930
 37   C11 p0        0.0000000    0.0000000    0.0000000    0.0000000    0.0000000
 38   C11 p+1      -0.0028861    0.0029264   -0.0000794   -0.0000091   -0.0000354
 39   C11 p-1       0.0006134   -0.0006210    0.0000039   -0.0000317    0.0000665
 40   C12 s0       -0.0005932   -0.0006226    0.0001277    0.0002664    0.0002391
 41   C12 s0       -0.0041874   -0.0042429   -0.0001747   -0.0000864   -0.0001930
 42   C12 p0        0.0000000    0.0000000    0.0000000    0.0000000    0.0000000
 43   C12 p+1      -0.0028861   -0.0029264   -0.0000794    0.0000091   -0.0000354
 44   C12 p-1       0.0006134    0.0006210    0.0000039    0.0000317    0.0000665
 45   H13 s0       -0.0000300    0.0000349   -0.0000313    0.0000522   -0.0000566
 46   H14 s0        0.0000300    0.0000349    0.0000313    0.0000522    0.0000566
 47   C15 s0        0.0001018   -0.0000960   -0.0002374    0.0002518   -0.0000713
 48   C15 s0       -0.0001337    0.0001335   -0.0000582    0.0000737   -0.0000619
 49   C15 p0        0.0000000    0.0000000    0.0000000    0.0000000    0.0000000
 50   C15 p+1       0.0000691   -0.0000721    0.0000585   -0.0000656    0.0000396
 51   C15 p-1      -0.0000593    0.0000600   -0.0000427    0.0000347    0.0000081
 52   C16 s0       -0.0001018   -0.0000960    0.0002374    0.0002518    0.0000713
 53   C16 s0        0.0001337    0.0001335    0.0000582    0.0000737    0.0000619
 54   C16 p0        0.0000000    0.0000000    0.0000000    0.0000000    0.0000000
 55   C16 p+1       0.0000691    0.0000721    0.0000585    0.0000656    0.0000396
 56   C16 p-1      -0.0000593   -0.0000600   -0.0000427   -0.0000347    0.0000081
 57   H17 s0        0.0001040   -0.0000990    0.0001055   -0.0001078    0.0000154
 58   H18 s0       -0.0001040   -0.0000990   -0.0001055   -0.0001078   -0.0000154
 59   H19 s0        0.0000221   -0.0000216   -0.0000187    0.0000173   -0.0000015
 60   H20 s0       -0.0000221   -0.0000216    0.0000187    0.0000173    0.0000015

            Ene   -11.3080518  -11.3079881  -11.2650775  -11.2649957  -11.2599912
            Sym            Bu           Ag           Bu           Ag           Bu
            Occ             1            1            1            1            1


                            6            7            8            9           10

 1    C1 s0         0.0003003    0.0012768    0.0013137    0.0000164   -0.0000081
 2    C1 s0         0.0045945   -0.0040314   -0.0040211    0.0004714   -0.0004714
 3    C1 p0         0.0000000    0.0000000    0.0000000    0.0000000    0.0000000
 4    C1 p+1        0.0020826    0.0028479    0.0028285   -0.0002598    0.0002564
 5    C1 p-1        0.0024271   -0.0004310   -0.0004269    0.0000642   -0.0000635
 6    C2 s0         0.0003003   -0.0012768    0.0013137   -0.0000164   -0.0000081
 7    C2 s0         0.0045945    0.0040314   -0.0040211   -0.0004714   -0.0004714
 8    C2 p0         0.0000000    0.0000000    0.0000000    0.0000000    0.0000000
 9    C2 p+1       -0.0020826    0.0028479   -0.0028285   -0.0002598   -0.0002564
 10   C2 p-1       -0.0024271   -0.0004310    0.0004269    0.0000642    0.0000635
 11   C3 s0        -0.7015803    0.0002556    0.0004320    0.0000516   -0.0000975
 12   C3 s0        -0.0251362    0.0001482    0.0000642   -0.0000304    0.0000793
 13   C3 p0         0.0000000    0.0000000    0.0000000    0.0000000    0.0000000
 14   C3 p+1       -0.0003172    0.0000188   -0.0000346    0.0000603   -0.0000220
 15   C3 p-1        0.0007263   -0.0000297    0.0000332    0.0000126   -0.0000169
 16   C4 s0        -0.7015803   -0.0002556    0.0004320   -0.0000516   -0.0000975
 17   C4 s0        -0.0251362   -0.0001482    0.0000642    0.0000304    0.0000793
 18   C4 p0         0.0000000    0.0000000    0.0000000    0.0000000    0.0000000
 19   C4 p+1        0.0003172    0.0000188    0.0000346    0.0000603    0.0000220
 20   C4 p-1       -0.0007263   -0.0000297   -0.0000332    0.0000126    0.0000169
 21   C5 s0         0.0115675   -0.0001606    0.0003032   -0.0002489   -0.0002503
 22   C5 s0         0.0051892   -0.0001963    0.0001204    0.0000401    0.0000438
 23   C5 p0         0.0000000    0.0000000    0.0000000    0.0000000    0.0000000
 24   C5 p+1       -0.0031751    0.0000107    0.0000541    0.0000926    0.0000902
 25   C5 p-1        0.0003910    0.0000209    0.0000184   -0.0000089   -0.0000026
 26   C6 s0         0.0115675    0.0001606    0.0003032    0.0002489   -0.0002503
 27   C6 s0         0.0051892    0.0001963    0.0001204   -0.0000401    0.0000438
 28   C6 p0         0.0000000    0.0000000    0.0000000    0.0000000    0.0000000
 29   C6 p+1        0.0031751    0.0000107   -0.0000541    0.0000926   -0.0000902
 30   C6 p-1       -0.0003910    0.0000209   -0.0000184   -0.0000089    0.0000026
 31   H7 s0         0.0046577   -0.0000247   -0.0000356   -0.0000018    0.0000022
 32   H8 s0         0.0046577    0.0000247   -0.0000356    0.0000018    0.0000022
 33   H9 s0        -0.0000706    0.0001083   -0.0001214   -0.0000669   -0.0000687
 34   H10 s0       -0.0000706   -0.0001083   -0.0001214    0.0000669   -0.0000687
 35   C11 s0        0.0003844   -0.6999126    0.6999126    0.0519329    0.0519395
 36   C11 s0       -0.0000862   -0.0238418    0.0238343    0.0075388    0.0075383
 37   C11 p0        0.0000000    0.0000000    0.0000000    0.0000000    0.0000000
 38   C11 p+1      -0.0000282   -0.0003503    0.0003563    0.0025727    0.0025730
 39   C11 p-1      -0.0000132   -0.0005259    0.0005248    0.0023847    0.0023843
 40   C12 s0        0.0003844    0.6999126    0.6999126   -0.0519329    0.0519395
 41   C12 s0       -0.0000862    0.0238418    0.0238343   -0.0075388    0.0075383
 42   C12 p0        0.0000000    0.0000000    0.0000000    0.0000000    0.0000000
 43   C12 p+1       0.0000282   -0.0003503   -0.0003563    0.0025727   -0.0025730
 44   C12 p-1       0.0000132   -0.0005259   -0.0005248    0.0023847   -0.0023843
 45   H13 s0        0.0000619    0.0045203   -0.0045205   -0.0003967   -0.0003965
 46   H14 s0        0.0000619   -0.0045203   -0.0045205    0.0003967   -0.0003965
 47   C15 s0        0.0001118   -0.0523599    0.0523664   -0.6994856   -0.6994852
 48   C15 s0        0.0000534    0.0032539   -0.0032538   -0.0265613   -0.0265611
 49   C15 p0        0.0000000    0.0000000    0.0000000    0.0000000    0.0000000
 50   C15 p+1      -0.0000521   -0.0022444    0.0022444    0.0011560    0.0011559
 51   C15 p-1      -0.0000050   -0.0019615    0.0019619    0.0010114    0.0010114
 52   C16 s0        0.0001118    0.0523599    0.0523664    0.6994856   -0.6994852
 53   C16 s0        0.0000534   -0.0032539   -0.0032538    0.0265613   -0.0265611
 54   C16 p0        0.0000000    0.0000000    0.0000000    0.0000000    0.0000000
 55   C16 p+1       0.0000521   -0.0022444   -0.0022444    0.0011560   -0.0011559
 56   C16 p-1       0.0000050   -0.0019615   -0.0019619    0.0010114   -0.0010114
 57   H17 s0        0.0000135    0.0002965   -0.0002965    0.0048950    0.0048950
 58   H18 s0        0.0000135   -0.0002965   -0.0002965   -0.0048950    0.0048950
 59   H19 s0        0.0000073    0.0002874   -0.0002875    0.0048738    0.0048738
 60   H20 s0        0.0000073   -0.0002874   -0.0002875   -0.0048738    0.0048738

            Ene   -11.2599150  -11.2211462  -11.2211457  -11.2168295  -11.2168294
            Sym            Ag           Bu           Ag           Bu           Ag
            Occ             1            1            1            1            1


                           11           12           13           14           15

 1    C1 s0         0.1147346    0.1292474    0.0122222    0.0129758    0.0759146
 2    C1 s0        -0.3078708   -0.3626901   -0.0395758   -0.0376000   -0.2187953
 3    C1 p0         0.0000000    0.0000000    0.0000000    0.0000000    0.0000000
 4    C1 p+1       -0.0536515    0.0081330    0.0983516   -0.0270187   -0.0762349
 5    C1 p-1        0.0091142    0.0032722   -0.0073545   -0.1400431    0.0231566
 6    C2 s0         0.1147346   -0.1292474    0.0122222   -0.0129758   -0.0759146
 7    C2 s0        -0.3078708    0.3626901   -0.0395758    0.0376000    0.2187953
 8    C2 p0         0.0000000    0.0000000    0.0000000    0.0000000    0.0000000
 9    C2 p+1        0.0536515    0.0081330   -0.0983516   -0.0270187   -0.0762349
 10   C2 p-1       -0.0091142    0.0032722    0.0073545   -0.1400431    0.0231566
 11   C3 s0         0.0947270    0.0475890   -0.0376564    0.1308450    0.0285948
 12   C3 s0        -0.2368985   -0.1233012    0.1003082   -0.3559783   -0.0776542
 13   C3 p0         0.0000000    0.0000000    0.0000000    0.0000000    0.0000000
 14   C3 p+1       -0.0122575    0.0726321    0.0337493   -0.0568525    0.0717234
 15   C3 p-1        0.0612808    0.0421605   -0.0151364    0.0151053    0.0356174
 16   C4 s0         0.0947270   -0.0475890   -0.0376564   -0.1308450   -0.0285948
 17   C4 s0        -0.2368985    0.1233012    0.1003082    0.3559783    0.0776542
 18   C4 p0         0.0000000    0.0000000    0.0000000    0.0000000    0.0000000
 19   C4 p+1        0.0122575    0.0726321   -0.0337493   -0.0568525    0.0717234
 20   C4 p-1       -0.0612808    0.0421605    0.0151364    0.0151053    0.0356174
 21   C5 s0         0.0961708   -0.0559572   -0.0320053    0.1204702   -0.0593804
 22   C5 s0        -0.2425780    0.1466289    0.0851503   -0.3305314    0.1634317
 23   C5 p0         0.0000000    0.0000000    0.0000000    0.0000000    0.0000000
 24   C5 p+1        0.0303475    0.0540289   -0.0457192    0.0707789    0.0309154
 25   C5 p-1        0.0550782   -0.0635564   -0.0011103   -0.0191209   -0.0504724
 26   C6 s0         0.0961708    0.0559572   -0.0320053   -0.1204702    0.0593804
 27   C6 s0        -0.2425780   -0.1466289    0.0851503    0.3305314   -0.1634317
 28   C6 p0         0.0000000    0.0000000    0.0000000    0.0000000    0.0000000
 29   C6 p+1       -0.0303475    0.0540289    0.0457192    0.0707789    0.0309154
 30   C6 p-1       -0.0550782   -0.0635564    0.0011103   -0.0191209   -0.0504724
 31   H7 s0        -0.0362863   -0.0274150    0.0175666   -0.0858610   -0.0186711
 32   H8 s0        -0.0362863    0.0274150    0.0175666    0.0858610    0.0186711
 33   H9 s0        -0.0374677    0.0332240    0.0106882   -0.0805844    0.0370406
 34   H10 s0       -0.0374677   -0.0332240    0.0106882    0.0805844   -0.0370406
 35   C11 s0        0.0360642   -0.0867615    0.1110767    0.0011614    0.0723742
 36   C11 s0       -0.0860995    0.2132552   -0.2790580   -0.0023750   -0.1832748
 37   C11 p0        0.0000000    0.0000000    0.0000000    0.0000000    0.0000000
 38   C11 p+1       0.0288904   -0.0263723   -0.0543998   -0.0159220   -0.1098121
 39   C11 p-1      -0.0118111    0.0336923   -0.0594863   -0.0181516   -0.0540852
 40   C12 s0        0.0360642    0.0867615    0.1110767   -0.0011614   -0.0723742
 41   C12 s0       -0.0860995   -0.2132552   -0.2790580    0.0023750    0.1832748
 42   C12 p0        0.0000000    0.0000000    0.0000000    0.0000000    0.0000000
 43   C12 p+1      -0.0288904   -0.0263723    0.0543998   -0.0159220   -0.1098121
 44   C12 p-1       0.0118111    0.0336923    0.0594863   -0.0181516   -0.0540852
 45   H13 s0       -0.0158720    0.0451369   -0.0653635    0.0066029   -0.0459807
 46   H14 s0       -0.0158720   -0.0451369   -0.0653635   -0.0066029    0.0459807
 47   C15 s0        0.0169428   -0.0618573    0.1285211    0.0139632    0.1288536
 48   C15 s0       -0.0459470    0.1705164   -0.3608541   -0.0387731   -0.3666403
 49   C15 p0        0.0000000    0.0000000    0.0000000    0.0000000    0.0000000
 50   C15 p+1       0.0152680   -0.0432049    0.0627392    0.0072658    0.0429908
 51   C15 p-1       0.0089697   -0.0286293    0.0504144    0.0004933    0.0434955
 52   C16 s0        0.0169428    0.0618573    0.1285211   -0.0139632   -0.1288536
 53   C16 s0       -0.0459470   -0.1705164   -0.3608541    0.0387731    0.3666403
 54   C16 p0        0.0000000    0.0000000    0.0000000    0.0000000    0.0000000
 55   C16 p+1      -0.0152680   -0.0432049   -0.0627392    0.0072658    0.0429908
 56   C16 p-1      -0.0089697   -0.0286293   -0.0504144    0.0004933    0.0434955
 57   H17 s0       -0.0076276    0.0314776   -0.0722812   -0.0105304   -0.0774207
 58   H18 s0       -0.0076276   -0.0314776   -0.0722812    0.0105304    0.0774207
 59   H19 s0       -0.0052318    0.0256742   -0.0676262   -0.0067491   -0.0784880
 60   H20 s0       -0.0052318   -0.0256742   -0.0676262    0.0067491    0.0784880

            Ene    -1.3261031   -1.2372207   -1.1702084   -1.1660239   -1.1311559
            Sym            Ag           Bu           Ag           Bu           Bu
            Occ             1            1            1            1            1


                           16           17           18           19           20

 1    C1 s0         0.0812329    0.0524335    0.0010630    0.0362942    0.0331505
 2    C1 s0        -0.2531176   -0.1647923    0.0020566   -0.1122110   -0.1154065
 3    C1 p0         0.0000000    0.0000000    0.0000000    0.0000000    0.0000000
 4    C1 p+1        0.0774813    0.0727497   -0.1902627   -0.1920182    0.1008717
 5    C1 p-1       -0.1369371    0.2112669    0.0708184    0.0029861   -0.0452741
 6    C2 s0         0.0812329    0.0524335   -0.0010630    0.0362942    0.0331505
 7    C2 s0        -0.2531176   -0.1647923   -0.0020566   -0.1122110   -0.1154065
 8    C2 p0         0.0000000    0.0000000    0.0000000    0.0000000    0.0000000
 9    C2 p+1       -0.0774813   -0.0727497   -0.1902627    0.1920182   -0.1008717
 10   C2 p-1        0.1369371   -0.2112669    0.0708184   -0.0029861    0.0452741
 11   C3 s0        -0.0023153   -0.1131776    0.0486212   -0.0154189    0.0127890
 12   C3 s0         0.0064145    0.3368525   -0.1509721    0.0551129   -0.0494268
 13   C3 p0         0.0000000    0.0000000    0.0000000    0.0000000    0.0000000
 14   C3 p+1        0.1825825   -0.0346584   -0.0026923    0.0566840    0.1499141
 15   C3 p-1        0.0397814    0.0554880    0.0100939    0.1919012   -0.1198692
 16   C4 s0        -0.0023153   -0.1131776   -0.0486212   -0.0154189    0.0127890
 17   C4 s0         0.0064145    0.3368525    0.1509721    0.0551129   -0.0494268
 18   C4 p0         0.0000000    0.0000000    0.0000000    0.0000000    0.0000000
 19   C4 p+1       -0.1825825    0.0346584   -0.0026923   -0.0566840   -0.1499141
 20   C4 p-1       -0.0397814   -0.0554880    0.0100939   -0.1919012    0.1198692
 21   C5 s0        -0.0916843    0.0546071   -0.0310576   -0.0449523   -0.0155089
 22   C5 s0         0.2689612   -0.1630574    0.0963297    0.1489902    0.0444466
 23   C5 p0         0.0000000    0.0000000    0.0000000    0.0000000    0.0000000
 24   C5 p+1       -0.0395233   -0.1801213    0.0824208    0.0467096   -0.1456294
 25   C5 p-1        0.0679423    0.0917791   -0.0433978    0.2001673   -0.0741780
 26   C6 s0        -0.0916843    0.0546071    0.0310576   -0.0449523   -0.0155089
 27   C6 s0         0.2689612   -0.1630574   -0.0963297    0.1489902    0.0444466
 28   C6 p0         0.0000000    0.0000000    0.0000000    0.0000000    0.0000000
 29   C6 p+1        0.0395233    0.1801213    0.0824208   -0.0467096    0.1456294
 30   C6 p-1       -0.0679423   -0.0917791   -0.0433978   -0.2001673    0.0741780
 31   H7 s0        -0.0111719    0.1501525   -0.0462474    0.1155721   -0.1230857
 32   H8 s0        -0.0111719    0.1501525    0.0462474    0.1155721   -0.1230857
 33   H9 s0         0.1070649   -0.0765869    0.0514422    0.1611911   -0.0879242
 34   H10 s0        0.1070649   -0.0765869   -0.0514422    0.1611911   -0.0879242
 35   C11 s0        0.0435814    0.0042424    0.1010707   -0.0610674   -0.0589000
 36   C11 s0       -0.1255674   -0.0134738   -0.3025002    0.1824367    0.1848894
 37   C11 p0        0.0000000    0.0000000    0.0000000    0.0000000    0.0000000
 38   C11 p+1       0.1250981    0.0721680    0.0682690   -0.0412522    0.1586509
 39   C11 p-1       0.0601031   -0.0301539    0.1000419   -0.0570706   -0.1116529
 40   C12 s0        0.0435814    0.0042424   -0.1010707   -0.0610674   -0.0589000
 41   C12 s0       -0.1255674   -0.0134738    0.3025002    0.1824367    0.1848894
 42   C12 p0        0.0000000    0.0000000    0.0000000    0.0000000    0.0000000
 43   C12 p+1      -0.1250981   -0.0721680    0.0682690    0.0412522   -0.1586509
 44   C12 p-1      -0.0601031    0.0301539    0.1000419    0.0570706    0.1116529
 45   H13 s0       -0.0601769    0.0243520   -0.1674238    0.1046732    0.1779956
 46   H14 s0       -0.0601769    0.0243520    0.1674238    0.1046732    0.1779956
 47   C15 s0       -0.0713052   -0.0388711   -0.0770985    0.0537274    0.0272250
 48   C15 s0        0.2137143    0.1195739    0.2481806   -0.1741561   -0.1001126
 49   C15 p0        0.0000000    0.0000000    0.0000000    0.0000000    0.0000000
 50   C15 p+1       0.0211045    0.0313959    0.0898324   -0.0740053   -0.0314500
 51   C15 p-1       0.0192526   -0.0120953    0.1108470   -0.0601969   -0.2207360
 52   C16 s0       -0.0713052   -0.0388711    0.0770985    0.0537274    0.0272250
 53   C16 s0        0.2137143    0.1195739   -0.2481806   -0.1741561   -0.1001126
 54   C16 p0        0.0000000    0.0000000    0.0000000    0.0000000    0.0000000
 55   C16 p+1      -0.0211045   -0.0313959    0.0898324    0.0740053    0.0314500
 56   C16 p-1      -0.0192526    0.0120953    0.1108470    0.0601969    0.2207360
 57   H17 s0        0.0712052    0.0235436    0.1341370   -0.0782816   -0.1734522
 58   H18 s0        0.0712052    0.0235436   -0.1341370   -0.0782816   -0.1734522
 59   H19 s0        0.0667248    0.0496619    0.1065328   -0.0836789   -0.0156622
 60   H20 s0        0.0667248    0.0496619   -0.1065328   -0.0836789   -0.0156622

            Ene    -1.0110589   -0.9819805   -0.9116776   -0.9003321   -0.8206564
            Sym            Ag           Ag           Bu           Ag           Ag
            Occ             1            1            1            1            1


                           21           22           23           24           25

 1    C1 s0         0.0224209    0.0643086    0.0037866    0.0149406    0.0008563
 2    C1 s0        -0.0819763   -0.2289629   -0.0105404   -0.0506392   -0.0020148
 3    C1 p0         0.0000000    0.0000000    0.0000000    0.0000000    0.0000000
 4    C1 p+1        0.1403317   -0.0585741   -0.1759469   -0.0281492   -0.1210986
 5    C1 p-1        0.2201974   -0.0891202    0.2186411   -0.0197888   -0.0474454
 6    C2 s0        -0.0224209   -0.0643086   -0.0037866    0.0149406   -0.0008563
 7    C2 s0         0.0819763    0.2289629    0.0105404   -0.0506392    0.0020148
 8    C2 p0         0.0000000    0.0000000    0.0000000    0.0000000    0.0000000
 9    C2 p+1        0.1403317   -0.0585741   -0.1759469    0.0281492   -0.1210986
 10   C2 p-1        0.2201974   -0.0891202    0.2186411    0.0197888   -0.0474454
 11   C3 s0        -0.0179403   -0.0509620    0.0020316   -0.0209840    0.0196806
 12   C3 s0         0.0618351    0.1780102   -0.0060174    0.0718513   -0.0591094
 13   C3 p0         0.0000000    0.0000000    0.0000000    0.0000000    0.0000000
 14   C3 p+1       -0.2497206    0.0463997   -0.0604617    0.0868668   -0.1644450
 15   C3 p-1       -0.0179848    0.2376997   -0.0675602    0.0051999    0.3046922
 16   C4 s0         0.0179403    0.0509620   -0.0020316   -0.0209840   -0.0196806
 17   C4 s0        -0.0618351   -0.1780102    0.0060174    0.0718513    0.0591094
 18   C4 p0         0.0000000    0.0000000    0.0000000    0.0000000    0.0000000
 19   C4 p+1       -0.2497206    0.0463997   -0.0604617   -0.0868668   -0.1644450
 20   C4 p-1       -0.0179848    0.2376997   -0.0675602   -0.0051999    0.3046922
 21   C5 s0         0.0362376    0.0472973   -0.0170353    0.0165342    0.0104365
 22   C5 s0        -0.1205906   -0.1674110    0.0528805   -0.0622168   -0.0313041
 23   C5 p0         0.0000000    0.0000000    0.0000000    0.0000000    0.0000000
 24   C5 p+1        0.1603266   -0.1921300   -0.0050451   -0.1377934    0.2310134
 25   C5 p-1       -0.1525340   -0.1371512   -0.2585398   -0.0407029    0.1469024
 26   C6 s0        -0.0362376   -0.0472973    0.0170353    0.0165342   -0.0104365
 27   C6 s0         0.1205906    0.1674110   -0.0528805   -0.0622168    0.0313041
 28   C6 p0         0.0000000    0.0000000    0.0000000    0.0000000    0.0000000
 29   C6 p+1        0.1603266   -0.1921300   -0.0050451    0.1377934    0.2310134
 30   C6 p-1       -0.1525340   -0.1371512   -0.2585398    0.0407029    0.1469024
 31   H7 s0         0.0783897    0.2320079   -0.0387868    0.0084226    0.2421566
 32   H8 s0        -0.0783897   -0.2320079    0.0387868    0.0084226   -0.2421566
 33   H9 s0        -0.0615887   -0.2401587   -0.1442372   -0.1124875    0.1868333
 34   H10 s0        0.0615887    0.2401587    0.1442372   -0.1124875   -0.1868333
 35   C11 s0       -0.0101860    0.0171108   -0.0050579   -0.0242815   -0.0065498
 36   C11 s0        0.0284315   -0.0513204    0.0149665    0.0685101    0.0195565
 37   C11 p0        0.0000000    0.0000000    0.0000000    0.0000000    0.0000000
 38   C11 p+1      -0.0753000   -0.0774167    0.1856224    0.0409493    0.1038565
 39   C11 p-1       0.1735519    0.0049748   -0.0518553    0.2515734   -0.0250377
 40   C12 s0        0.0101860   -0.0171108    0.0050579   -0.0242815    0.0065498
 41   C12 s0       -0.0284315    0.0513204   -0.0149665    0.0685101   -0.0195565
 42   C12 p0        0.0000000    0.0000000    0.0000000    0.0000000    0.0000000
 43   C12 p+1      -0.0753000   -0.0774167    0.1856224   -0.0409493    0.1038565
 44   C12 p-1       0.1735519    0.0049748   -0.0518553   -0.2515734   -0.0250377
 45   H13 s0       -0.1247740   -0.0516583    0.0787443   -0.1549575    0.0388604
 46   H14 s0        0.1247740    0.0516583   -0.0787443   -0.1549575   -0.0388604
 47   C15 s0        0.0139854   -0.0167116    0.0027169    0.0041264    0.0060139
 48   C15 s0       -0.0513190    0.0627385   -0.0178133   -0.0273340   -0.0257617
 49   C15 p0        0.0000000    0.0000000    0.0000000    0.0000000    0.0000000
 50   C15 p+1      -0.1583231    0.0847723    0.0701024   -0.3515048    0.0043079
 51   C15 p-1       0.0496930    0.0579539   -0.2371415    0.0117767   -0.1239899
 52   C16 s0       -0.0139854    0.0167116   -0.0027169    0.0041264   -0.0060139
 53   C16 s0        0.0513190   -0.0627385    0.0178133   -0.0273340    0.0257617
 54   C16 p0        0.0000000    0.0000000    0.0000000    0.0000000    0.0000000
 55   C16 p+1      -0.1583231    0.0847723    0.0701024    0.3515048    0.0043079
 56   C16 p-1       0.0496930    0.0579539   -0.2371415   -0.0117767   -0.1239899
 57   H17 s0        0.0292196    0.0391914   -0.1826117    0.0321457   -0.0884750
 58   H18 s0       -0.0292196   -0.0391914    0.1826117    0.0321457    0.0884750
 59   H19 s0       -0.1186805    0.0641842    0.0836937   -0.2460365    0.0177301
 60   H20 s0        0.1186805   -0.0641842   -0.0836937   -0.2460365   -0.0177301

            Ene    -0.8070139   -0.7784197   -0.7599419   -0.7355603   -0.7351588
            Sym            Bu           Bu           Bu           Ag           Bu
            Occ             1            1            1            1            1


                           26           27           28           29           30

 1    C1 s0         0.0097230    0.0000000    0.0157696    0.0017102    0.0171031
 2    C1 s0        -0.0370569    0.0000000   -0.0573941   -0.0111374   -0.0732699
 3    C1 p0         0.0000000    0.3926252    0.0000000    0.0000000    0.0000000
 4    C1 p+1        0.1748663    0.0000000   -0.0640671    0.1956498    0.2124988
 5    C1 p-1        0.1101441    0.0000000    0.1424228    0.2525910   -0.0768823
 6    C2 s0        -0.0097230    0.0000000    0.0157696    0.0017102   -0.0171031
 7    C2 s0         0.0370569    0.0000000   -0.0573941   -0.0111374    0.0732699
 8    C2 p0         0.0000000    0.3926252    0.0000000    0.0000000    0.0000000
 9    C2 p+1        0.1748663    0.0000000    0.0640671   -0.1956498    0.2124988
 10   C2 p-1        0.1101441    0.0000000   -0.1424228   -0.2525910   -0.0768823
 11   C3 s0        -0.0158410    0.0000000    0.0073164   -0.0022924   -0.0041981
 12   C3 s0         0.0571716    0.0000000   -0.0349489    0.0030138    0.0124375
 13   C3 p0         0.0000000    0.2805940    0.0000000    0.0000000    0.0000000
 14   C3 p+1       -0.1663505    0.0000000    0.1583535   -0.1943722    0.0381133
 15   C3 p-1       -0.0620396    0.0000000   -0.1717652   -0.2238886   -0.0465544
 16   C4 s0         0.0158410    0.0000000    0.0073164   -0.0022924    0.0041981
 17   C4 s0        -0.0571716    0.0000000   -0.0349489    0.0030138   -0.0124375
 18   C4 p0         0.0000000    0.2805940    0.0000000    0.0000000    0.0000000
 19   C4 p+1       -0.1663505    0.0000000   -0.1583535    0.1943722    0.0381133
 20   C4 p-1       -0.0620396    0.0000000    0.1717652    0.2238886   -0.0465544
 21   C5 s0         0.0082800    0.0000000   -0.0082565    0.0047132    0.0097712
 22   C5 s0        -0.0256036    0.0000000    0.0305629   -0.0081487   -0.0346376
 23   C5 p0         0.0000000    0.2894903    0.0000000    0.0000000    0.0000000
 24   C5 p+1        0.1467502    0.0000000   -0.1571456    0.1705342   -0.0107963
 25   C5 p-1       -0.0338190    0.0000000    0.1138190    0.2199686    0.1100198
 26   C6 s0        -0.0082800    0.0000000   -0.0082565    0.0047132   -0.0097712
 27   C6 s0         0.0256036    0.0000000    0.0305629   -0.0081487    0.0346376
 28   C6 p0         0.0000000    0.2894903    0.0000000    0.0000000    0.0000000
 29   C6 p+1        0.1467502    0.0000000    0.1571456   -0.1705342   -0.0107963
 30   C6 p-1       -0.0338190    0.0000000   -0.1138190   -0.2199686    0.1100198
 31   H7 s0         0.0202450    0.0000000   -0.1995505   -0.1404396   -0.0316740
 32   H8 s0        -0.0202450    0.0000000   -0.1995505   -0.1404396    0.0316740
 33   H9 s0         0.0368663    0.0000000    0.0261462    0.2707141    0.0335825
 34   H10 s0       -0.0368663    0.0000000    0.0261462    0.2707141   -0.0335825
 35   C11 s0        0.0074894    0.0000000   -0.0185078    0.0078037    0.0067224
 36   C11 s0       -0.0094430    0.0000000    0.0741606   -0.0365935   -0.0311155
 37   C11 p0        0.0000000    0.1009163    0.0000000    0.0000000    0.0000000
 38   C11 p+1      -0.1860054    0.0000000   -0.1302479    0.1522118   -0.1188739
 39   C11 p-1      -0.2265358    0.0000000   -0.1677726    0.0599012    0.2282454
 40   C12 s0       -0.0074894    0.0000000   -0.0185078    0.0078037   -0.0067224
 41   C12 s0        0.0094430    0.0000000    0.0741606   -0.0365935    0.0311155
 42   C12 p0        0.0000000    0.1009163    0.0000000    0.0000000    0.0000000
 43   C12 p+1      -0.1860054    0.0000000    0.1302479   -0.1522118   -0.1188739
 44   C12 p-1      -0.2265358    0.0000000    0.1677726   -0.0599012    0.2282454
 45   H13 s0        0.1448101    0.0000000    0.1513213   -0.0463229   -0.2704948
 46   H14 s0       -0.1448101    0.0000000    0.1513213   -0.0463229    0.2704948
 47   C15 s0        0.0082656    0.0000000    0.0079781   -0.0063663   -0.0070665
 48   C15 s0       -0.0124633    0.0000000   -0.0183448    0.0155124    0.0263111
 49   C15 p0        0.0000000    0.0879157    0.0000000    0.0000000    0.0000000
 50   C15 p+1       0.3162206    0.0000000   -0.0276157   -0.1277530    0.1557145
 51   C15 p-1       0.1205825    0.0000000    0.2865008   -0.0938107   -0.2526029
 52   C16 s0       -0.0082656    0.0000000    0.0079781   -0.0063663    0.0070665
 53   C16 s0        0.0124633    0.0000000   -0.0183448    0.0155124   -0.0263111
 54   C16 p0        0.0000000    0.0879157    0.0000000    0.0000000    0.0000000
 55   C16 p+1       0.3162206    0.0000000    0.0276157    0.1277530    0.1557145
 56   C16 p-1       0.1205825    0.0000000   -0.2865008    0.0938107   -0.2526029
 57   H17 s0        0.0514100    0.0000000    0.2249936   -0.0352975   -0.2392374
 58   H18 s0       -0.0514100    0.0000000    0.2249936   -0.0352975    0.2392374
 59   H19 s0        0.1942041    0.0000000   -0.0937174   -0.0729180    0.2016274
 60   H20 s0       -0.1942041    0.0000000   -0.0937174   -0.0729180   -0.2016274

            Ene    -0.6971114   -0.6947916   -0.6799589   -0.6368176   -0.6323014
            Sym            Bu           Au           Ag           Ag           Bu
            Occ             1            1            1            1            1


                           31           32           33           34           35

 1    C1 s0         0.0168996    0.0000000    0.0000000    0.0000000    0.0000000
 2    C1 s0        -0.0770002    0.0000000    0.0000000    0.0000000    0.0000000
 3    C1 p0         0.0000000    0.4253466    0.0475392    0.3625528    0.0707075
 4    C1 p+1        0.2334321    0.0000000    0.0000000    0.0000000    0.0000000
 5    C1 p-1       -0.1588523    0.0000000    0.0000000    0.0000000    0.0000000
 6    C2 s0         0.0168996    0.0000000    0.0000000    0.0000000    0.0000000
 7    C2 s0        -0.0770002    0.0000000    0.0000000    0.0000000    0.0000000
 8    C2 p0         0.0000000   -0.4253466    0.0475392   -0.3625528   -0.0707075
 9    C2 p+1       -0.2334321    0.0000000    0.0000000    0.0000000    0.0000000
 10   C2 p-1        0.1588523    0.0000000    0.0000000    0.0000000    0.0000000
 11   C3 s0         0.0054252    0.0000000    0.0000000    0.0000000    0.0000000
 12   C3 s0        -0.0150327    0.0000000    0.0000000    0.0000000    0.0000000
 13   C3 p0         0.0000000    0.1394684    0.1084417    0.0841682    0.4769510
 14   C3 p+1       -0.1564588    0.0000000    0.0000000    0.0000000    0.0000000
 15   C3 p-1        0.1075678    0.0000000    0.0000000    0.0000000    0.0000000
 16   C4 s0         0.0054252    0.0000000    0.0000000    0.0000000    0.0000000
 17   C4 s0        -0.0150327    0.0000000    0.0000000    0.0000000    0.0000000
 18   C4 p0         0.0000000   -0.1394684    0.1084417   -0.0841682   -0.4769510
 19   C4 p+1        0.1564588    0.0000000    0.0000000    0.0000000    0.0000000
 20   C4 p-1       -0.1075678    0.0000000    0.0000000    0.0000000    0.0000000
 21   C5 s0        -0.0008365    0.0000000    0.0000000    0.0000000    0.0000000
 22   C5 s0         0.0021511    0.0000000    0.0000000    0.0000000    0.0000000
 23   C5 p0         0.0000000   -0.1560188    0.1112373   -0.2322628    0.4321710
 24   C5 p+1        0.1636119    0.0000000    0.0000000    0.0000000    0.0000000
 25   C5 p-1       -0.1636958    0.0000000    0.0000000    0.0000000    0.0000000
 26   C6 s0        -0.0008365    0.0000000    0.0000000    0.0000000    0.0000000
 27   C6 s0         0.0021511    0.0000000    0.0000000    0.0000000    0.0000000
 28   C6 p0         0.0000000    0.1560188    0.1112373    0.2322628   -0.4321710
 29   C6 p+1       -0.1636119    0.0000000    0.0000000    0.0000000    0.0000000
 30   C6 p-1        0.1636958    0.0000000    0.0000000    0.0000000    0.0000000
 31   H7 s0         0.1651360    0.0000000    0.0000000    0.0000000    0.0000000
 32   H8 s0         0.1651360    0.0000000    0.0000000    0.0000000    0.0000000
 33   H9 s0        -0.0041966    0.0000000    0.0000000    0.0000000    0.0000000
 34   H10 s0       -0.0041966    0.0000000    0.0000000    0.0000000    0.0000000
 35   C11 s0        0.0070024    0.0000000    0.0000000    0.0000000    0.0000000
 36   C11 s0       -0.0217009    0.0000000    0.0000000    0.0000000    0.0000000
 37   C11 p0        0.0000000   -0.2360380   -0.2736010    0.1655420    0.0189708
 38   C11 p+1       0.1822537    0.0000000    0.0000000    0.0000000    0.0000000
 39   C11 p-1      -0.1790500    0.0000000    0.0000000    0.0000000    0.0000000
 40   C12 s0        0.0070024    0.0000000    0.0000000    0.0000000    0.0000000
 41   C12 s0       -0.0217009    0.0000000    0.0000000    0.0000000    0.0000000
 42   C12 p0        0.0000000    0.2360380   -0.2736010   -0.1655420   -0.0189708
 43   C12 p+1      -0.1822537    0.0000000    0.0000000    0.0000000    0.0000000
 44   C12 p-1       0.1790500    0.0000000    0.0000000    0.0000000    0.0000000
 45   H13 s0        0.2274269    0.0000000    0.0000000    0.0000000    0.0000000
 46   H14 s0        0.2274269    0.0000000    0.0000000    0.0000000    0.0000000
 47   C15 s0        0.0038028    0.0000000    0.0000000    0.0000000    0.0000000
 48   C15 s0       -0.0180128    0.0000000    0.0000000    0.0000000    0.0000000
 49   C15 p0        0.0000000   -0.3226958   -0.5687205    0.4903157    0.0755791
 50   C15 p+1      -0.1426371    0.0000000    0.0000000    0.0000000    0.0000000
 51   C15 p-1       0.1577055    0.0000000    0.0000000    0.0000000    0.0000000
 52   C16 s0        0.0038028    0.0000000    0.0000000    0.0000000    0.0000000
 53   C16 s0       -0.0180128    0.0000000    0.0000000    0.0000000    0.0000000
 54   C16 p0        0.0000000    0.3226958   -0.5687205   -0.4903157   -0.0755791
 55   C16 p+1       0.1426371    0.0000000    0.0000000    0.0000000    0.0000000
 56   C16 p-1      -0.1577055    0.0000000    0.0000000    0.0000000    0.0000000
 57   H17 s0        0.1684431    0.0000000    0.0000000    0.0000000    0.0000000
 58   H18 s0        0.1684431    0.0000000    0.0000000    0.0000000    0.0000000
 59   H19 s0       -0.1684406    0.0000000    0.0000000    0.0000000    0.0000000
 60   H20 s0       -0.1684406    0.0000000    0.0000000    0.0000000    0.0000000

            Ene    -0.6163934   -0.5966142   -0.5318728   -0.4915393   -0.4790686
            Sym            Ag           Bg           Au           Bg           Bg
            Occ             1            1            1            1            1


                           36           37           38           39           40

 1    C1 s0         0.0000000    0.0000000    0.0000000    0.0000000    0.0000000
 2    C1 s0         0.0000000    0.0000000    0.0000000    0.0000000    0.0000000
 3    C1 p0         0.5121181    0.0260286    0.0812192    0.3730243    0.4939264
 4    C1 p+1        0.0000000    0.0000000    0.0000000    0.0000000    0.0000000
 5    C1 p-1        0.0000000    0.0000000    0.0000000    0.0000000    0.0000000
 6    C2 s0         0.0000000    0.0000000    0.0000000    0.0000000    0.0000000
 7    C2 s0         0.0000000    0.0000000    0.0000000    0.0000000    0.0000000
 8    C2 p0         0.5121181    0.0260286   -0.0812192    0.3730243   -0.4939264
 9    C2 p+1        0.0000000    0.0000000    0.0000000    0.0000000    0.0000000
 10   C2 p-1        0.0000000    0.0000000    0.0000000    0.0000000    0.0000000
 11   C3 s0         0.0000000    0.0000000    0.0000000    0.0000000    0.0000000
 12   C3 s0         0.0000000    0.0000000    0.0000000    0.0000000    0.0000000
 13   C3 p0        -0.3015650   -0.5877826   -0.3002482   -0.1235394   -0.4558153
 14   C3 p+1        0.0000000    0.0000000    0.0000000    0.0000000    0.0000000
 15   C3 p-1        0.0000000    0.0000000    0.0000000    0.0000000    0.0000000
 16   C4 s0         0.0000000    0.0000000    0.0000000    0.0000000    0.0000000
 17   C4 s0         0.0000000    0.0000000    0.0000000    0.0000000    0.0000000
 18   C4 p0        -0.3015650   -0.5877826    0.3002482   -0.1235394    0.4558153
 19   C4 p+1        0.0000000    0.0000000    0.0000000    0.0000000    0.0000000
 20   C4 p-1        0.0000000    0.0000000    0.0000000    0.0000000    0.0000000
 21   C5 s0         0.0000000    0.0000000    0.0000000    0.0000000    0.0000000
 22   C5 s0         0.0000000    0.0000000    0.0000000    0.0000000    0.0000000
 23   C5 p0        -0.3554257    0.5480921    0.2886411   -0.1392296    0.4511922
 24   C5 p+1        0.0000000    0.0000000    0.0000000    0.0000000    0.0000000
 25   C5 p-1        0.0000000    0.0000000    0.0000000    0.0000000    0.0000000
 26   C6 s0         0.0000000    0.0000000    0.0000000    0.0000000    0.0000000
 27   C6 s0         0.0000000    0.0000000    0.0000000    0.0000000    0.0000000
 28   C6 p0        -0.3554257    0.5480921   -0.2886411   -0.1392296   -0.4511922
 29   C6 p+1        0.0000000    0.0000000    0.0000000    0.0000000    0.0000000
 30   C6 p-1        0.0000000    0.0000000    0.0000000    0.0000000    0.0000000
 31   H7 s0         0.0000000    0.0000000    0.0000000    0.0000000    0.0000000
 32   H8 s0         0.0000000    0.0000000    0.0000000    0.0000000    0.0000000
 33   H9 s0         0.0000000    0.0000000    0.0000000    0.0000000    0.0000000
 34   H10 s0        0.0000000    0.0000000    0.0000000    0.0000000    0.0000000
 35   C11 s0        0.0000000    0.0000000    0.0000000    0.0000000    0.0000000
 36   C11 s0        0.0000000    0.0000000    0.0000000    0.0000000    0.0000000
 37   C11 p0        0.2230754    0.0035112   -0.5691282   -0.6420721    0.3739393
 38   C11 p+1       0.0000000    0.0000000    0.0000000    0.0000000    0.0000000
 39   C11 p-1       0.0000000    0.0000000    0.0000000    0.0000000    0.0000000
 40   C12 s0        0.0000000    0.0000000    0.0000000    0.0000000    0.0000000
 41   C12 s0        0.0000000    0.0000000    0.0000000    0.0000000    0.0000000
 42   C12 p0        0.2230754    0.0035112    0.5691282   -0.6420721   -0.3739393
 43   C12 p+1       0.0000000    0.0000000    0.0000000    0.0000000    0.0000000
 44   C12 p-1       0.0000000    0.0000000    0.0000000    0.0000000    0.0000000
 45   H13 s0        0.0000000    0.0000000    0.0000000    0.0000000    0.0000000
 46   H14 s0        0.0000000    0.0000000    0.0000000    0.0000000    0.0000000
 47   C15 s0        0.0000000    0.0000000    0.0000000    0.0000000    0.0000000
 48   C15 s0        0.0000000    0.0000000    0.0000000    0.0000000    0.0000000
 49   C15 p0       -0.2547350   -0.0091333    0.3822430    0.3654143   -0.1825091
 50   C15 p+1       0.0000000    0.0000000    0.0000000    0.0000000    0.0000000
 51   C15 p-1       0.0000000    0.0000000    0.0000000    0.0000000    0.0000000
 52   C16 s0        0.0000000    0.0000000    0.0000000    0.0000000    0.0000000
 53   C16 s0        0.0000000    0.0000000    0.0000000    0.0000000    0.0000000
 54   C16 p0       -0.2547350   -0.0091333   -0.3822430    0.3654143    0.1825091
 55   C16 p+1       0.0000000    0.0000000    0.0000000    0.0000000    0.0000000
 56   C16 p-1       0.0000000    0.0000000    0.0000000    0.0000000    0.0000000
 57   H17 s0        0.0000000    0.0000000    0.0000000    0.0000000    0.0000000
 58   H18 s0        0.0000000    0.0000000    0.0000000    0.0000000    0.0000000
 59   H19 s0        0.0000000    0.0000000    0.0000000    0.0000000    0.0000000
 60   H20 s0        0.0000000    0.0000000    0.0000000    0.0000000    0.0000000

            Ene    -0.0477191    0.0621386    0.1319057    0.2089047    0.2970579
            Sym            Au           Au           Bg           Au           Bg
            Occ             0            0            0            0            0


                           41           42           43           44           45

 1    C1 s0         0.0690632    0.0317655    0.0558548    0.0691817    0.0767350
 2    C1 s0        -0.4231156   -0.1927342   -0.3342516   -0.4338348   -0.4820460
 3    C1 p0         0.0000000    0.0000000    0.0000000    0.0000000    0.0000000
 4    C1 p+1        0.2642811    0.1118543    0.4720956   -0.1137008    0.0805942
 5    C1 p-1       -0.0898922   -0.3546239    0.1113084   -0.1390075    0.3626534
 6    C2 s0         0.0690632   -0.0317655   -0.0558548    0.0691817    0.0767350
 7    C2 s0        -0.4231156    0.1927342    0.3342516   -0.4338348   -0.4820460
 8    C2 p0         0.0000000    0.0000000    0.0000000    0.0000000    0.0000000
 9    C2 p+1       -0.2642811    0.1118543    0.4720956    0.1137008   -0.0805942
 10   C2 p-1        0.0898922   -0.3546239    0.1113084    0.1390075   -0.3626534
 11   C3 s0         0.0262360   -0.0085330   -0.0208492   -0.0932255    0.0701233
 12   C3 s0        -0.1639600    0.0496369    0.1294308    0.5853530   -0.4370373
 13   C3 p0         0.0000000    0.0000000    0.0000000    0.0000000    0.0000000
 14   C3 p+1        0.0555321   -0.0029163    0.2770722   -0.1914267   -0.2553301
 15   C3 p-1       -0.3129548   -0.4024088    0.1124968   -0.0782105   -0.0192205
 16   C4 s0         0.0262360    0.0085330    0.0208492   -0.0932255    0.0701233
 17   C4 s0        -0.1639600   -0.0496369   -0.1294308    0.5853530   -0.4370373
 18   C4 p0         0.0000000    0.0000000    0.0000000    0.0000000    0.0000000
 19   C4 p+1       -0.0555321   -0.0029163    0.2770722    0.1914267    0.2553301
 20   C4 p-1        0.3129548   -0.4024088    0.1124968    0.0782105    0.0192205
 21   C5 s0         0.0468985    0.0159276    0.0081843   -0.0289031   -0.1325181
 22   C5 s0        -0.2904202   -0.0970280   -0.0484275    0.1858565    0.8319538
 23   C5 p0         0.0000000    0.0000000    0.0000000    0.0000000    0.0000000
 24   C5 p+1       -0.1239236    0.0152162    0.3283941    0.2886499   -0.0105690
 25   C5 p-1       -0.2259148   -0.3463421    0.2470996    0.0690554   -0.1643007
 26   C6 s0         0.0468985   -0.0159276   -0.0081843   -0.0289031   -0.1325181
 27   C6 s0        -0.2904202    0.0970280    0.0484275    0.1858565    0.8319538
 28   C6 p0         0.0000000    0.0000000    0.0000000    0.0000000    0.0000000
 29   C6 p+1        0.1239236    0.0152162    0.3283941   -0.2886499    0.0105690
 30   C6 p-1        0.2259148   -0.3463421    0.2470996   -0.0690554    0.1643007
 31   H7 s0         0.4233710    0.3624158   -0.0731359   -0.3315293    0.1763206
 32   H8 s0         0.4233710   -0.3624158    0.0731359   -0.3315293    0.1763206
 33   H9 s0         0.4465656    0.3217930   -0.3948510   -0.2989132   -0.2705553
 34   H10 s0        0.4465656   -0.3217930    0.3948510   -0.2989132   -0.2705553
 35   C11 s0       -0.0598343    0.0023343    0.0932596    0.0296029   -0.0362116
 36   C11 s0        0.3428357   -0.0159423   -0.5462277   -0.1790523    0.2158667
 37   C11 p0        0.0000000    0.0000000    0.0000000    0.0000000    0.0000000
 38   C11 p+1      -0.3493152    0.1990462    0.3779563   -0.1250278   -0.2304012
 39   C11 p-1       0.2198324   -0.3067163   -0.0850945    0.2964469   -0.1697333
 40   C12 s0       -0.0598343   -0.0023343   -0.0932596    0.0296029   -0.0362116
 41   C12 s0        0.3428357    0.0159423    0.5462277   -0.1790523    0.2158667
 42   C12 p0        0.0000000    0.0000000    0.0000000    0.0000000    0.0000000
 43   C12 p+1       0.3493152    0.1990462    0.3779563    0.1250278    0.2304012
 44   C12 p-1      -0.2198324   -0.3067163   -0.0850945   -0.2964469    0.1697333
 45   H13 s0        0.0865345   -0.3577743    0.1283306    0.4410789   -0.2489809
 46   H14 s0        0.0865345    0.3577743   -0.1283306    0.4410789   -0.2489809
 47   C15 s0        0.0381439   -0.0046484   -0.0369942   -0.0059534   -0.0667981
 48   C15 s0       -0.2250024    0.0318872    0.2172467    0.0320662    0.4353413
 49   C15 p0        0.0000000    0.0000000    0.0000000    0.0000000    0.0000000
 50   C15 p+1      -0.0999069    0.1068837    0.1108035   -0.1930007    0.0156460
 51   C15 p-1       0.1218162   -0.2755511   -0.1267344    0.2927431    0.1265680
 52   C16 s0        0.0381439    0.0046484    0.0369942   -0.0059534   -0.0667981
 53   C16 s0       -0.2250024   -0.0318872   -0.2172467    0.0320662    0.4353413
 54   C16 p0        0.0000000    0.0000000    0.0000000    0.0000000    0.0000000
 55   C16 p+1       0.0999069    0.1068837    0.1108035    0.1930007   -0.0156460
 56   C16 p-1      -0.1218162   -0.2755511   -0.1267344   -0.2927431   -0.1265680
 57   H17 s0       -0.0921517    0.2833662    0.0772157   -0.3471456   -0.3212796
 58   H18 s0       -0.0921517   -0.2833662   -0.0772157   -0.3471456   -0.3212796
 59   H19 s0        0.3170484   -0.2372331   -0.3077370    0.2701177   -0.2005692
 60   H20 s0        0.3170484    0.2372331    0.3077370    0.2701177   -0.2005692

            Ene     0.3698293    0.3808517    0.4202488    0.4362674    0.4530307
            Sym            Ag           Bu           Bu           Ag           Ag
            Occ             0            0            0            0            0


                           46           47           48           49           50

 1    C1 s0         0.0964670    0.1037835    0.0041007    0.0481559    0.0286603
 2    C1 s0        -0.5965309   -0.6579183   -0.0358254   -0.2975244   -0.1884437
 3    C1 p0         0.0000000    0.0000000    0.0000000    0.0000000    0.0000000
 4    C1 p+1       -0.1248522   -0.2039619   -0.1963421   -0.0617987   -0.0733898
 5    C1 p-1        0.1464184   -0.0287602   -0.0235956   -0.1833841   -0.2760707
 6    C2 s0        -0.0964670    0.1037835   -0.0041007   -0.0481559    0.0286603
 7    C2 s0         0.5965309   -0.6579183    0.0358254    0.2975244   -0.1884437
 8    C2 p0         0.0000000    0.0000000    0.0000000    0.0000000    0.0000000
 9    C2 p+1       -0.1248522    0.2039619   -0.1963421   -0.0617987    0.0733898
 10   C2 p-1        0.1464184    0.0287602   -0.0235956   -0.1833841    0.2760707
 11   C3 s0        -0.0967739   -0.0886314   -0.0339545   -0.0450000   -0.0800467
 12   C3 s0         0.5899480    0.5632280    0.2193631    0.2826647    0.5188777
 13   C3 p0         0.0000000    0.0000000    0.0000000    0.0000000    0.0000000
 14   C3 p+1       -0.1302864   -0.1902784   -0.3334917   -0.0752528    0.1242012
 15   C3 p-1        0.1301380   -0.0674489    0.1808375   -0.1938810   -0.1586961
 16   C4 s0         0.0967739   -0.0886314    0.0339545    0.0450000   -0.0800467
 17   C4 s0        -0.5899480    0.5632280   -0.2193631   -0.2826647    0.5188777
 18   C4 p0         0.0000000    0.0000000    0.0000000    0.0000000    0.0000000
 19   C4 p+1       -0.1302864    0.1902784   -0.3334917   -0.0752528   -0.1242012
 20   C4 p-1        0.1301380    0.0674489    0.1808375   -0.1938810    0.1586961
 21   C5 s0         0.1096875   -0.0235307   -0.0312448    0.0449039    0.0773308
 22   C5 s0        -0.6760247    0.1531024    0.2085603   -0.2815047   -0.5038998
 23   C5 p0         0.0000000    0.0000000    0.0000000    0.0000000    0.0000000
 24   C5 p+1       -0.2122315    0.1803574   -0.0413926   -0.0377790    0.1504804
 25   C5 p-1        0.0894700   -0.3357847    0.1756827   -0.1472493   -0.1144005
 26   C6 s0        -0.1096875   -0.0235307    0.0312448   -0.0449039    0.0773308
 27   C6 s0         0.6760247    0.1531024   -0.2085603    0.2815047   -0.5038998
 28   C6 p0         0.0000000    0.0000000    0.0000000    0.0000000    0.0000000
 29   C6 p+1       -0.2122315   -0.1803574   -0.0413926   -0.0377790   -0.1504804
 30   C6 p-1        0.0894700    0.3357847    0.1756827   -0.1472493    0.1144005
 31   H7 s0        -0.5027815   -0.2632179   -0.4032021    0.0218537   -0.0767861
 32   H8 s0         0.5027815   -0.2632179    0.4032021   -0.0218537   -0.0767861
 33   H9 s0         0.4031565    0.0232185   -0.1629222    0.3382423    0.2860248
 34   H10 s0       -0.4031565    0.0232185    0.1629222   -0.3382423    0.2860248
 35   C11 s0        0.0186670   -0.0798394   -0.0618769    0.0872298   -0.0181341
 36   C11 s0       -0.1131350    0.4805262    0.3916057   -0.5347377    0.1346469
 37   C11 p0        0.0000000    0.0000000    0.0000000    0.0000000    0.0000000
 38   C11 p+1       0.1361065    0.0311482   -0.0987199   -0.1276706   -0.0900442
 39   C11 p-1       0.0603723   -0.1427454   -0.3031668    0.0731312   -0.1071267
 40   C12 s0       -0.0186670   -0.0798394    0.0618769   -0.0872298   -0.0181341
 41   C12 s0        0.1131350    0.4805262   -0.3916057    0.5347377    0.1346469
 42   C12 p0        0.0000000    0.0000000    0.0000000    0.0000000    0.0000000
 43   C12 p+1       0.1361065   -0.0311482   -0.0987199   -0.1276706    0.0900442
 44   C12 p-1       0.0603723    0.1427454   -0.3031668    0.0731312    0.1071267
 45   H13 s0        0.0591639   -0.3970895   -0.4598253    0.3759954   -0.1088568
 46   H14 s0       -0.0591639   -0.3970895    0.4598253   -0.3759954   -0.1088568
 47   C15 s0        0.0467538    0.0761042   -0.0683018   -0.1148882   -0.0922192
 48   C15 s0       -0.3021594   -0.4779305    0.4497808    0.7410368    0.6067858
 49   C15 p0        0.0000000    0.0000000    0.0000000    0.0000000    0.0000000
 50   C15 p+1       0.0063772    0.0913571    0.3130138   -0.0790824    0.3891275
 51   C15 p-1      -0.1919765   -0.1982084    0.0224480    0.2055300    0.1174930
 52   C16 s0       -0.0467538    0.0761042    0.0683018    0.1148882   -0.0922192
 53   C16 s0        0.3021594   -0.4779305   -0.4497808   -0.7410368    0.6067858
 54   C16 p0        0.0000000    0.0000000    0.0000000    0.0000000    0.0000000
 55   C16 p+1       0.0063772   -0.0913571    0.3130138   -0.0790824   -0.3891275
 56   C16 p-1      -0.1919765    0.1982084    0.0224480    0.2055300   -0.1174930
 57   H17 s0        0.3158214    0.4525479   -0.1614761   -0.6193960   -0.3695763
 58   H18 s0       -0.3158214    0.4525479    0.1614761    0.6193960   -0.3695763
 59   H19 s0        0.0934826    0.1119681   -0.5142135   -0.2456075   -0.6092268
 60   H20 s0       -0.0934826    0.1119681    0.5142135    0.2456075   -0.6092268

            Ene     0.4548520    0.4836134    0.4925887    0.5167135    0.5443031
            Sym            Bu           Ag           Bu           Bu           Ag
            Occ             0            0            0            0            0


                           51           52           53           54           55

 1    C1 s0         0.0267034    0.0042894    0.0030098    0.0692346    0.0708911
 2    C1 s0        -0.2030392   -0.0385928   -0.0141290   -0.4908693   -0.4985947
 3    C1 p0         0.0000000    0.0000000    0.0000000    0.0000000    0.0000000
 4    C1 p+1       -0.6179388    0.0703873    0.0315074    0.0377673   -0.0241158
 5    C1 p-1        0.1371757    0.5744247   -0.1687159   -0.1990109    0.1924924
 6    C2 s0         0.0267034   -0.0042894    0.0030098   -0.0692346   -0.0708911
 7    C2 s0        -0.2030392    0.0385928   -0.0141290    0.4908693    0.4985947
 8    C2 p0         0.0000000    0.0000000    0.0000000    0.0000000    0.0000000
 9    C2 p+1        0.6179388    0.0703873   -0.0315074    0.0377673   -0.0241158
 10   C2 p-1       -0.1371757    0.5744247    0.1687159   -0.1990109    0.1924924
 11   C3 s0         0.0102477    0.0969717    0.0052877    0.0421116   -0.0079538
 12   C3 s0        -0.0636136   -0.6626379   -0.0258832   -0.2907938    0.0466424
 13   C3 p0         0.0000000    0.0000000    0.0000000    0.0000000    0.0000000
 14   C3 p+1       -0.0896401    0.1161691    0.2021856   -0.7024442    0.0552362
 15   C3 p-1       -0.4408370   -0.0554512   -0.5449634   -0.2634480   -0.2635421
 16   C4 s0         0.0102477   -0.0969717    0.0052877   -0.0421116    0.0079538
 17   C4 s0        -0.0636136    0.6626379   -0.0258832    0.2907938   -0.0466424
 18   C4 p0         0.0000000    0.0000000    0.0000000    0.0000000    0.0000000
 19   C4 p+1        0.0896401    0.1161691   -0.2021856   -0.7024442    0.0552362
 20   C4 p-1        0.4408370   -0.0554512    0.5449634   -0.2634480   -0.2635421
 21   C5 s0        -0.0332656    0.0419840   -0.0081586   -0.0803965    0.0424173
 22   C5 s0         0.2218356   -0.2953244    0.0442604    0.5622734   -0.2932257
 23   C5 p0         0.0000000    0.0000000    0.0000000    0.0000000    0.0000000
 24   C5 p+1       -0.0921077   -0.4974186    0.3958031   -0.4127210   -0.0154021
 25   C5 p-1       -0.2798064    0.1939110    0.5019762    0.3911008    0.3168017
 26   C6 s0        -0.0332656   -0.0419840   -0.0081586    0.0803965   -0.0424173
 27   C6 s0         0.2218356    0.2953244    0.0442604   -0.5622734    0.2932257
 28   C6 p0         0.0000000    0.0000000    0.0000000    0.0000000    0.0000000
 29   C6 p+1        0.0921077   -0.4974186   -0.3958031   -0.4127210   -0.0154021
 30   C6 p-1        0.2798064    0.1939110   -0.5019762    0.3911008    0.3168017
 31   H7 s0         0.3326375    0.3501751    0.4930890    0.1298955    0.1469315
 32   H8 s0         0.3326375   -0.3501751    0.4930890   -0.1298955   -0.1469315
 33   H9 s0         0.1110960    0.2573504   -0.5468439   -0.2761549   -0.0266329
 34   H10 s0        0.1110960   -0.2573504   -0.5468439    0.2761549    0.0266329
 35   C11 s0        0.1035341   -0.0231789   -0.0488778    0.0572352   -0.0388037
 36   C11 s0       -0.6662901    0.1716482    0.3314248   -0.3857806    0.2809123
 37   C11 p0        0.0000000    0.0000000    0.0000000    0.0000000    0.0000000
 38   C11 p+1       0.0850321    0.0571750    0.1371405    0.0564768    0.4346993
 39   C11 p-1       0.1389001    0.1585506    0.0804207    0.0425322   -0.3463869
 40   C12 s0        0.1035341    0.0231789   -0.0488778   -0.0572352    0.0388037
 41   C12 s0       -0.6662901   -0.1716482    0.3314248    0.3857806   -0.2809123
 42   C12 p0        0.0000000    0.0000000    0.0000000    0.0000000    0.0000000
 43   C12 p+1      -0.0850321    0.0571750   -0.1371405    0.0564768    0.4346993
 44   C12 p-1      -0.1389001    0.1585506   -0.0804207    0.0425322   -0.3463869
 45   H13 s0        0.3758908    0.0772034   -0.1202213    0.2017182   -0.4253293
 46   H14 s0        0.3758908   -0.0772034   -0.1202213   -0.2017182    0.4253293
 47   C15 s0       -0.0234146   -0.0100772    0.0370520    0.0037339    0.0184630
 48   C15 s0        0.1457711    0.0565381   -0.2587212   -0.0311668   -0.1314674
 49   C15 p0        0.0000000    0.0000000    0.0000000    0.0000000    0.0000000
 50   C15 p+1       0.0354707    0.4278978    0.2365741   -0.1429020   -0.2594625
 51   C15 p-1      -0.3000115    0.0328457    0.0515089   -0.1499286    0.5418938
 52   C16 s0       -0.0234146    0.0100772    0.0370520   -0.0037339   -0.0184630
 53   C16 s0        0.1457711   -0.0565381   -0.2587212    0.0311668    0.1314674
 54   C16 p0        0.0000000    0.0000000    0.0000000    0.0000000    0.0000000
 55   C16 p+1      -0.0354707    0.4278978   -0.2365741   -0.1429020   -0.2594625
 56   C16 p-1       0.3000115    0.0328457   -0.0515089   -0.1499286    0.5418938
 57   H17 s0        0.1812032   -0.0060553    0.1552699    0.1509868   -0.3916944
 58   H18 s0        0.1812032    0.0060553    0.1552699   -0.1509868    0.3916944
 59   H19 s0       -0.1922707   -0.3789883   -0.0670438    0.0822404    0.3763214
 60   H20 s0       -0.1922707    0.3789883   -0.0670438   -0.0822404   -0.3763214

            Ene     0.5843098    0.6101406    0.6492650    0.6738859    0.7235281
            Sym            Ag           Bu           Ag           Bu           Bu
            Occ             0            0            0            0            0


                           56           57           58           59           60

 1    C1 s0         0.0162310    0.0208799    0.0202270    0.0063948    0.0316405
 2    C1 s0        -0.1029282   -0.1383363   -0.1492739   -0.0440676   -0.2484574
 3    C1 p0         0.0000000    0.0000000    0.0000000    0.0000000    0.0000000
 4    C1 p+1        0.2374856    0.3845496   -0.1773882   -0.0298218   -0.6332526
 5    C1 p-1       -0.1779557    0.1681775   -0.3860522   -0.6612311    0.1735544
 6    C2 s0         0.0162310    0.0208799   -0.0202270    0.0063948   -0.0316405
 7    C2 s0        -0.1029282   -0.1383363    0.1492739   -0.0440676    0.2484574
 8    C2 p0         0.0000000    0.0000000    0.0000000    0.0000000    0.0000000
 9    C2 p+1       -0.2374856   -0.3845496   -0.1773882    0.0298218   -0.6332526
 10   C2 p-1        0.1779557   -0.1681775   -0.3860522    0.6612311    0.1735544
 11   C3 s0         0.0246410   -0.0156048   -0.0437206   -0.0061846   -0.0427085
 12   C3 s0        -0.1785167    0.1138681    0.3225028    0.0442803    0.3164336
 13   C3 p0         0.0000000    0.0000000    0.0000000    0.0000000    0.0000000
 14   C3 p+1       -0.4619557    0.3521984   -0.0788510   -0.5002151    0.2494002
 15   C3 p-1        0.1578496    0.1511356   -0.2315122   -0.2340398   -0.5348437
 16   C4 s0         0.0246410   -0.0156048    0.0437206   -0.0061846    0.0427085
 17   C4 s0        -0.1785167    0.1138681   -0.3225028    0.0442803   -0.3164336
 18   C4 p0         0.0000000    0.0000000    0.0000000    0.0000000    0.0000000
 19   C4 p+1        0.4619557   -0.3521984   -0.0788510    0.5002151    0.2494002
 20   C4 p-1       -0.1578496   -0.1511356   -0.2315122    0.2340398   -0.5348437
 21   C5 s0        -0.0327142    0.0089015   -0.0122175    0.0053382    0.0493914
 22   C5 s0         0.2308227   -0.0686115    0.0946932   -0.0372208   -0.3692586
 23   C5 p0         0.0000000    0.0000000    0.0000000    0.0000000    0.0000000
 24   C5 p+1       -0.3772751    0.4080709    0.2287772   -0.3782163    0.3792074
 25   C5 p-1        0.1803964   -0.0113915    0.0026119    0.4205757    0.4761406
 26   C6 s0        -0.0327142    0.0089015    0.0122175    0.0053382   -0.0493914
 27   C6 s0         0.2308227   -0.0686115   -0.0946932   -0.0372208    0.3692586
 28   C6 p0         0.0000000    0.0000000    0.0000000    0.0000000    0.0000000
 29   C6 p+1        0.3772751   -0.4080709    0.2287772    0.3782163    0.3792074
[...]
 52   C16 s0       -0.0511982   -0.0227321    0.0739011    0.1436867   -0.1072719
 53   C16 s0        0.3224703    0.1484599   -0.4489579   -0.9050103    0.6830374
 54   C16 p0        0.0000000    0.0000000    0.0000000    0.0000000    0.0000000
 55   C16 p+1       0.0488946   -0.3160838   -0.1052771    0.0465629   -0.3672047
 56   C16 p-1      -0.1940634    0.0524646    0.1108254    0.2095148   -0.2321069
 57   H17 s0       -0.3245383   -0.0809646    0.3391933   -0.6403556   -0.4892821
 58   H18 s0       -0.3245383    0.0809646    0.3391933    0.6403556   -0.4892821
 59   H19 s0       -0.0560220    0.3773443    0.1124612   -0.4290495   -0.5763863
 60   H20 s0       -0.0560220   -0.3773443    0.1124612    0.4290495   -0.5763863

            Ene     0.4658206    0.4895699    0.4943443    0.5393007    0.5631309
            Sym            Ag           Bu           Ag           Bu           Ag
            Occ             0            0            0            0            0


                           51           52           53           54           55

 1    C1 s0         0.0477826    0.0123633    0.0016029    0.0658613    0.0798145
 2    C1 s0        -0.3358426   -0.0904134   -0.0059853   -0.4572720   -0.5512560
 3    C1 p0         0.0000000    0.0000000    0.0000000    0.0000000    0.0000000
 4    C1 p+1       -0.6391828    0.0787570    0.0045094    0.0411422   -0.0150977
 5    C1 p-1        0.1058005    0.5677347   -0.1651972   -0.2337684    0.1808558
 6    C2 s0         0.0477826   -0.0123633    0.0016029   -0.0658613   -0.0798145
 7    C2 s0        -0.3358426    0.0904134   -0.0059853    0.4572720    0.5512560
 8    C2 p0         0.0000000    0.0000000    0.0000000    0.0000000    0.0000000
 9    C2 p+1        0.6391828    0.0787570   -0.0045094    0.0411422   -0.0150977
 10   C2 p-1       -0.1058005    0.5677347    0.1651972   -0.2337684    0.1808558
 11   C3 s0        -0.0096312    0.0932484    0.0043024    0.0383570   -0.0058912
 12   C3 s0         0.0676508   -0.6419811   -0.0187145   -0.2645301    0.0315225
 13   C3 p0         0.0000000    0.0000000    0.0000000    0.0000000    0.0000000
 14   C3 p+1       -0.0905290    0.0778108    0.2132582   -0.7130725   -0.0015182
 15   C3 p-1       -0.4581776   -0.0596903   -0.5559542   -0.2271002   -0.2731503
 16   C4 s0        -0.0096312   -0.0932484    0.0043024   -0.0383570    0.0058912
 17   C4 s0         0.0676508    0.6419811   -0.0187145    0.2645301   -0.0315225
 18   C4 p0         0.0000000    0.0000000    0.0000000    0.0000000    0.0000000
 19   C4 p+1        0.0905290    0.0778108   -0.2132582   -0.7130725   -0.0015182
 20   C4 p-1        0.4581776   -0.0596903    0.5559542   -0.2271002   -0.2731503
 21   C5 s0        -0.0260074    0.0395886   -0.0073755   -0.0841743    0.0383698
 22   C5 s0         0.1743129   -0.2793080    0.0385914    0.5885837   -0.2641858
 23   C5 p0         0.0000000    0.0000000    0.0000000    0.0000000    0.0000000
 24   C5 p+1       -0.0520888   -0.5055409    0.4027459   -0.4019357   -0.0575343
 25   C5 p-1       -0.3547661    0.2200177    0.4924878    0.3514981    0.3389091
 26   C6 s0        -0.0260074   -0.0395886   -0.0073755    0.0841743   -0.0383698
 27   C6 s0         0.1743129    0.2793080    0.0385914   -0.5885837    0.2641858
 28   C6 p0         0.0000000    0.0000000    0.0000000    0.0000000    0.0000000
 29   C6 p+1        0.0520888   -0.5055409   -0.4027459   -0.4019357   -0.0575343
 30   C6 p-1        0.3547661    0.2200177   -0.4924878    0.3514981    0.3389091
 31   H7 s0         0.2900541    0.3299545    0.5018574    0.0925611    0.1461534
 32   H8 s0         0.2900541   -0.3299545    0.5018574   -0.0925611   -0.1461534
 33   H9 s0         0.1706253    0.2381568   -0.5444479   -0.2723719   -0.0325518
 34   H10 s0        0.1706253   -0.2381568   -0.5444479    0.2723719    0.0325518
 35   C11 s0        0.0818886   -0.0173992   -0.0418547    0.0572958   -0.0273209
 36   C11 s0       -0.5409577    0.1405141    0.2915205   -0.3992189    0.2080028
 37   C11 p0        0.0000000    0.0000000    0.0000000    0.0000000    0.0000000
 38   C11 p+1       0.0497921    0.0727475    0.1453868    0.0199623    0.4208960
 39   C11 p-1       0.0772757    0.1509164    0.0692982    0.0498072   -0.3314411
 40   C12 s0        0.0818886    0.0173992   -0.0418547   -0.0572958    0.0273209
 41   C12 s0       -0.5409577   -0.1405141    0.2915205    0.3992189   -0.2080028
 42   C12 p0        0.0000000    0.0000000    0.0000000    0.0000000    0.0000000
 43   C12 p+1      -0.0497921    0.0727475   -0.1453868    0.0199623    0.4208960
 44   C12 p-1      -0.0772757    0.1509164   -0.0692982    0.0498072   -0.3314411
 45   H13 s0        0.2761821    0.0843196   -0.1137935    0.2148118   -0.3820120
 46   H14 s0        0.2761821   -0.0843196   -0.1137935   -0.2148118    0.3820120
 47   C15 s0       -0.0407606   -0.0151509    0.0427177    0.0048829    0.0180013
 48   C15 s0        0.2558434    0.0863320   -0.2869733   -0.0354519   -0.1244031
 49   C15 p0        0.0000000    0.0000000    0.0000000    0.0000000    0.0000000
 50   C15 p+1       0.1235829    0.4461079    0.2094590   -0.1419157   -0.3017530
 51   C15 p-1      -0.2845972    0.0357756    0.0370832   -0.2135253    0.5402223
 52   C16 s0       -0.0407606    0.0151509    0.0427177   -0.0048829   -0.0180013
 53   C16 s0        0.2558434   -0.0863320   -0.2869733    0.0354519    0.1244031
 54   C16 p0        0.0000000    0.0000000    0.0000000    0.0000000    0.0000000
 55   C16 p+1      -0.1235829    0.4461079   -0.2094590   -0.1419157   -0.3017530
 56   C16 p-1       0.2845972    0.0357756   -0.0370832   -0.2135253    0.5402223
 57   H17 s0        0.1191176   -0.0171436    0.1743201    0.1996502   -0.3895188
 58   H18 s0        0.1191176    0.0171436    0.1743201   -0.1996502    0.3895188
 59   H19 s0       -0.3079391   -0.3974866   -0.0332253    0.0673123    0.3973511
 60   H20 s0       -0.3079391    0.3974866   -0.0332253   -0.0673123   -0.3973511

            Ene     0.5864555    0.6187895    0.6491823    0.6754557    0.7301448
            Sym            Ag           Bu           Ag           Bu           Bu
            Occ             0            0            0            0            0


                           56           57           58           59           60

 1    C1 s0         0.0161637    0.0218843    0.0238106    0.0069332    0.0344893
 2    C1 s0        -0.1006802   -0.1414747   -0.1717658   -0.0463350   -0.2667573
 3    C1 p0         0.0000000    0.0000000    0.0000000    0.0000000    0.0000000
 4    C1 p+1        0.2260765    0.3922157   -0.1842467   -0.0254617   -0.6378424
 5    C1 p-1       -0.1891380    0.1783783   -0.3901351   -0.6691045    0.1805599
 6    C2 s0         0.0161637    0.0218843   -0.0238106    0.0069332   -0.0344893
 7    C2 s0        -0.1006802   -0.1414747    0.1717658   -0.0463350    0.2667573
 8    C2 p0         0.0000000    0.0000000    0.0000000    0.0000000    0.0000000
 9    C2 p+1       -0.2260765   -0.3922157   -0.1842467    0.0254617   -0.6378424
 10   C2 p-1        0.1891380   -0.1783783   -0.3901351    0.6691045    0.1805599
 11   C3 s0         0.0229169   -0.0145425   -0.0445250   -0.0071161   -0.0427031
 12   C3 s0        -0.1666053    0.1059277    0.3295069    0.0517038    0.3176249
 13   C3 p0         0.0000000    0.0000000    0.0000000    0.0000000    0.0000000
 14   C3 p+1       -0.4526705    0.3488349   -0.0853492   -0.4964127    0.2438092
 15   C3 p-1        0.1389131    0.1562109   -0.2431651   -0.2304074   -0.5336078
 16   C4 s0         0.0229169   -0.0145425    0.0445250   -0.0071161    0.0427031
 17   C4 s0        -0.1666053    0.1059277   -0.3295069    0.0517038   -0.3176249
 18   C4 p0         0.0000000    0.0000000    0.0000000    0.0000000    0.0000000
 19   C4 p+1        0.4526705   -0.3488349   -0.0853492    0.4964127    0.2438092
 20   C4 p-1       -0.1389131   -0.1562109   -0.2431651    0.2304074   -0.5336078
 21   C5 s0        -0.0312816    0.0077677   -0.0119097    0.0063473    0.0503599
 22   C5 s0         0.2198530   -0.0605620    0.0928411   -0.0453046   -0.3771575
 23   C5 p0         0.0000000    0.0000000    0.0000000    0.0000000    0.0000000
 24   C5 p+1       -0.3649374    0.4061410    0.2302286   -0.3751257    0.3706862
 25   C5 p-1        0.1863905   -0.0165673    0.0157817    0.4187443    0.4808105
 26   C6 s0        -0.0312816    0.0077677    0.0119097    0.0063473   -0.0503599
 27   C6 s0         0.2198530   -0.0605620   -0.0928411   -0.0453046    0.3771575
 28   C6 p0         0.0000000    0.0000000    0.0000000    0.0000000    0.0000000
 29   C6 p+1        0.3649374   -0.4061410    0.2302286    0.3751257    0.3706862
 30   C6 p-1       -0.1863905    0.0165673    0.0157817   -0.4187443    0.4808105
 31   H7 s0        -0.1589474   -0.0718477    0.0210727    0.0089155    0.2803206
 32   H8 s0        -0.1589474   -0.0718477   -0.0210727    0.0089155   -0.2803206
 33   H9 s0        -0.0345208   -0.1809085   -0.1256393   -0.0524784   -0.2845414
 34   H10 s0       -0.0345208   -0.1809085    0.1256393   -0.0524784    0.2845414
 35   C11 s0       -0.0404759    0.0359285   -0.0611096    0.0303664   -0.0049432
 36   C11 s0        0.2986791   -0.2925880    0.4785764   -0.2507255    0.0164458
 37   C11 p0        0.0000000    0.0000000    0.0000000    0.0000000    0.0000000
 38   C11 p+1      -0.0537427   -0.6469223    0.4311989   -0.3673246   -0.4378056
 39   C11 p-1       0.5433969    0.0190980    0.6152756   -0.4561503   -0.0090415
 40   C12 s0       -0.0404759    0.0359285    0.0611096    0.0303664    0.0049432
 41   C12 s0        0.2986791   -0.2925880   -0.4785764   -0.2507255   -0.0164458
 42   C12 p0        0.0000000    0.0000000    0.0000000    0.0000000    0.0000000
 43   C12 p+1       0.0537427    0.6469223    0.4311989    0.3673246   -0.4378056
 44   C12 p-1      -0.5433969   -0.0190980    0.6152756    0.4561503   -0.0090415
 45   H13 s0        0.2961792    0.2278879    0.1862622   -0.1630529    0.0626888
 46   H14 s0        0.2961792    0.2278879   -0.1862622   -0.1630529   -0.0626888
 47   C15 s0        0.0348036   -0.0406733    0.0706732   -0.0465371   -0.0167984
 48   C15 s0       -0.2562862    0.3045967   -0.5332393    0.3628272    0.1372395
 49   C15 p0        0.0000000    0.0000000    0.0000000    0.0000000    0.0000000
 50   C15 p+1       0.6011543   -0.0718640    0.5711942   -0.3618210   -0.0296509
 51   C15 p-1      -0.1008190   -0.6153092    0.3883267   -0.3093199   -0.3076172
 52   C16 s0        0.0348036   -0.0406733   -0.0706732   -0.0465371    0.0167984
 53   C16 s0       -0.2562862    0.3045967    0.5332393    0.3628272   -0.1372395
 54   C16 p0        0.0000000    0.0000000    0.0000000    0.0000000    0.0000000
 55   C16 p+1      -0.6011543    0.0718640    0.5711942    0.3618210   -0.0296509
 56   C16 p-1       0.1008190    0.6153092    0.3883267    0.3093199   -0.3076172
 57   H17 s0        0.2656213    0.3295424    0.0018689    0.0498822    0.1782974
 58   H18 s0        0.2656213    0.3295424   -0.0018689    0.0498822   -0.1782974
 59   H19 s0       -0.3646586   -0.1946411   -0.1198898    0.0534896   -0.0861764
 60   H20 s0       -0.3646586   -0.1946411    0.1198898    0.0534896    0.0861764

            Ene     0.7401189    0.7915988    0.8256178    0.8894168    0.8964223
            Sym            Ag           Ag           Bu           Ag           Bu
            Occ             0            0            0            0            0



*** tstop() called on gold at Fri Aug 24 18:36:46 2018
Module time:
	user time   =       1.97 seconds =       0.03 minutes
	system time =       0.06 seconds =       0.00 minutes
	total time  =          2 seconds =       0.03 minutes
Total time:
	user time   =       1.97 seconds =       0.03 minutes
	system time =       0.06 seconds =       0.00 minutes
	total time  =          2 seconds =       0.03 minutes


Properties will be evaluated at   0.000000,   0.000000,   0.000000 [a0]
OEProp: No title given, name of density matrix used for the following properties is 'SCF alpha density'

 Multipole Moments:

 ------------------------------------------------------------------------------------
     Multipole             Electric (a.u.)       Nuclear  (a.u.)        Total (a.u.)
 ------------------------------------------------------------------------------------

 L = 1.  Multiply by 2.5417462300 to convert to Debye
 Dipole X            :          0.0000000            0.0000000            0.0000000
 Dipole Y            :          0.0000000           -0.0000000           -0.0000000
 Dipole Z            :          0.0000000            0.0000000            0.0000000

 L = 2.  Multiply by 1.3450341749 to convert to Debye.ang
 Quadrupole XX       :      -1511.6643667         1496.8839996          -14.7803670
 Quadrupole XY       :        -11.1893492           11.4580038            0.2686546
 Quadrupole XZ       :          0.0000000            0.0000000            0.0000000
 Quadrupole YY       :       -277.6362424          244.8754384          -32.7608040
 Quadrupole YZ       :          0.0000000            0.0000000            0.0000000
 Quadrupole ZZ       :        -41.9071484            0.0000000          -41.9071484

 L = 3.  Multiply by 0.7117614302 to convert to Debye.ang^2
 Octupole XXX        :          0.0000000            0.0000000            0.0000000
 Octupole XXY        :          0.0000000           -0.0000000           -0.0000000
 Octupole XXZ        :          0.0000000            0.0000000            0.0000000
 Octupole XYY        :          0.0000000            0.0000000            0.0000000
 Octupole XYZ        :          0.0000000            0.0000000            0.0000000
 Octupole XZZ        :          0.0000000            0.0000000            0.0000000
 Octupole YYY        :          0.0000000            0.0000000            0.0000000
 Octupole YYZ        :          0.0000000            0.0000000            0.0000000
 Octupole YZZ        :          0.0000000            0.0000000            0.0000000
 Octupole ZZZ        :          0.0000000            0.0000000            0.0000000

 L = 4.  Multiply by 0.3766479268 to convert to Debye.ang^3
 Hexadecapole XXXX   :     -72208.2313659        68490.6499305        -3717.5814354
 Hexadecapole XXXY   :      -2496.5008467         2491.6209456           -4.8799011
 Hexadecapole XXXZ   :          0.0000000            0.0000000            0.0000000
 Hexadecapole XXYY   :      -3558.3554052         2641.3398575         -917.0155478
 Hexadecapole XXYZ   :          0.0000000            0.0000000            0.0000000
 Hexadecapole XXZZ   :       -939.5330904            0.0000000         -939.5330904
 Hexadecapole XYYY   :         22.4562460          -48.3518197          -25.8955737
 Hexadecapole XYYZ   :          0.0000000            0.0000000            0.0000000
 Hexadecapole XYZZ   :         -6.4017579            0.0000000           -6.4017579
 Hexadecapole XZZZ   :          0.0000000            0.0000000            0.0000000
 Hexadecapole YYYY   :      -2910.3871375         2103.6746773         -806.7124602
 Hexadecapole YYYZ   :          0.0000000            0.0000000            0.0000000
 Hexadecapole YYZZ   :       -186.7327463            0.0000000         -186.7327463
 Hexadecapole YZZZ   :          0.0000000            0.0000000            0.0000000
 Hexadecapole ZZZZ   :       -120.3162262            0.0000000         -120.3162262

 L = 5.  Multiply by 0.1993134985 to convert to Debye.ang^4
 32-pole XXXXX       :          0.0000000            0.0000000            0.0000000
 32-pole XXXXY       :          0.0000000           -0.0000000           -0.0000000
 32-pole XXXXZ       :          0.0000000            0.0000000            0.0000000
 32-pole XXXYY       :          0.0000000            0.0000000            0.0000000
 32-pole XXXYZ       :          0.0000000            0.0000000            0.0000000
 32-pole XXXZZ       :          0.0000000            0.0000000            0.0000000
 32-pole XXYYY       :          0.0000000           -0.0000000           -0.0000000
 32-pole XXYYZ       :          0.0000000            0.0000000            0.0000000
 32-pole XXYZZ       :          0.0000000            0.0000000            0.0000000
 32-pole XXZZZ       :          0.0000000            0.0000000            0.0000000
 32-pole XYYYY       :          0.0000000           -0.0000000           -0.0000000
 32-pole XYYYZ       :          0.0000000            0.0000000            0.0000000
 32-pole XYYZZ       :          0.0000000            0.0000000            0.0000000
 32-pole XYZZZ       :          0.0000000            0.0000000            0.0000000
 32-pole XZZZZ       :          0.0000000            0.0000000            0.0000000
 32-pole YYYYY       :          0.0000000            0.0000000            0.0000000
 32-pole YYYYZ       :          0.0000000            0.0000000            0.0000000
 32-pole YYYZZ       :          0.0000000            0.0000000            0.0000000
 32-pole YYZZZ       :          0.0000000            0.0000000            0.0000000
 32-pole YZZZZ       :          0.0000000            0.0000000            0.0000000
 32-pole ZZZZZ       :          0.0000000            0.0000000            0.0000000

 --------------------------------------------------------------------------------
  Mulliken Charges: (a.u.)
   Center  Symbol    Alpha    Beta     Spin     Total
       1     C     3.20002  2.70874  0.49128  0.09124
       2     C     3.20002  2.70874  0.49128  0.09124
       3     C     2.97145  3.04675 -0.07529 -0.01820
       4     C     2.97145  3.04675 -0.07529 -0.01820
       5     C     3.00057  3.01426 -0.01368 -0.01483
       6     C     3.00057  3.01426 -0.01368 -0.01483
       7     H     0.44254  0.43820  0.00433  0.11926
       8     H     0.44254  0.43820  0.00433  0.11926
       9     H     0.44075  0.44068  0.00007  0.11857
      10     H     0.44075  0.44068  0.00007  0.11857
      11     C     2.68685  3.34470 -0.65785 -0.03155
      12     C     2.68685  3.34470 -0.65785 -0.03155
      13     H     0.47318  0.42593  0.04724  0.10089
      14     H     0.47318  0.42593  0.04724  0.10089
      15     C     3.44863  2.62211  0.82653 -0.07074
      16     C     3.44863  2.62211  0.82653 -0.07074
      17     H     0.42397  0.48446 -0.06049  0.09157
      18     H     0.42397  0.48446 -0.06049  0.09157
      19     H     0.41204  0.47418 -0.06214  0.11378
      20     H     0.41204  0.47418 -0.06214  0.11378

   Total alpha = 35.00000, Total beta = 34.00000, Total charge =  1.00000

  Lowdin Charges: (a.u.)
   Center  Symbol    Alpha    Beta     Spin     Total
       1     C     3.15961  2.71703  0.44258  0.12336
       2     C     3.15961  2.71703  0.44258  0.12336
       3     C     2.96240  3.02148 -0.05908  0.01612
       4     C     2.96240  3.02148 -0.05908  0.01612
       5     C     2.98693  2.99066 -0.00372  0.02241
       6     C     2.98693  2.99066 -0.00372  0.02241
       7     H     0.46436  0.46114  0.00322  0.07450
       8     H     0.46436  0.46114  0.00322  0.07450
       9     H     0.46288  0.46278  0.00010  0.07434
      10     H     0.46288  0.46278  0.00010  0.07434
      11     C     2.71009  3.28769 -0.57760  0.00221
      12     C     2.71009  3.28769 -0.57760  0.00221
      13     H     0.48737  0.45253  0.03484  0.06010
      14     H     0.48737  0.45253  0.03484  0.06010
      15     C     3.37515  2.62577  0.74939 -0.00092
      16     C     3.37515  2.62577  0.74939 -0.00092
      17     H     0.45018  0.49434 -0.04416  0.05548
      18     H     0.45018  0.49434 -0.04416  0.05548
      19     H     0.44102  0.48658 -0.04556  0.07240
      20     H     0.44102  0.48658 -0.04556  0.07240

  Total alpha = 35.00000, Total beta = 34.00000, Total charge =  1.00000

    Psi4 stopped on: Friday, 24 August 2018 06:36PM
    Psi4 wall time for execution: 0:00:02.10

*** Psi4 exiting successfully. Buy a developer a beer!
