Job dvb_gopt started on puffin at Fri Nov  2 20:32:14 2007
jobid: puffin-0-472b7b39

  +--------------------------------------------------------------------+
  |  Jaguar version 7.0, release 207                                   |
  |                                                                    |
  |  Copyright (c) 2007 Schrodinger,  LLC.                             |
  |  All Rights Reserved.                                              |
  |                                                                    |
  |  Use of this program should be acknowledged in publications as:    |
  |  Jaguar, version 7.0, Schrodinger, LLC, New York, NY, 2007.        |
  +--------------------------------------------------------------------+
   
  start of program pre
  Job name: dvb_gopt
  Executables used: /home/cclib/bin/jaguar-v70207/bin/Linux-x86
  Temporary files : /scratch/cclib/dvb_gopt
  
  Input file comments:
   entry_name: dvb_gopt
  
  Dynamic memory assumed available (MB):     757
  
  basis set:             sto-3g          
  net molecular charge:    0
  multiplicity:            1
  
  number of basis functions....           60
  no dealiasing set available for atom            1
  switch to all-analytic calculation
  
 Input geometry:
                                   angstroms
  atom               x                 y                 z
  C1            0.2694810000     -1.4100870000      0.0000000000 
  C2           -1.0647520000     -0.9207000000      0.0000000000 
  C3           -1.3254340000      0.4570290000      0.0000000000 
  C4           -0.2694810000      1.4100870000      0.0000000000 
  C5            1.0647520000      0.9207000000      0.0000000000 
  H6           -1.9044340000     -1.6275960000      0.0000000000 
  H7           -2.3647720000      0.8131670000      0.0000000000 
  H8            1.9044340000      1.6275960000      0.0000000000 
  C9           -0.6037320000      2.8699170000      0.0000000000 
  C10           0.2694810000      3.8919520000      0.0000000000 
  H11           1.3551660000      3.7420140000      0.0000000000 
  H12          -1.6819040000      3.0900050000      0.0000000000 
  H13          -0.0740290000      4.9329690000      0.0000000000 
  C14           0.6037320000     -2.8699170000      0.0000000000 
  H15           1.6819040000     -3.0900050000      0.0000000000 
  C16          -0.2694810000     -3.8919520000      0.0000000000 
  H17          -1.3551660000     -3.7420140000      0.0000000000 
  H18           0.0740290000     -4.9329690000      0.0000000000 
  C19           1.3254340000     -0.4570290000      0.0000000000 
  H20           2.3647720000     -0.8131670000      0.0000000000 
   
  principal moments of inertia:
        amu*angstrom^2:      109.23594      737.84464      847.08058
                g*cm^2: 1.81390525E-38 1.22521969E-37 1.40661022E-37
   
  rotational constants:
               cm^(-1):     0.15432310     0.02284713     0.01990086
                   GHz:     4.62649016     0.68493959     0.59661267
   
  Molecular weight:     130.08 amu
   
  Stoichiometry: C10H10
  Molecular Point Group: C2h     
	Molecule translated to center of mass 
	Molecule reoriented along symmetry axes
  Point Group used: C2h
  
 
Number of optimization coordinates:    60
Number of independent coordinates:     60
Number of non-redundant coordinates:   54
Number of constrained coordinates:      0
 
Number of geometric degrees of freedom:    54
Maximum geometric degrees of freedom:      54
 " " " " " excluding dummy atoms:          54
 
  
 Symmetrized geometry:
                                   angstroms
  atom               x                 y                 z
  C1            0.2694810000     -1.4100870000      0.0000000000 
  C2           -1.0647520000     -0.9207000000      0.0000000000 
  C3           -1.3254340000      0.4570290000      0.0000000000 
  C4           -0.2694810000      1.4100870000      0.0000000000 
  C5            1.0647520000      0.9207000000      0.0000000000 
  H6           -1.9044340000     -1.6275960000      0.0000000000 
  H7           -2.3647720000      0.8131670000      0.0000000000 
  H8            1.9044340000      1.6275960000      0.0000000000 
  C9           -0.6037320000      2.8699170000      0.0000000000 
  C10           0.2694810000      3.8919520000      0.0000000000 
  H11           1.3551660000      3.7420140000      0.0000000000 
  H12          -1.6819040000      3.0900050000      0.0000000000 
  H13          -0.0740290000      4.9329690000      0.0000000000 
  C14           0.6037320000     -2.8699170000      0.0000000000 
  H15           1.6819040000     -3.0900050000      0.0000000000 
  C16          -0.2694810000     -3.8919520000      0.0000000000 
  H17          -1.3551660000     -3.7420140000      0.0000000000 
  H18           0.0740290000     -4.9329690000      0.0000000000 
  C19           1.3254340000     -0.4570290000      0.0000000000 
  H20           2.3647720000     -0.8131670000      0.0000000000 
   
 
  bond lengths (angstroms):
 
 C1      -C2      :   1.421154      C1      -C14     :   1.497607
 C1      -C19     :   1.422447      C2      -C3      :   1.402174
 C2      -H6      :   1.097619      C3      -C4      :   1.422447
 C3      -H7      :   1.098662      C4      -C5      :   1.421154
 C4      -C9      :   1.497607      C5      -H8      :   1.097619
 C5      -C19     :   1.402174      C9      -C10     :   1.344268
 C9      -H12     :   1.100406      C10     -H11     :   1.095990
 C10     -H13     :   1.096228      C14     -H15     :   1.100406
 C14     -C16     :   1.344268      C16     -H17     :   1.095990
 C16     -H18     :   1.096228      C19     -H20     :   1.098662
 
  bond angles:
 
 C14     -C1      -C2      : 123.039140  C19     -C1      -C2      : 117.789270
 C19     -C1      -C14     : 119.171590  C3      -C2      -C1      : 120.857022
 H6      -C2      -C1      : 119.764592  H6      -C2      -C3      : 119.378387
 C4      -C3      -C2      : 121.353708  H7      -C3      -C2      : 119.628810
 H7      -C3      -C4      : 119.017482  C5      -C4      -C3      : 117.789270
 C9      -C4      -C3      : 119.171590  C9      -C4      -C5      : 123.039140
 H8      -C5      -C4      : 119.764592  C19     -C5      -C4      : 120.857022
 C19     -C5      -H8      : 119.378387  C10     -C9      -C4      : 126.593399
 H12     -C9      -C4      : 114.433788  H12     -C9      -C10     : 118.972814
 H11     -C10     -C9      : 122.647066  H13     -C10     -C9      : 121.228248
 H13     -C10     -H11     : 116.124686  H15     -C14     -C1      : 114.433788
 C16     -C14     -C1      : 126.593399  C16     -C14     -H15     : 118.972814
 H17     -C16     -C14     : 122.647066  H18     -C16     -C14     : 121.228248
 H18     -C16     -H17     : 116.124686  C5      -C19     -C1      : 121.353708
 H20     -C19     -C1      : 119.017482  H20     -C19     -C5      : 119.628810
 
  torsional angles:
 
 C1      -C2      -C3      -C4      :   0.000000
 C1      -C2      -C3      -H7      : 180.000000
 C1      -C14     -C16     -H17     :   0.000000
 C1      -C14     -C16     -H18     : 180.000000
 C1      -C19     -C5      -C4      :   0.000000
 C1      -C19     -C5      -H8      : 180.000000
 C2      -C1      -C14     -H15     : 180.000000
 C2      -C1      -C14     -C16     :   0.000000
 C2      -C1      -C19     -C5      :   0.000000
 C2      -C1      -C19     -H20     : 180.000000
 C2      -C3      -C4      -C5      :   0.000000
 C2      -C3      -C4      -C9      : 180.000000
 C3      -C2      -C1      -C14     : 180.000000
 C3      -C2      -C1      -C19     :   0.000000
 C3      -C4      -C5      -H8      : 180.000000
 C3      -C4      -C5      -C19     :   0.000000
 C3      -C4      -C9      -C10     : 180.000000
 C3      -C4      -C9      -H12     :   0.000000
 C4      -C3      -C2      -H6      : 180.000000
 C4      -C5      -C19     -H20     : 180.000000
 C4      -C9      -C10     -H11     :   0.000000
 C4      -C9      -C10     -H13     : 180.000000
 C5      -C4      -C3      -H7      : 180.000000
 C5      -C4      -C9      -C10     :   0.000000
 C5      -C4      -C9      -H12     : 180.000000
 C5      -C19     -C1      -C14     : 180.000000
 H6      -C2      -C1      -C14     :   0.000000
 H6      -C2      -C1      -C19     : 180.000000
 H6      -C2      -C3      -H7      :   0.000000
 H7      -C3      -C4      -C9      :   0.000000
 H8      -C5      -C4      -C9      :   0.000000
 H8      -C5      -C19     -H20     :   0.000000
 C9      -C4      -C5      -C19     : 180.000000
 H11     -C10     -C9      -H12     : 180.000000
 H12     -C9      -C10     -H13     :   0.000000
 C14     -C1      -C19     -H20     :   0.000000
 H15     -C14     -C1      -C19     :   0.000000
 H15     -C14     -C16     -H17     : 180.000000
 H15     -C14     -C16     -H18     :   0.000000
 C16     -C14     -C1      -C19     : 180.000000
 
  nuclear repulsion energy.......     445.899315474 hartrees
 
 Non-default options chosen:
   SCF calculation type: DFT             
   DFT=Becke_3_Parameter/HF+Slater+Becke88+VWN+LYP (B3LYP)
   Geometry will be optimized in redundant internal coordinates
  
 Non-default print settings:
     11=  2
  
  end of program pre
   
   
  start of program onee
  smallest eigenvalue of S:    1.814E-01
  number of canonical orbitals.....           60
  end of program onee
   
   
  start of program hfig
  initial wavefunction generated automatically from atomic wavefunctions
 
  Irreducible     Total no   No of occupied orbitals 
  representation  orbitals   Shell_1  Shell_2    ...
  Ag                25         15
  Bg                 5          3
  Au                 5          2
  Bu                25         15
  ------------------------
  Orbital occupation/shell    1.000
 
  end of program hfig
   
   
  start of program probe
  end of program probe
   
   
  start of program grid
   
  number of gridpoints: 
     atom         C1        C2        C3        C4        C5        H6        H7        H8
  grid # 1         0         0         0      2430      2430         0         0      2430
  grid # 2         0         0         0       756       756         0         0       756
  grid # 3         0         0         0      3001      3001         0         0      3001
   
  number of gridpoints: 
     atom         C9       C10       H11       H12       H13       C14       H15       C16
  grid # 1      2430      2430      2430         0      2430         0      2430         0
  grid # 2       756       756       756         0       756         0       756         0
  grid # 3      3001      3001      3001         0      3001         0      3001         0
   
  number of gridpoints: 
     atom        H17       H18       C19       H20     total
  grid # 1         0         0      2430      2430     24300
  grid # 2         0         0       756       756      7560
  grid # 3         0         0      3001      3001     30010
   
  end of program grid
   
   
  start of program scf
 number of electrons..........         70
 number of alpha electrons....         35
 number of beta electrons.....         35
 number of orbitals, total....         60
 number of doubly-occ'd orbs..         35
 number of open shell orbs....          0
 number of occupied orbitals..         35
 number of virtual orbitals...         25
 number of hamiltonians.......          1
 number of shells.............          1
 SCF type: DFT=Becke_3_Parameter/HF+Slater+Becke88+VWN+LYP (B3LYP)
  
       i  u  d  i  g                   
       t  p  i  c  r                                 RMS    maximum
       e  d  i  u  i                       energy  density   DIIS  
       r  t  s  t  d       total energy    change  change    error 
  
etot   1  N  N  0  N    -382.08751877606           2.3E-03  1.4E-01
etot   2  Y  Y  0  N    -382.27486017815  1.9E-01  1.4E-03  5.7E-02
etot   3  N  Y  0  N    -382.30454770453  3.0E-02  4.8E-04  1.1E-02
etot   4  Y  Y  0  N    -382.30788053861  3.3E-03  1.3E-04  5.1E-03
etot   5  Y  Y  0  N    -382.30829549183  4.1E-04  1.2E-05  2.3E-04
etot   6  N  Y  0  N    -382.30825830022 -3.7E-05  3.6E-06  1.6E-04
etot   7  N  N  0  N    -382.30825872880  4.3E-07  0.0E+00  0.0E+00
  
  
 Energy components, in hartrees:
   (A)  Nuclear repulsion............     445.89931547414
   (E)  Total one-electron terms.....   -1400.56637472144
   (I)  Total two-electron terms.....     572.35880051850
   (J)    Coulomb....................     630.20244572772
   (K)    Exchange+Correlation.......     -57.84364520921
   (L)  Electronic energy............    -828.20757420294  (E+I)
   (N)  Total energy.................    -382.30825872880  (A+L)
  
 SCFE: SCF energy: DFT      -382.30825872880 hartrees   iterations:   7
  
 
 HOMO energy:    -0.15309
 LUMO energy:     0.03741
 
  Orbital energies/symmetry label: 
  -10.02029 Bu       -10.02024 Ag       -10.00820 Bu       -10.00820 Ag     
  -10.00680 Bu       -10.00679 Ag       -10.00610 Bu       -10.00596 Ag     
   -9.99218 Bu        -9.99218 Ag        -0.80955 Ag        -0.75400 Bu     
   -0.71796 Ag        -0.69981 Bu        -0.66751 Bu        -0.58871 Ag     
   -0.55895 Ag        -0.53167 Bu        -0.51019 Ag        -0.45746 Ag     
   -0.43937 Bu        -0.41062 Bu        -0.39796 Bu        -0.39605 Ag     
   -0.37399 Bu        -0.35116 Bu        -0.34729 Ag        -0.32455 Au     
   -0.31126 Bu        -0.29281 Ag        -0.28749 Ag        -0.26357 Bg     
   -0.21244 Au        -0.19508 Bg        -0.15309 Bg         0.03741 Au     
    0.09033 Au         0.11062 Bg         0.18218 Au         0.27249 Bg     
    0.33221 Ag         0.34072 Bu         0.37934 Bu         0.38145 Ag     
    0.41098 Ag     
 
  end of program scf
   
   
  start of program cutabab2
  end of program cutabab2
   
   
  start of program der1a
  end of program der1a
   
   
  start of program der1b
   
  forces (hartrees/bohr) : total     
   
 atom  label           x              y              z
 ---- --------   -------------  -------------  -------------
    1 C1          1.217212E-04  -1.274899E-04   0.000000E+00
    2 C2         -2.858263E-04  -2.368199E-04   0.000000E+00
    3 C3         -1.867009E-04   5.443013E-05   0.000000E+00
    4 C4         -1.217212E-04   1.274899E-04   0.000000E+00
    5 C5          2.858263E-04   2.368199E-04   0.000000E+00
    6 H6         -4.129028E-05  -2.050641E-05   0.000000E+00
    7 H7         -3.362341E-05  -2.998549E-05   0.000000E+00
    8 H8          4.129028E-05   2.050641E-05   0.000000E+00
    9 C9         -1.162566E-04   6.782779E-05   0.000000E+00
   10 C10         6.911627E-05   1.037681E-04   0.000000E+00
   11 H11         3.534055E-05   2.594381E-05   0.000000E+00
   12 H12        -3.347157E-05   8.619496E-05   0.000000E+00
   13 H13        -1.738116E-05   6.806249E-05   0.000000E+00
   14 C14         1.162566E-04  -6.782779E-05   0.000000E+00
   15 H15         3.347157E-05  -8.619496E-05   0.000000E+00
   16 C16        -6.911627E-05  -1.037681E-04   0.000000E+00
   17 H17        -3.534055E-05  -2.594381E-05   0.000000E+00
   18 H18         1.738116E-05  -6.806249E-05   0.000000E+00
   19 C19         1.867009E-04  -5.443013E-05   0.000000E+00
   20 H20         3.362341E-05   2.998549E-05   0.000000E+00
 -------------   -------------  -------------  -------------
     total        0.000000E+00   0.000000E+00   0.000000E+00
   
  end of program der1b
   
   
  start of program geopt   1
  
  geometry optimization step  1
  energy:            -382.30825872880 hartrees
  
  gradient maximum:        3.9849E-04 *  (  4.5000E-04 )
  gradient rms:            1.5818E-04 *  (  3.0000E-04 )
  step size:   0.00275  trust radius:   0.30000
  displacement maximum:    1.0019E-03 *  (  1.8000E-03 )
  displacement rms:        3.5519E-04 *  (  1.2000E-03 )
  predicted energy change:    -1.6408E-06    geom step:   2.7513E-03    full step:   2.7513E-03
  
  ********************************************************
  **           Geometry optimization complete           **
  ********************************************************
  
  center of mass moved by:
     x:     0.0000E+00     y:     0.0000E+00     z:     0.0000E+00
  
  final geometry: 
                                   angstroms
  atom               x                 y                 z
  C1            0.2694810000     -1.4100870000      0.0000000000 
  C2           -1.0647520000     -0.9207000000      0.0000000000 
  C3           -1.3254340000      0.4570290000      0.0000000000 
  C4           -0.2694810000      1.4100870000      0.0000000000 
  C5            1.0647520000      0.9207000000      0.0000000000 
  H6           -1.9044340000     -1.6275960000      0.0000000000 
  H7           -2.3647720000      0.8131670000      0.0000000000 
  H8            1.9044340000      1.6275960000      0.0000000000 
  C9           -0.6037320000      2.8699170000      0.0000000000 
  C10           0.2694810000      3.8919520000      0.0000000000 
  H11           1.3551660000      3.7420140000      0.0000000000 
  H12          -1.6819040000      3.0900050000      0.0000000000 
  H13          -0.0740290000      4.9329690000      0.0000000000 
  C14           0.6037320000     -2.8699170000      0.0000000000 
  H15           1.6819040000     -3.0900050000      0.0000000000 
  C16          -0.2694810000     -3.8919520000      0.0000000000 
  H17          -1.3551660000     -3.7420140000      0.0000000000 
  H18           0.0740290000     -4.9329690000      0.0000000000 
  C19           1.3254340000     -0.4570290000      0.0000000000 
  H20           2.3647720000     -0.8131670000      0.0000000000 
   
  principal moments of inertia:
        amu*angstrom^2:      109.23594      737.84464      847.08058
                g*cm^2: 1.81390525E-38 1.22521969E-37 1.40661022E-37
   
  rotational constants:
               cm^(-1):     0.15432310     0.02284713     0.01990086
                   GHz:     4.62649016     0.68493959     0.59661267
   
 
  bond lengths (angstroms):
 
 C1      -C2      :   1.421154      C1      -C14     :   1.497607
 C1      -C19     :   1.422447      C2      -C3      :   1.402174
 C2      -H6      :   1.097619      C3      -C4      :   1.422447
 C3      -H7      :   1.098662      C4      -C5      :   1.421154
 C4      -C9      :   1.497607      C5      -H8      :   1.097619
 C5      -C19     :   1.402174      C9      -C10     :   1.344268
 C9      -H12     :   1.100406      C10     -H11     :   1.095990
 C10     -H13     :   1.096228      C14     -H15     :   1.100406
 C14     -C16     :   1.344268      C16     -H17     :   1.095990
 C16     -H18     :   1.096228      C19     -H20     :   1.098662
 
  bond angles:
 
 C14     -C1      -C2      : 123.039140  C19     -C1      -C2      : 117.789270
 C19     -C1      -C14     : 119.171590  C3      -C2      -C1      : 120.857022
 H6      -C2      -C1      : 119.764592  H6      -C2      -C3      : 119.378387
 C4      -C3      -C2      : 121.353708  H7      -C3      -C2      : 119.628810
 H7      -C3      -C4      : 119.017482  C5      -C4      -C3      : 117.789270
 C9      -C4      -C3      : 119.171590  C9      -C4      -C5      : 123.039140
 H8      -C5      -C4      : 119.764592  C19     -C5      -C4      : 120.857022
 C19     -C5      -H8      : 119.378387  C10     -C9      -C4      : 126.593399
 H12     -C9      -C4      : 114.433788  H12     -C9      -C10     : 118.972814
 H11     -C10     -C9      : 122.647066  H13     -C10     -C9      : 121.228248
 H13     -C10     -H11     : 116.124686  H15     -C14     -C1      : 114.433788
 C16     -C14     -C1      : 126.593399  C16     -C14     -H15     : 118.972814
 H17     -C16     -C14     : 122.647066  H18     -C16     -C14     : 121.228248
 H18     -C16     -H17     : 116.124686  C5      -C19     -C1      : 121.353708
 H20     -C19     -C1      : 119.017482  H20     -C19     -C5      : 119.628810
 
  torsional angles:
 
 C1      -C2      -C3      -C4      :   0.000000
 C1      -C2      -C3      -H7      : 180.000000
 C1      -C14     -C16     -H17     :   0.000000
 C1      -C14     -C16     -H18     : 180.000000
 C1      -C19     -C5      -C4      :   0.000000
 C1      -C19     -C5      -H8      : 180.000000
 C2      -C1      -C14     -H15     : 180.000000
 C2      -C1      -C14     -C16     :   0.000000
 C2      -C1      -C19     -C5      :   0.000000
 C2      -C1      -C19     -H20     : 180.000000
 C2      -C3      -C4      -C5      :   0.000000
 C2      -C3      -C4      -C9      : 180.000000
 C3      -C2      -C1      -C14     : 180.000000
 C3      -C2      -C1      -C19     :   0.000000
 C3      -C4      -C5      -H8      : 180.000000
 C3      -C4      -C5      -C19     :   0.000000
 C3      -C4      -C9      -C10     : 180.000000
 C3      -C4      -C9      -H12     :   0.000000
 C4      -C3      -C2      -H6      : 180.000000
 C4      -C5      -C19     -H20     : 180.000000
 C4      -C9      -C10     -H11     :   0.000000
 C4      -C9      -C10     -H13     : 180.000000
 C5      -C4      -C3      -H7      : 180.000000
 C5      -C4      -C9      -C10     :   0.000000
 C5      -C4      -C9      -H12     : 180.000000
 C5      -C19     -C1      -C14     : 180.000000
 H6      -C2      -C1      -C14     :   0.000000
 H6      -C2      -C1      -C19     : 180.000000
 H6      -C2      -C3      -H7      :   0.000000
 H7      -C3      -C4      -C9      :   0.000000
 H8      -C5      -C4      -C9      :   0.000000
 H8      -C5      -C19     -H20     :   0.000000
 C9      -C4      -C5      -C19     : 180.000000
 H11     -C10     -C9      -H12     : 180.000000
 H12     -C9      -C10     -H13     :   0.000000
 C14     -C1      -C19     -H20     :   0.000000
 H15     -C14     -C1      -C19     :   0.000000
 H15     -C14     -C16     -H17     : 180.000000
 H15     -C14     -C16     -H18     :   0.000000
 C16     -C14     -C1      -C19     : 180.000000
 
  nuclear repulsion energy.......     445.899315474 hartrees
  -------------------------------------------------
 /  end of geometry optimization iteration   1   /
 -------------------------------------------------
   
  end of program geopt
   
 Total cpu seconds     user:      29.650   user+sys:      30.970
  
 Total elapsed time:    115 seconds

Job dvb_gopt completed on puffin at Fri Nov  2 20:34:09 2007
