Job dvb_sp started on puffin at Fri Nov  2 20:32:51 2007
jobid: puffin-0-472b7b5e

  +--------------------------------------------------------------------+
  |  Jaguar version 7.0, release 207                                   |
  |                                                                    |
  |  Copyright (c) 2007 Schrodinger,  LLC.                             |
  |  All Rights Reserved.                                              |
  |                                                                    |
  |  Use of this program should be acknowledged in publications as:    |
  |  Jaguar, version 7.0, Schrodinger, LLC, New York, NY, 2007.        |
  +--------------------------------------------------------------------+
   
  start of program pre
  Job name: dvb_sp
  Executables used: /home/cclib/bin/jaguar-v70207/bin/Linux-x86
  Temporary files : /scratch/cclib/dvb_sp
  
  Input file comments:
   entry_name: dvb_sp
  
  Dynamic memory assumed available (MB):     757
  
  basis set:             sto-3g          
  net molecular charge:    0
  multiplicity:            1
  
  number of basis functions....           60
  no dealiasing set available for atom            1
  switch to all-analytic calculation
  
 Input geometry:
                                   angstroms
  atom               x                 y                 z
  C1            0.2694810000     -1.4100870000      0.0000000000 
  C2           -1.0647520000     -0.9207000000      0.0000000000 
  C3           -1.3254340000      0.4570290000      0.0000000000 
  C4           -0.2694810000      1.4100870000      0.0000000000 
  C5            1.0647520000      0.9207000000      0.0000000000 
  H6           -1.9044340000     -1.6275960000      0.0000000000 
  H7           -2.3647720000      0.8131670000      0.0000000000 
  H8            1.9044340000      1.6275960000      0.0000000000 
  C9           -0.6037320000      2.8699170000      0.0000000000 
  C10           0.2694810000      3.8919520000      0.0000000000 
  H11           1.3551660000      3.7420140000      0.0000000000 
  H12          -1.6819040000      3.0900050000      0.0000000000 
  H13          -0.0740290000      4.9329690000      0.0000000000 
  C14           0.6037320000     -2.8699170000      0.0000000000 
  H15           1.6819040000     -3.0900050000      0.0000000000 
  C16          -0.2694810000     -3.8919520000      0.0000000000 
  H17          -1.3551660000     -3.7420140000      0.0000000000 
  H18           0.0740290000     -4.9329690000      0.0000000000 
  C19           1.3254340000     -0.4570290000      0.0000000000 
  H20           2.3647720000     -0.8131670000      0.0000000000 
   
  principal moments of inertia:
        amu*angstrom^2:      109.23594      737.84464      847.08058
                g*cm^2: 1.81390525E-38 1.22521969E-37 1.40661022E-37
   
  rotational constants:
               cm^(-1):     0.15432310     0.02284713     0.01990086
                   GHz:     4.62649016     0.68493959     0.59661267
   
  Molecular weight:     130.08 amu
   
  Stoichiometry: C10H10
  Molecular Point Group: C2h     
	Molecule translated to center of mass 
	Molecule reoriented along symmetry axes
  Point Group used: C2h
  
  
 Symmetrized geometry:
                                   angstroms
  atom               x                 y                 z
  C1            0.2694810000     -1.4100870000      0.0000000000 
  C2           -1.0647520000     -0.9207000000      0.0000000000 
  C3           -1.3254340000      0.4570290000      0.0000000000 
  C4           -0.2694810000      1.4100870000      0.0000000000 
  C5            1.0647520000      0.9207000000      0.0000000000 
  H6           -1.9044340000     -1.6275960000      0.0000000000 
  H7           -2.3647720000      0.8131670000      0.0000000000 
  H8            1.9044340000      1.6275960000      0.0000000000 
  C9           -0.6037320000      2.8699170000      0.0000000000 
  C10           0.2694810000      3.8919520000      0.0000000000 
  H11           1.3551660000      3.7420140000      0.0000000000 
  H12          -1.6819040000      3.0900050000      0.0000000000 
  H13          -0.0740290000      4.9329690000      0.0000000000 
  C14           0.6037320000     -2.8699170000      0.0000000000 
  H15           1.6819040000     -3.0900050000      0.0000000000 
  C16          -0.2694810000     -3.8919520000      0.0000000000 
  H17          -1.3551660000     -3.7420140000      0.0000000000 
  H18           0.0740290000     -4.9329690000      0.0000000000 
  C19           1.3254340000     -0.4570290000      0.0000000000 
  H20           2.3647720000     -0.8131670000      0.0000000000 
   
 
  bond lengths (angstroms):
 
 C1      -C2      :   1.421154      C1      -C14     :   1.497607
 C1      -C19     :   1.422447      C2      -C3      :   1.402174
 C2      -H6      :   1.097619      C3      -C4      :   1.422447
 C3      -H7      :   1.098662      C4      -C5      :   1.421154
 C4      -C9      :   1.497607      C5      -H8      :   1.097619
 C5      -C19     :   1.402174      C9      -C10     :   1.344268
 C9      -H12     :   1.100406      C10     -H11     :   1.095990
 C10     -H13     :   1.096228      C14     -H15     :   1.100406
 C14     -C16     :   1.344268      C16     -H17     :   1.095990
 C16     -H18     :   1.096228      C19     -H20     :   1.098662
 
  bond angles:
 
 C14     -C1      -C2      : 123.039140  C19     -C1      -C2      : 117.789270
 C19     -C1      -C14     : 119.171590  C3      -C2      -C1      : 120.857022
 H6      -C2      -C1      : 119.764592  H6      -C2      -C3      : 119.378387
 C4      -C3      -C2      : 121.353708  H7      -C3      -C2      : 119.628810
 H7      -C3      -C4      : 119.017482  C5      -C4      -C3      : 117.789270
 C9      -C4      -C3      : 119.171590  C9      -C4      -C5      : 123.039140
 H8      -C5      -C4      : 119.764592  C19     -C5      -C4      : 120.857022
 C19     -C5      -H8      : 119.378387  C10     -C9      -C4      : 126.593399
 H12     -C9      -C4      : 114.433788  H12     -C9      -C10     : 118.972814
 H11     -C10     -C9      : 122.647066  H13     -C10     -C9      : 121.228248
 H13     -C10     -H11     : 116.124686  H15     -C14     -C1      : 114.433788
 C16     -C14     -C1      : 126.593399  C16     -C14     -H15     : 118.972814
 H17     -C16     -C14     : 122.647066  H18     -C16     -C14     : 121.228248
 H18     -C16     -H17     : 116.124686  C5      -C19     -C1      : 121.353708
 H20     -C19     -C1      : 119.017482  H20     -C19     -C5      : 119.628810
 
  torsional angles:
 
 C1      -C2      -C3      -C4      :   0.000000
 C1      -C2      -C3      -H7      : 180.000000
 C1      -C14     -C16     -H17     :   0.000000
 C1      -C14     -C16     -H18     : 180.000000
 C1      -C19     -C5      -C4      :   0.000000
 C1      -C19     -C5      -H8      : 180.000000
 C2      -C1      -C14     -H15     : 180.000000
 C2      -C1      -C14     -C16     :   0.000000
 C2      -C1      -C19     -C5      :   0.000000
 C2      -C1      -C19     -H20     : 180.000000
 C2      -C3      -C4      -C5      :   0.000000
 C2      -C3      -C4      -C9      : 180.000000
 C3      -C2      -C1      -C14     : 180.000000
 C3      -C2      -C1      -C19     :   0.000000
 C3      -C4      -C5      -H8      : 180.000000
 C3      -C4      -C5      -C19     :   0.000000
 C3      -C4      -C9      -C10     : 180.000000
 C3      -C4      -C9      -H12     :   0.000000
 C4      -C3      -C2      -H6      : 180.000000
 C4      -C5      -C19     -H20     : 180.000000
 C4      -C9      -C10     -H11     :   0.000000
 C4      -C9      -C10     -H13     : 180.000000
 C5      -C4      -C3      -H7      : 180.000000
 C5      -C4      -C9      -C10     :   0.000000
 C5      -C4      -C9      -H12     : 180.000000
 C5      -C19     -C1      -C14     : 180.000000
 H6      -C2      -C1      -C14     :   0.000000
 H6      -C2      -C1      -C19     : 180.000000
 H6      -C2      -C3      -H7      :   0.000000
 H7      -C3      -C4      -C9      :   0.000000
 H8      -C5      -C4      -C9      :   0.000000
 H8      -C5      -C19     -H20     :   0.000000
 C9      -C4      -C5      -C19     : 180.000000
 H11     -C10     -C9      -H12     : 180.000000
 H12     -C9      -C10     -H13     :   0.000000
 C14     -C1      -C19     -H20     :   0.000000
 H15     -C14     -C1      -C19     :   0.000000
 H15     -C14     -C16     -H17     : 180.000000
 H15     -C14     -C16     -H18     :   0.000000
 C16     -C14     -C1      -C19     : 180.000000
 
  nuclear repulsion energy.......     445.899315474 hartrees
 
 Non-default options chosen:
   HF Initial guess: read from Jaguar .in file
   SCF calculation type: DFT             
   DFT=Becke_3_Parameter/HF+Slater+Becke88+VWN+LYP (B3LYP)
   Forces will be computed, but geometry will not be optimized
  
 Non-default print settings:
     11=  2  18=  2  19=  2
  
  end of program pre
   
   
  start of program onee
   
  olap      
   
             1              2              3              4              5
   1    1.000000E+00
   2    2.483624E-01   1.000000E+00
   3    0.000000E+00   0.000000E+00   1.000000E+00
   4    0.000000E+00   0.000000E+00   0.000000E+00   1.000000E+00
   5    0.000000E+00   0.000000E+00   0.000000E+00   0.000000E+00   1.000000E+00
   6    5.850661E-07   3.564737E-02  -5.552119E-02   2.036477E-02   0.000000E+00
   7    3.564737E-02   3.541460E-01  -3.569455E-01   1.309250E-01   0.000000E+00
   8    5.552119E-02   3.569455E-01  -2.638456E-01   1.719623E-01   0.000000E+00
   9   -2.036477E-02  -1.309250E-01   1.719623E-01   1.419067E-01   0.000000E+00
  10    0.000000E+00   0.000000E+00   0.000000E+00   0.000000E+00   2.049812E-01
  11    0.000000E+00   1.593342E-03  -2.420508E-03   2.833612E-03   0.000000E+00
  12    1.593342E-03   5.633001E-02  -5.435220E-02   6.362839E-02   0.000000E+00
  13    2.420508E-03   5.435220E-02  -3.436420E-02   6.759050E-02   0.000000E+00
  14   -2.833612E-03  -6.362839E-02   6.759050E-02  -5.575354E-02   0.000000E+00
  15    0.000000E+00   0.000000E+00   0.000000E+00   0.000000E+00   2.337249E-02
  16    0.000000E+00   2.981925E-04  -1.528063E-04   7.995749E-04   0.000000E+00
  17    2.981925E-04   2.168354E-02  -6.655880E-03   3.482758E-02   0.000000E+00
  18    1.528063E-04   6.655880E-03   6.047805E-03   1.147923E-02   0.000000E+00
  19   -7.995749E-04  -3.482758E-02   1.147923E-02  -5.182467E-02   0.000000E+00
  20    0.000000E+00   0.000000E+00   0.000000E+00   0.000000E+00   8.241596E-03
  21    0.000000E+00   1.551479E-03   1.175152E-03   3.444146E-03   0.000000E+00
  22    1.551479E-03   5.546963E-02   2.665711E-02   7.812689E-02   0.000000E+00
  23   -1.175152E-03  -2.665711E-02   8.880931E-03  -4.131350E-02   0.000000E+00
  24   -3.444146E-03  -7.812689E-02  -4.131350E-02  -9.810475E-02   0.000000E+00
  25    0.000000E+00   0.000000E+00   0.000000E+00   0.000000E+00   2.297721E-02
  26    5.035218E-03   9.225423E-02  -1.192363E-01  -1.193007E-02   0.000000E+00
  27    8.028321E-05   5.921403E-03  -7.546609E-03   6.369179E-03   0.000000E+00
  28    7.942714E-05   5.881771E-03   4.651000E-03   8.641388E-03   0.000000E+00
  29    0.000000E+00   8.313481E-08  -6.879905E-08   3.372146E-07   0.000000E+00
  30    8.313481E-08   2.567474E-04  -1.137960E-04   5.577644E-04   0.000000E+00
  31    6.879905E-08   1.137960E-04   3.147355E-05   2.502921E-04   0.000000E+00
  32   -3.372146E-07  -5.577644E-04   2.502921E-04  -1.144254E-03   0.000000E+00
  33    0.000000E+00   0.000000E+00   0.000000E+00   0.000000E+00   8.253852E-05
  34    0.000000E+00   7.706906E-11   0.000000E+00   3.834979E-10   0.000000E+00
  35    7.706906E-11   7.014084E-06   1.483186E-26   1.860321E-05   0.000000E+00
  36    0.000000E+00   1.483186E-26   2.207565E-06   7.845066E-26   0.000000E+00
  37   -3.834979E-10  -1.860321E-05  -7.845066E-26  -4.723633E-05   0.000000E+00
  38    0.000000E+00   0.000000E+00   0.000000E+00   0.000000E+00   2.207565E-06
  39    8.127317E-09   2.318631E-05   1.095791E-05   5.200057E-05   0.000000E+00
  40    6.810952E-08   8.196957E-05  -7.017370E-05   1.618277E-04   0.000000E+00
  41    0.000000E+00   3.035058E-07  -4.497398E-08   8.304634E-07   0.000000E+00
  42    1.431406E-07   2.956744E-02   1.100708E-02  -4.807306E-02   0.000000E+00
  43    2.956744E-02   3.177155E-01   7.857987E-02  -3.431949E-01   0.000000E+00
  44   -1.100708E-02  -7.857987E-02   1.531822E-01   1.083255E-01   0.000000E+00
  45    4.807306E-02   3.431949E-01   1.083255E-01  -2.951227E-01   0.000000E+00
  46    0.000000E+00   0.000000E+00   0.000000E+00   0.000000E+00   1.779850E-01
  47    4.907233E-03   9.056741E-02   7.588399E-02  -9.025545E-02   0.000000E+00
  48    0.000000E+00   1.158987E-03  -5.946066E-04  -2.738103E-03   0.000000E+00
  49    1.158987E-03   4.688719E-02  -1.508714E-02  -6.947474E-02   0.000000E+00
  50    5.946066E-04   1.508714E-02   1.377018E-02  -2.446910E-02   0.000000E+00
  51    2.738103E-03   6.947474E-02  -2.446910E-02  -9.359381E-02   0.000000E+00
  52    0.000000E+00   0.000000E+00   0.000000E+00   0.000000E+00   1.908389E-02
  53    7.335935E-04   2.452339E-02  -2.096610E-02  -3.009356E-02   0.000000E+00
  54    5.774986E-05   4.819989E-03  -4.515490E-04  -8.138847E-03   0.000000E+00
  55    5.716446E-07   3.553610E-02   4.376625E-02   3.950155E-02   0.000000E+00
  56    3.553610E-02   3.535097E-01   2.818901E-01   2.544220E-01   0.000000E+00
  57   -4.376625E-02  -2.818901E-01  -8.831585E-02  -2.642808E-01   0.000000E+00
  58   -3.950155E-02  -2.544220E-01  -2.642808E-01  -3.403105E-02   0.000000E+00
  59    0.000000E+00   0.000000E+00   0.000000E+00   0.000000E+00   2.044975E-01
  60    5.114694E-03   9.329653E-02   1.163811E-01   3.315538E-02   0.000000E+00
   
             6              7              8              9             10
   6    1.000000E+00
   7    2.483624E-01   1.000000E+00
   8    0.000000E+00   0.000000E+00   1.000000E+00
   9    0.000000E+00   0.000000E+00   0.000000E+00   1.000000E+00
  10    0.000000E+00   0.000000E+00   0.000000E+00   0.000000E+00   1.000000E+00
  11    8.203836E-07   3.731499E-02  -1.150275E-02   6.079313E-02   0.000000E+00
  12    3.731499E-02   3.635572E-01  -7.196758E-02   3.803554E-01   0.000000E+00
  13    1.150275E-02   7.196758E-02   1.935222E-01   9.864810E-02   0.000000E+00
  14   -6.079313E-02  -3.803554E-01   9.864810E-02  -3.091770E-01   0.000000E+00
  15    0.000000E+00   0.000000E+00   0.000000E+00   0.000000E+00   2.121875E-01
  16    0.000000E+00   1.551479E-03   1.175152E-03   3.444146E-03   0.000000E+00
  17    1.551479E-03   5.546963E-02   2.665711E-02   7.812689E-02   0.000000E+00
  18   -1.175152E-03  -2.665711E-02   8.880931E-03  -4.131350E-02   0.000000E+00
  19   -3.444146E-03  -7.812689E-02  -4.131350E-02  -9.810475E-02   0.000000E+00
  20    0.000000E+00   0.000000E+00   0.000000E+00   0.000000E+00   2.297721E-02
  21    0.000000E+00   3.793945E-04   7.682705E-04   6.643300E-04   0.000000E+00
  22    3.793945E-04   2.483224E-02   3.034131E-02   2.623638E-02   0.000000E+00
  23   -7.682705E-04  -3.034131E-02  -3.038570E-02  -3.452458E-02   0.000000E+00
  24   -6.643300E-04  -2.623638E-02  -3.452458E-02  -2.031313E-02   0.000000E+00
  25    0.000000E+00   0.000000E+00   0.000000E+00   0.000000E+00   9.540572E-03
  26    6.117748E-02   4.863790E-01  -3.554558E-01  -2.992446E-01   0.000000E+00
  27    5.267887E-03   9.529471E-02  -7.394687E-02   9.862467E-02   0.000000E+00
  28    1.095189E-05   1.731323E-03   2.373703E-03   2.037225E-03   0.000000E+00
  29    0.000000E+00   2.479439E-06   1.084660E-06   8.918332E-06   0.000000E+00
  30    2.479439E-06   1.573618E-03   3.773382E-04   3.102565E-03   0.000000E+00
  31   -1.084660E-06  -3.773382E-04   4.311676E-04  -7.650202E-04   0.000000E+00
  32   -8.918332E-06  -3.102565E-03  -7.650202E-04  -5.765969E-03   0.000000E+00
  33    0.000000E+00   0.000000E+00   0.000000E+00   0.000000E+00   5.242104E-04
  34    0.000000E+00   9.932741E-10   1.253449E-09   4.521258E-09   0.000000E+00
  35    9.932741E-10   2.474945E-05   1.656065E-05   5.973518E-05   0.000000E+00
  36   -1.253449E-09  -1.656065E-05  -3.306778E-06  -4.012923E-05   0.000000E+00
  37   -4.521258E-09  -5.973518E-05  -4.012923E-05  -1.369299E-04   0.000000E+00
  38    0.000000E+00   0.000000E+00   0.000000E+00   0.000000E+00   7.818428E-06
  39    8.743323E-09   2.421339E-05   2.551150E-05   4.915573E-05   0.000000E+00
  40    5.592779E-06   1.150631E-03  -3.242419E-04   2.107161E-03   0.000000E+00
  41    8.276085E-11   1.748630E-06   7.487439E-07   4.423940E-06   0.000000E+00
  42    0.000000E+00   1.047835E-03   1.663964E-03  -1.943937E-03   0.000000E+00
  43    1.047835E-03   4.424995E-02   4.390311E-02  -5.129009E-02   0.000000E+00
  44   -1.663964E-03  -4.390311E-02  -2.969083E-02   5.560564E-02   0.000000E+00
  45    1.943937E-03   5.129009E-02   5.560564E-02  -4.705534E-02   0.000000E+00
  46    0.000000E+00   0.000000E+00   0.000000E+00   0.000000E+00   1.790629E-02
  47    6.482759E-05   5.180296E-03   6.841700E-03  -5.403565E-03   0.000000E+00
  48    0.000000E+00   1.187797E-04   8.977480E-05  -3.354121E-04   0.000000E+00
  49    1.187797E-04   1.296822E-02   5.727336E-03  -2.139819E-02   0.000000E+00
  50   -8.977480E-05  -5.727336E-03   2.063853E-03   1.004231E-02   0.000000E+00
  51    3.354121E-04   2.139819E-02   1.004231E-02  -3.276786E-02   0.000000E+00
  52    0.000000E+00   0.000000E+00   0.000000E+00   0.000000E+00   4.751730E-03
  53    7.479023E-04   2.483917E-02  -3.799587E-03  -3.691223E-02   0.000000E+00
  54    3.261317E-06   8.302806E-04   4.284124E-04  -1.509426E-03   0.000000E+00
  55    0.000000E+00   1.721208E-03   3.919312E-03   7.603053E-04   0.000000E+00
  56    1.721208E-03   5.890335E-02   8.546161E-02   1.657865E-02   0.000000E+00
  57   -3.919312E-03  -8.546161E-02  -1.121571E-01  -2.652169E-02   0.000000E+00
  58   -7.603053E-04  -1.657865E-02  -2.652169E-02   1.941507E-02   0.000000E+00
  59    0.000000E+00   0.000000E+00   0.000000E+00   0.000000E+00   2.456000E-02
  60    8.553223E-05   6.161214E-03   1.024200E-02   3.211386E-04   0.000000E+00
   
            11             12             13             14             15
  11    1.000000E+00
  12    2.483624E-01   1.000000E+00
  13    0.000000E+00   0.000000E+00   1.000000E+00
  14    0.000000E+00   0.000000E+00   0.000000E+00   1.000000E+00
  15    0.000000E+00   0.000000E+00   0.000000E+00   0.000000E+00   1.000000E+00
  16    5.716446E-07   3.553610E-02   4.376625E-02   3.950155E-02   0.000000E+00
  17    3.553610E-02   3.535097E-01   2.818901E-01   2.544220E-01   0.000000E+00
  18   -4.376625E-02  -2.818901E-01  -8.831585E-02  -2.642808E-01   0.000000E+00
  19   -3.950155E-02  -2.544220E-01  -2.642808E-01  -3.403105E-02   0.000000E+00
  20    0.000000E+00   0.000000E+00   0.000000E+00   0.000000E+00   2.044975E-01
  21    0.000000E+00   1.721208E-03   3.919312E-03   7.603053E-04   0.000000E+00
  22    1.721208E-03   5.890335E-02   8.546161E-02   1.657865E-02   0.000000E+00
  23   -3.919312E-03  -8.546161E-02  -1.121571E-01  -2.652169E-02   0.000000E+00
  24   -7.603053E-04  -1.657865E-02  -2.652169E-02   1.941507E-02   0.000000E+00
  25    0.000000E+00   0.000000E+00   0.000000E+00   0.000000E+00   2.456000E-02
  26    5.315946E-03   9.591868E-02  -3.317668E-02  -1.194490E-01   0.000000E+00
  27    6.102876E-02   4.857816E-01  -4.392149E-01   1.505007E-01   0.000000E+00
  28    8.409869E-05   6.096252E-03   9.539235E-03   3.457204E-03   0.000000E+00
  29    0.000000E+00   1.257044E-03   8.636927E-04   2.887610E-03   0.000000E+00
  30    1.257044E-03   4.912940E-02   2.123831E-02   7.100668E-02   0.000000E+00
  31   -8.636927E-04  -2.123831E-02   1.002865E-02  -3.364564E-02   0.000000E+00
  32   -2.887610E-03  -7.100668E-02  -3.364564E-02  -9.239631E-02   0.000000E+00
  33    0.000000E+00   0.000000E+00   0.000000E+00   0.000000E+00   2.009216E-02
  34    0.000000E+00   2.969509E-06   4.494408E-06   9.679479E-06   0.000000E+00
  35    2.969509E-06   1.733920E-03   1.441204E-03   3.103880E-03   0.000000E+00
  36   -4.494408E-06  -1.441204E-03  -6.539723E-04  -2.655965E-03   0.000000E+00
  37   -9.679479E-06  -3.103880E-03  -2.655965E-03  -5.140822E-03   0.000000E+00
  38    0.000000E+00   0.000000E+00   0.000000E+00   0.000000E+00   5.792543E-04
  39    2.326384E-06   6.772221E-04   8.190156E-04   1.003676E-03   0.000000E+00
  40    1.326210E-03   3.644475E-02  -7.048478E-03   5.206181E-02   0.000000E+00
  41    2.837743E-07   1.918596E-04   1.062103E-04   3.798859E-04   0.000000E+00
  42    0.000000E+00   2.117592E-06   3.876199E-06  -6.684704E-06   0.000000E+00
  43    2.117592E-06   1.445719E-03   1.448282E-03  -2.497636E-03   0.000000E+00
  44   -3.876199E-06  -1.448282E-03  -1.009998E-03   2.570363E-03   0.000000E+00
  45    6.684704E-06   2.497636E-03   2.570363E-03  -3.952268E-03   0.000000E+00
  46    0.000000E+00   0.000000E+00   0.000000E+00   0.000000E+00   4.804555E-04
  47    2.796080E-07   1.901728E-04   2.529714E-04  -2.983695E-04   0.000000E+00
  48    0.000000E+00   4.068452E-08   4.070475E-08  -1.676440E-07   0.000000E+00
  49    4.068452E-08   1.756812E-04   9.388038E-05  -3.866498E-04   0.000000E+00
  50   -4.070475E-08  -9.388038E-05   5.543804E-06   2.087644E-04   0.000000E+00
  51    1.676440E-07   3.866498E-04   2.087644E-04  -8.035710E-04   0.000000E+00
  52    0.000000E+00   0.000000E+00   0.000000E+00   0.000000E+00   5.623278E-05
  53    2.840711E-06   7.638911E-04  -1.027233E-05  -1.450759E-03   0.000000E+00
  54    1.191140E-09   7.487551E-06   4.542612E-06  -1.749576E-05   0.000000E+00
  55    0.000000E+00   3.978990E-04   1.003040E-03  -3.458627E-04   0.000000E+00
  56    3.978990E-04   2.550849E-02   3.885698E-02  -1.339845E-02   0.000000E+00
  57   -1.003040E-03  -3.885698E-02  -5.396355E-02   2.199416E-02   0.000000E+00
  58    3.458627E-04   1.339845E-02   2.199416E-02   2.237999E-03   0.000000E+00
  59    0.000000E+00   0.000000E+00   0.000000E+00   0.000000E+00   9.821905E-03
  60    1.146536E-05   1.780394E-03   3.036273E-03  -1.045108E-03   0.000000E+00
   
            16             17             18             19             20
  16    1.000000E+00
  17    2.483624E-01   1.000000E+00
  18    0.000000E+00   0.000000E+00   1.000000E+00
  19    0.000000E+00   0.000000E+00   0.000000E+00   1.000000E+00
  20    0.000000E+00   0.000000E+00   0.000000E+00   0.000000E+00   1.000000E+00
  21    5.850661E-07   3.564737E-02   5.552119E-02  -2.036477E-02   0.000000E+00
  22    3.564737E-02   3.541460E-01   3.569455E-01  -1.309250E-01   0.000000E+00
  23   -5.552119E-02  -3.569455E-01  -2.638456E-01   1.719623E-01   0.000000E+00
  24    2.036477E-02   1.309250E-01   1.719623E-01   1.419067E-01   0.000000E+00
  25    0.000000E+00   0.000000E+00   0.000000E+00   0.000000E+00   2.049812E-01
  26    7.942714E-05   5.881771E-03  -4.651000E-03  -8.641388E-03   0.000000E+00
  27    5.114694E-03   9.329653E-02  -1.163811E-01  -3.315538E-02   0.000000E+00
  28    5.035218E-03   9.225423E-02   1.192363E-01   1.193007E-02   0.000000E+00
  29    1.431406E-07   2.956744E-02  -1.100708E-02   4.807306E-02   0.000000E+00
  30    2.956744E-02   3.177155E-01  -7.857987E-02   3.431949E-01   0.000000E+00
  31    1.100708E-02   7.857987E-02   1.531822E-01   1.083255E-01   0.000000E+00
  32   -4.807306E-02  -3.431949E-01   1.083255E-01  -2.951227E-01   0.000000E+00
  33    0.000000E+00   0.000000E+00   0.000000E+00   0.000000E+00   1.779850E-01
  34    0.000000E+00   1.158987E-03   5.946066E-04   2.738103E-03   0.000000E+00
  35    1.158987E-03   4.688719E-02   1.508714E-02   6.947474E-02   0.000000E+00
  36   -5.946066E-04  -1.508714E-02   1.377018E-02  -2.446910E-02   0.000000E+00
  37   -2.738103E-03  -6.947474E-02  -2.446910E-02  -9.359381E-02   0.000000E+00
  38    0.000000E+00   0.000000E+00   0.000000E+00   0.000000E+00   1.908389E-02
  39    7.335935E-04   2.452339E-02   2.096610E-02   3.009356E-02   0.000000E+00
  40    4.907233E-03   9.056741E-02  -7.588399E-02   9.025545E-02   0.000000E+00
  41    5.774986E-05   4.819989E-03   4.515490E-04   8.138847E-03   0.000000E+00
  42    0.000000E+00   8.313481E-08   6.879905E-08  -3.372146E-07   0.000000E+00
  43    8.313481E-08   2.567474E-04   1.137960E-04  -5.577644E-04   0.000000E+00
  44   -6.879905E-08  -1.137960E-04   3.147355E-05   2.502921E-04   0.000000E+00
  45    3.372146E-07   5.577644E-04   2.502921E-04  -1.144254E-03   0.000000E+00
  46    0.000000E+00   0.000000E+00   0.000000E+00   0.000000E+00   8.253852E-05
  47    6.810952E-08   8.196957E-05   7.017370E-05  -1.618277E-04   0.000000E+00
  48    0.000000E+00   7.706906E-11   0.000000E+00  -3.834979E-10   0.000000E+00
  49    7.706906E-11   7.014084E-06  -1.483186E-26  -1.860321E-05   0.000000E+00
  50    0.000000E+00  -1.483186E-26   2.207565E-06   7.845066E-26   0.000000E+00
  51    3.834979E-10   1.860321E-05  -7.845066E-26  -4.723633E-05   0.000000E+00
  52    0.000000E+00   0.000000E+00   0.000000E+00   0.000000E+00   2.207565E-06
  53    8.127317E-09   2.318631E-05  -1.095791E-05  -5.200057E-05   0.000000E+00
  54    0.000000E+00   3.035058E-07   4.497398E-08  -8.304634E-07   0.000000E+00
  55    0.000000E+00   1.593342E-03   2.420508E-03  -2.833612E-03   0.000000E+00
  56    1.593342E-03   5.633001E-02   5.435220E-02  -6.362839E-02   0.000000E+00
  57   -2.420508E-03  -5.435220E-02  -3.436420E-02   6.759050E-02   0.000000E+00
  58    2.833612E-03   6.362839E-02   6.759050E-02  -5.575354E-02   0.000000E+00
  59    0.000000E+00   0.000000E+00   0.000000E+00   0.000000E+00   2.337249E-02
  60    8.028321E-05   5.921403E-03   7.546609E-03  -6.369179E-03   0.000000E+00
   
            21             22             23             24             25
  21    1.000000E+00
  22    2.483624E-01   1.000000E+00
  23    0.000000E+00   0.000000E+00   1.000000E+00
  24    0.000000E+00   0.000000E+00   0.000000E+00   1.000000E+00
  25    0.000000E+00   0.000000E+00   0.000000E+00   0.000000E+00   1.000000E+00
  26    1.095189E-05   1.731323E-03  -2.373703E-03  -2.037225E-03   0.000000E+00
  27    8.553223E-05   6.161214E-03  -1.024200E-02  -3.211386E-04   0.000000E+00
  28    6.117748E-02   4.863790E-01   3.554558E-01   2.992446E-01   0.000000E+00
  29    0.000000E+00   1.047835E-03  -1.663964E-03   1.943937E-03   0.000000E+00
  30    1.047835E-03   4.424995E-02  -4.390311E-02   5.129009E-02   0.000000E+00
  31    1.663964E-03   4.390311E-02  -2.969083E-02   5.560564E-02   0.000000E+00
  32   -1.943937E-03  -5.129009E-02   5.560564E-02  -4.705534E-02   0.000000E+00
  33    0.000000E+00   0.000000E+00   0.000000E+00   0.000000E+00   1.790629E-02
  34    0.000000E+00   1.187797E-04  -8.977480E-05   3.354121E-04   0.000000E+00
  35    1.187797E-04   1.296822E-02  -5.727336E-03   2.139819E-02   0.000000E+00
  36    8.977480E-05   5.727336E-03   2.063853E-03   1.004231E-02   0.000000E+00
  37   -3.354121E-04  -2.139819E-02   1.004231E-02  -3.276786E-02   0.000000E+00
  38    0.000000E+00   0.000000E+00   0.000000E+00   0.000000E+00   4.751730E-03
  39    7.479023E-04   2.483917E-02   3.799587E-03   3.691223E-02   0.000000E+00
  40    6.482759E-05   5.180296E-03  -6.841700E-03   5.403565E-03   0.000000E+00
  41    3.261317E-06   8.302806E-04  -4.284124E-04   1.509426E-03   0.000000E+00
  42    0.000000E+00   2.479439E-06  -1.084660E-06  -8.918332E-06   0.000000E+00
  43    2.479439E-06   1.573618E-03  -3.773382E-04  -3.102565E-03   0.000000E+00
  44    1.084660E-06   3.773382E-04   4.311676E-04  -7.650202E-04   0.000000E+00
  45    8.918332E-06   3.102565E-03  -7.650202E-04  -5.765969E-03   0.000000E+00
  46    0.000000E+00   0.000000E+00   0.000000E+00   0.000000E+00   5.242104E-04
  47    5.592779E-06   1.150631E-03   3.242419E-04  -2.107161E-03   0.000000E+00
  48    0.000000E+00   9.932741E-10  -1.253449E-09  -4.521258E-09   0.000000E+00
  49    9.932741E-10   2.474945E-05  -1.656065E-05  -5.973518E-05   0.000000E+00
  50    1.253449E-09   1.656065E-05  -3.306778E-06  -4.012923E-05   0.000000E+00
  51    4.521258E-09   5.973518E-05  -4.012923E-05  -1.369299E-04   0.000000E+00
  52    0.000000E+00   0.000000E+00   0.000000E+00   0.000000E+00   7.818428E-06
  53    8.743323E-09   2.421339E-05  -2.551150E-05  -4.915573E-05   0.000000E+00
  54    8.276085E-11   1.748630E-06  -7.487439E-07  -4.423940E-06   0.000000E+00
  55    8.203836E-07   3.731499E-02   1.150275E-02  -6.079313E-02   0.000000E+00
  56    3.731499E-02   3.635572E-01   7.196758E-02  -3.803554E-01   0.000000E+00
  57   -1.150275E-02  -7.196758E-02   1.935222E-01   9.864810E-02   0.000000E+00
  58    6.079313E-02   3.803554E-01   9.864810E-02  -3.091770E-01   0.000000E+00
  59    0.000000E+00   0.000000E+00   0.000000E+00   0.000000E+00   2.121875E-01
  60    5.267887E-03   9.529471E-02   7.394687E-02  -9.862467E-02   0.000000E+00
   
            26             27             28             29             30
  26    1.000000E+00
  27    5.104390E-02   1.000000E+00
  28    1.044692E-04   7.105982E-04   1.000000E+00
  29    2.357496E-07   1.132165E-03   8.450300E-04   1.000000E+00
  30    1.717600E-04   3.275691E-02   2.693658E-02   2.483624E-01   1.000000E+00
  31   -9.870432E-05  -3.102970E-02   3.579935E-02   0.000000E+00   0.000000E+00
  32   -3.412957E-04  -3.624013E-02  -1.773179E-02   0.000000E+00   0.000000E+00
  33    0.000000E+00   0.000000E+00   0.000000E+00   0.000000E+00   0.000000E+00
  34    8.545447E-11   5.752345E-06   8.618497E-04   2.238219E-06   4.283229E-02
  35    1.782346E-06   1.170425E-03   2.729223E-02   4.283229E-02   3.931361E-01
  36   -1.674673E-06  -1.408410E-03   2.366718E-02  -4.613981E-02  -2.649086E-01
  37   -4.251978E-06  -1.646080E-03  -3.277826E-02  -5.400344E-02  -3.100570E-01
  38    0.000000E+00   0.000000E+00   0.000000E+00   0.000000E+00   0.000000E+00
  39    1.349944E-06   2.381110E-04   8.737798E-02   5.582250E-03   9.935213E-02
  40    2.463725E-04   6.214075E-02   2.439705E-03   6.078076E-02   4.847829E-01
  41    1.666649E-07   2.529065E-04   2.569562E-03   5.786726E-03   1.019618E-01
  42    8.450300E-04   1.807479E-07   2.357496E-07   0.000000E+00   0.000000E+00
  43    2.693658E-02   1.465888E-04   1.717600E-04   0.000000E+00   5.759963E-07
  44   -3.579935E-02  -1.919258E-04   9.870432E-05   0.000000E+00  -3.471929E-07
  45    1.773179E-02   2.381263E-04   3.412957E-04   0.000000E+00   1.650426E-06
  46    0.000000E+00   0.000000E+00   0.000000E+00   0.000000E+00   0.000000E+00
  47    2.439705E-03   1.446316E-05   2.463725E-04   0.000000E+00   2.652947E-07
  48    8.618497E-04   1.625076E-08   8.545447E-11   0.000000E+00   0.000000E+00
  49    2.729223E-02   3.497986E-05   1.782346E-06   0.000000E+00   6.160922E-09
  50   -2.366718E-02  -3.197121E-05   1.674673E-06   0.000000E+00  -1.027180E-09
  51    3.277826E-02   7.179353E-05   4.251978E-06   0.000000E+00   2.077976E-08
  52    0.000000E+00   0.000000E+00   0.000000E+00   0.000000E+00   0.000000E+00
  53    8.737798E-02   2.906495E-04   1.349944E-06   0.000000E+00   7.889214E-08
  54    2.569562E-03   1.566013E-06   1.666649E-07   0.000000E+00   2.277195E-10
  55    8.409869E-05   1.146536E-05   5.315946E-03   0.000000E+00   2.117592E-06
  56    6.096252E-03   1.780394E-03   9.591868E-02   2.117592E-06   1.445719E-03
  57   -9.539235E-03  -3.036273E-03   3.317668E-02  -3.876199E-06  -1.448282E-03
  58   -3.457204E-03   1.045108E-03   1.194490E-01   6.684704E-06   2.497636E-03
  59    0.000000E+00   0.000000E+00   0.000000E+00   0.000000E+00   0.000000E+00
  60    7.105982E-04   1.073881E-04   5.104390E-02   1.807479E-07   1.465888E-04
   
            31             32             33             34             35
  31    1.000000E+00
  32    0.000000E+00   1.000000E+00
  33    0.000000E+00   0.000000E+00   1.000000E+00
  34    4.613981E-02   5.400344E-02   0.000000E+00   1.000000E+00
  35    2.649086E-01   3.100570E-01   0.000000E+00   2.483624E-01   1.000000E+00
  36   -2.403579E-03  -2.784178E-01   0.000000E+00   0.000000E+00   0.000000E+00
  37   -2.784178E-01  -9.039578E-02   0.000000E+00   0.000000E+00   0.000000E+00
  38    0.000000E+00   0.000000E+00   2.354728E-01   0.000000E+00   0.000000E+00
  39    1.167751E-01   5.198799E-02   0.000000E+00   6.141065E-02   4.873133E-01
  40   -4.543098E-01   9.273857E-02   0.000000E+00   6.086943E-03   1.057536E-01
  41    3.251350E-02   1.266314E-01   0.000000E+00   6.137651E-02   4.871766E-01
  42    0.000000E+00   0.000000E+00   0.000000E+00   0.000000E+00   0.000000E+00
  43    3.471929E-07  -1.650426E-06   0.000000E+00   0.000000E+00   6.160922E-09
  44   -2.865715E-08   9.954147E-07   0.000000E+00   0.000000E+00  -1.027180E-09
  45    9.954147E-07  -4.551087E-06   0.000000E+00   0.000000E+00   2.077976E-08
  46    0.000000E+00   0.000000E+00   1.807439E-07   0.000000E+00   0.000000E+00
  47    2.615483E-07  -6.820016E-07   0.000000E+00   0.000000E+00   8.614148E-09
  48    0.000000E+00   0.000000E+00   0.000000E+00   0.000000E+00   0.000000E+00
  49    1.027180E-09  -2.077976E-08   0.000000E+00   0.000000E+00   0.000000E+00
  50    1.759752E-09   3.464504E-09   0.000000E+00   0.000000E+00   0.000000E+00
  51    3.464504E-09  -6.815561E-08   0.000000E+00   0.000000E+00   0.000000E+00
  52    0.000000E+00   0.000000E+00   1.931008E-09   0.000000E+00   0.000000E+00
  53   -2.555487E-08  -2.248595E-07   0.000000E+00   0.000000E+00   2.636451E-10
  54    6.646784E-11  -7.652269E-10   0.000000E+00   0.000000E+00   0.000000E+00
  55    3.876199E-06  -6.684704E-06   0.000000E+00   0.000000E+00   4.068452E-08
  56    1.448282E-03  -2.497636E-03   0.000000E+00   4.068452E-08   1.756812E-04
  57   -1.009998E-03   2.570363E-03   0.000000E+00  -4.070475E-08  -9.388038E-05
  58    2.570363E-03  -3.952268E-03   0.000000E+00   1.676440E-07   3.866498E-04
  59    0.000000E+00   0.000000E+00   4.804555E-04   0.000000E+00   0.000000E+00
  60    1.919258E-04  -2.381263E-04   0.000000E+00   1.625076E-08   3.497986E-05
   
            36             37             38             39             40
  36    1.000000E+00
  37    0.000000E+00   1.000000E+00
  38    0.000000E+00   0.000000E+00   1.000000E+00
  39    4.608366E-01  -6.364362E-02   0.000000E+00   1.000000E+00
  40   -1.248208E-01  -5.129673E-02   0.000000E+00   1.455419E-02   1.000000E+00
  41   -1.457509E-01   4.417023E-01   0.000000E+00   1.492779E-01   5.478321E-02
  42    0.000000E+00   0.000000E+00   0.000000E+00   0.000000E+00   0.000000E+00
  43    1.027180E-09  -2.077976E-08   0.000000E+00   7.889214E-08   2.652947E-07
  44    1.759752E-09   3.464504E-09   0.000000E+00   2.555487E-08  -2.615483E-07
  45    3.464504E-09  -6.815561E-08   0.000000E+00   2.248595E-07   6.820016E-07
  46    0.000000E+00   0.000000E+00   1.931008E-09   0.000000E+00   0.000000E+00
  47    5.239765E-09  -2.590146E-08   0.000000E+00   1.480880E-07   6.509445E-08
  48    0.000000E+00   0.000000E+00   0.000000E+00   0.000000E+00   0.000000E+00
  49    0.000000E+00   0.000000E+00   0.000000E+00   2.636451E-10   8.614148E-09
  50    0.000000E+00   0.000000E+00   0.000000E+00   1.844648E-10  -5.239765E-09
  51    0.000000E+00   0.000000E+00   0.000000E+00   8.667715E-10   2.590146E-08
  52    0.000000E+00   0.000000E+00   0.000000E+00   0.000000E+00   0.000000E+00
  53   -1.844648E-10  -8.667715E-10   0.000000E+00   1.000456E-09   1.480880E-07
  54    0.000000E+00   0.000000E+00   0.000000E+00   0.000000E+00   2.910896E-10
  55    4.070475E-08  -1.676440E-07   0.000000E+00   2.840711E-06   2.796080E-07
  56    9.388038E-05  -3.866498E-04   0.000000E+00   7.638911E-04   1.901728E-04
  57    5.543804E-06   2.087644E-04   0.000000E+00   1.027233E-05  -2.529714E-04
  58    2.087644E-04  -8.035710E-04   0.000000E+00   1.450759E-03   2.983695E-04
  59    0.000000E+00   0.000000E+00   5.623278E-05   0.000000E+00   0.000000E+00
  60    3.197121E-05  -7.179353E-05   0.000000E+00   2.906495E-04   1.446316E-05
   
            41             42             43             44             45
  41    1.000000E+00
  42    0.000000E+00   1.000000E+00
  43    2.277195E-10   2.483624E-01   1.000000E+00
  44   -6.646784E-11   0.000000E+00   0.000000E+00   1.000000E+00
  45    7.652269E-10   0.000000E+00   0.000000E+00   0.000000E+00   1.000000E+00
  46    0.000000E+00   0.000000E+00   0.000000E+00   0.000000E+00   0.000000E+00
  47    2.910896E-10   6.078076E-02   4.847829E-01   4.543098E-01  -9.273857E-02
  48    0.000000E+00   2.238219E-06   4.283229E-02  -4.613981E-02  -5.400344E-02
  49    0.000000E+00   4.283229E-02   3.931361E-01  -2.649086E-01  -3.100570E-01
  50    0.000000E+00   4.613981E-02   2.649086E-01  -2.403579E-03  -2.784178E-01
  51    0.000000E+00   5.400344E-02   3.100570E-01  -2.784178E-01  -9.039578E-02
  52    0.000000E+00   0.000000E+00   0.000000E+00   0.000000E+00   0.000000E+00
  53    0.000000E+00   5.582250E-03   9.935213E-02  -1.167751E-01  -5.198799E-02
  54    0.000000E+00   5.786726E-03   1.019618E-01  -3.251350E-02  -1.266314E-01
  55    1.191140E-09   0.000000E+00   1.257044E-03   8.636927E-04   2.887610E-03
  56    7.487551E-06   1.257044E-03   4.912940E-02   2.123831E-02   7.100668E-02
  57   -4.542612E-06  -8.636927E-04  -2.123831E-02   1.002865E-02  -3.364564E-02
  58    1.749576E-05  -2.887610E-03  -7.100668E-02  -3.364564E-02  -9.239631E-02
  59    0.000000E+00   0.000000E+00   0.000000E+00   0.000000E+00   0.000000E+00
  60    1.566013E-06   1.132165E-03   3.275691E-02   3.102970E-02   3.624013E-02
   
            46             47             48             49             50
  46    1.000000E+00
  47    0.000000E+00   1.000000E+00
  48    0.000000E+00   6.086943E-03   1.000000E+00
  49    0.000000E+00   1.057536E-01   2.483624E-01   1.000000E+00
  50    0.000000E+00   1.248208E-01   0.000000E+00   0.000000E+00   1.000000E+00
  51    0.000000E+00   5.129673E-02   0.000000E+00   0.000000E+00   0.000000E+00
  52    2.354728E-01   0.000000E+00   0.000000E+00   0.000000E+00   0.000000E+00
  53    0.000000E+00   1.455419E-02   6.141065E-02   4.873133E-01  -4.608366E-01
  54    0.000000E+00   5.478321E-02   6.137651E-02   4.871766E-01   1.457509E-01
  55    0.000000E+00   1.326210E-03   0.000000E+00   2.969509E-06   4.494408E-06
  56    0.000000E+00   3.644475E-02   2.969509E-06   1.733920E-03   1.441204E-03
  57    0.000000E+00   7.048478E-03  -4.494408E-06  -1.441204E-03  -6.539723E-04
  58    0.000000E+00  -5.206181E-02  -9.679479E-06  -3.103880E-03  -2.655965E-03
  59    2.009216E-02   0.000000E+00   0.000000E+00   0.000000E+00   0.000000E+00
  60    0.000000E+00   6.214075E-02   5.752345E-06   1.170425E-03   1.408410E-03
   
            51             52             53             54             55
  51    1.000000E+00
  52    0.000000E+00   1.000000E+00
  53    6.364362E-02   0.000000E+00   1.000000E+00
  54   -4.417023E-01   0.000000E+00   1.492779E-01   1.000000E+00
  55    9.679479E-06   0.000000E+00   2.326384E-06   2.837743E-07   1.000000E+00
  56    3.103880E-03   0.000000E+00   6.772221E-04   1.918596E-04   2.483624E-01
  57   -2.655965E-03   0.000000E+00  -8.190156E-04  -1.062103E-04   0.000000E+00
  58   -5.140822E-03   0.000000E+00  -1.003676E-03  -3.798859E-04   0.000000E+00
  59    0.000000E+00   5.792543E-04   0.000000E+00   0.000000E+00   0.000000E+00
  60    1.646080E-03   0.000000E+00   2.381110E-04   2.529065E-04   6.102876E-02
   
            56             57             58             59             60
  56    1.000000E+00
  57    0.000000E+00   1.000000E+00
  58    0.000000E+00   0.000000E+00   1.000000E+00
  59    0.000000E+00   0.000000E+00   0.000000E+00   1.000000E+00
  60    4.857816E-01   4.392149E-01  -1.505007E-01   0.000000E+00   1.000000E+00
   
   
  KE        
   
             1              2              3              4              5
   1    1.589112E+01
   2   -8.588999E-02   4.722500E-01
   3    0.000000E+00   0.000000E+00   1.477728E+00
   4    0.000000E+00   0.000000E+00   0.000000E+00   1.477728E+00
   5    0.000000E+00   0.000000E+00   0.000000E+00   0.000000E+00   1.477728E+00
   6   -2.324435E-05  -8.410080E-03   1.116462E-02  -4.095103E-03   0.000000E+00
   7   -8.410080E-03   4.091297E-02  -1.316446E-01   4.828629E-02   0.000000E+00
   8   -1.116462E-02   1.316446E-01  -2.505349E-01   1.168520E-01   0.000000E+00
   9    4.095103E-03  -4.828629E-02   1.168520E-01   2.518233E-02   0.000000E+00
  10    0.000000E+00   0.000000E+00   0.000000E+00   0.000000E+00   6.804279E-02
  11    0.000000E+00  -2.078326E-03   2.162639E-03  -2.531733E-03   0.000000E+00
  12   -2.078326E-03  -1.710820E-02   7.230561E-03  -8.464586E-03   0.000000E+00
  13   -2.162639E-03  -7.230561E-03  -5.618182E-03   1.932573E-03   0.000000E+00
  14    2.531733E-03   8.464586E-03   1.932573E-03  -6.229755E-03   0.000000E+00
  15    0.000000E+00   0.000000E+00   0.000000E+00   0.000000E+00  -3.967353E-03
  16    0.000000E+00  -5.988611E-04   2.425559E-04  -1.269199E-03   0.000000E+00
  17   -5.988611E-04  -1.083522E-02   2.247145E-03  -1.175842E-02   0.000000E+00
  18   -2.425559E-04  -2.247145E-03  -2.678137E-03  -2.093123E-03   0.000000E+00
  19    1.269199E-03   1.175842E-02  -2.093123E-03   7.874328E-03   0.000000E+00
  20    0.000000E+00   0.000000E+00   0.000000E+00   0.000000E+00  -3.078153E-03
  21    0.000000E+00  -2.040931E-03  -1.062469E-03  -3.113892E-03   0.000000E+00
  22   -2.040931E-03  -1.702577E-02  -3.636944E-03  -1.065919E-02   0.000000E+00
  23    1.062469E-03   3.636944E-03  -4.332645E-03  -1.039458E-03   0.000000E+00
  24    3.113892E-03   1.065919E-02  -1.039458E-03  -7.024432E-03   0.000000E+00
  25    0.000000E+00   0.000000E+00   0.000000E+00   0.000000E+00  -3.977978E-03
  26   -2.259031E-03  -1.502638E-02   1.680016E-03   1.680924E-04   0.000000E+00
  27   -1.413714E-04  -3.566558E-03   3.580509E-03  -3.021874E-03   0.000000E+00
  28   -1.401404E-04  -3.548804E-03  -2.211495E-03  -4.108877E-03   0.000000E+00
  29    0.000000E+00  -4.527437E-07   3.458876E-07  -1.695349E-06   0.000000E+00
  30   -4.527437E-07  -3.560877E-04   1.359196E-04  -6.662020E-04   0.000000E+00
  31   -3.458876E-07  -1.359196E-04  -4.778406E-05  -2.549250E-04   0.000000E+00
  32    1.695349E-06   6.662020E-04  -2.549250E-04   1.149706E-03   0.000000E+00
  33    0.000000E+00   0.000000E+00   0.000000E+00   0.000000E+00  -9.979425E-05
  34    0.000000E+00  -6.283510E-10   0.000000E+00  -2.966296E-09   0.000000E+00
  35   -6.283510E-10  -1.512271E-05  -1.118673E-25  -3.612161E-05   0.000000E+00
  36    0.000000E+00  -1.118673E-25  -4.294560E-06  -5.592764E-25   0.000000E+00
  37    2.966296E-09   3.612161E-05   5.592764E-25   8.136173E-05   0.000000E+00
  38    0.000000E+00   0.000000E+00   0.000000E+00   0.000000E+00  -4.294560E-06
  39   -3.850635E-08  -3.600841E-05  -1.510876E-05  -7.169840E-05   0.000000E+00
  40   -2.759333E-07  -1.083649E-04   8.115331E-05  -1.871478E-04   0.000000E+00
  41    0.000000E+00  -7.191758E-07   9.811315E-08  -1.811700E-06   0.000000E+00
  42   -6.386952E-06  -8.187842E-03  -2.556118E-03   1.116376E-02   0.000000E+00
  43   -8.187842E-03   2.741025E-02   2.551746E-02  -1.114466E-01   0.000000E+00
  44    2.556118E-03  -2.551746E-02   3.585480E-02   6.508491E-02   0.000000E+00
  45   -1.116376E-02   1.114466E-01   6.508491E-02  -2.334991E-01   0.000000E+00
  46    0.000000E+00   0.000000E+00   0.000000E+00   0.000000E+00   5.075702E-02
  47   -2.234892E-03  -1.504342E-02  -1.320896E-03   1.571057E-03   0.000000E+00
  48    0.000000E+00  -1.665848E-03   6.077451E-04   2.798604E-03   0.000000E+00
  49   -1.665848E-03  -1.603592E-02   2.615755E-03   1.204528E-02   0.000000E+00
  50   -6.077451E-04  -2.615755E-03  -3.940298E-03   2.997743E-04   0.000000E+00
  51   -2.798604E-03  -1.204528E-02   2.997743E-04  -2.624967E-03   0.000000E+00
  52    0.000000E+00   0.000000E+00   0.000000E+00   0.000000E+00  -4.005397E-03
  53   -7.650021E-04  -9.364443E-03   5.131787E-03   7.365879E-03   0.000000E+00
  54   -1.078676E-04  -3.057145E-03   2.285064E-04   4.118663E-03   0.000000E+00
  55   -2.275743E-05  -8.408124E-03  -8.832387E-03  -7.971735E-03   0.000000E+00
  56   -8.408124E-03   4.066457E-02   1.037486E-01   9.363901E-02   0.000000E+00
  57    8.832387E-03  -1.037486E-01  -1.308496E-01  -1.792154E-01   0.000000E+00
  58    7.971735E-03  -9.363901E-02  -1.792154E-01  -9.403772E-02   0.000000E+00
  59    0.000000E+00   0.000000E+00   0.000000E+00   0.000000E+00   6.771441E-02
  60   -2.273779E-03  -1.501284E-02  -1.404257E-03  -4.000537E-04   0.000000E+00
   
             6              7              8              9             10
   6    1.589112E+01
   7   -8.588999E-02   4.722500E-01
   8    0.000000E+00   0.000000E+00   1.477728E+00
   9    0.000000E+00   0.000000E+00   0.000000E+00   1.477728E+00
  10    0.000000E+00   0.000000E+00   0.000000E+00   0.000000E+00   1.477728E+00
  11   -3.162617E-05  -8.429092E-03   2.181353E-03  -1.152866E-02   0.000000E+00
  12   -8.429092E-03   4.463798E-02  -2.735204E-02   1.445581E-01   0.000000E+00
  13   -2.181353E-03   2.735204E-02   5.994386E-02   6.907908E-02   0.000000E+00
  14    1.152866E-02  -1.445581E-01   6.907908E-02  -2.920750E-01   0.000000E+00
  15    0.000000E+00   0.000000E+00   0.000000E+00   0.000000E+00   7.301441E-02
  16    0.000000E+00  -2.040931E-03  -1.062469E-03  -3.113892E-03   0.000000E+00
  17   -2.040931E-03  -1.702577E-02  -3.636944E-03  -1.065919E-02   0.000000E+00
  18    1.062469E-03   3.636944E-03  -4.332645E-03  -1.039458E-03   0.000000E+00
  19    3.113892E-03   1.065919E-02  -1.039458E-03  -7.024432E-03   0.000000E+00
  20    0.000000E+00   0.000000E+00   0.000000E+00   0.000000E+00  -3.977978E-03
  21    0.000000E+00  -7.234393E-04  -1.141769E-03  -9.872974E-04   0.000000E+00
  22   -7.234393E-04  -1.172897E-02  -9.387328E-03  -8.117301E-03   0.000000E+00
  23    1.141769E-03   9.387328E-03   2.803842E-03   5.274015E-03   0.000000E+00
  24    9.872974E-04   8.117301E-03   5.274015E-03   1.265144E-03   0.000000E+00
  25    0.000000E+00   0.000000E+00   0.000000E+00   0.000000E+00  -3.295342E-03
  26   -1.078094E-02   1.043917E-01  -1.962267E-01  -1.651957E-01   0.000000E+00
  27   -2.301717E-03  -1.498051E-02   6.092547E-04  -8.125772E-04   0.000000E+00
  28   -2.636262E-05  -1.379145E-03  -1.570665E-03  -1.348019E-03   0.000000E+00
  29    0.000000E+00  -9.975298E-06  -3.908606E-06  -3.213750E-05   0.000000E+00
  30   -9.975298E-06  -1.602625E-03  -3.189120E-04  -2.622171E-03   0.000000E+00
  31    3.908606E-06   3.189120E-04  -3.916848E-04   5.300115E-04   0.000000E+00
  32    3.213750E-05   2.622171E-03   5.300115E-04   3.901736E-03   0.000000E+00
  33    0.000000E+00   0.000000E+00   0.000000E+00   0.000000E+00  -4.561455E-04
  34    0.000000E+00  -7.233115E-09  -8.604785E-09  -3.103793E-08   0.000000E+00
  35   -7.233115E-09  -4.659111E-05  -2.770894E-05  -9.994769E-05   0.000000E+00
  36    8.604785E-09   2.770894E-05   3.246685E-06   5.907187E-05   0.000000E+00
  37    3.103793E-08   9.994769E-05   5.907187E-05   1.999454E-04   0.000000E+00
  38    0.000000E+00   0.000000E+00   0.000000E+00   0.000000E+00  -1.313007E-05
  39   -4.121874E-08  -3.740951E-05  -3.497725E-05  -6.739440E-05   0.000000E+00
  40   -1.468071E-05  -9.934086E-04   2.348745E-04  -1.526387E-03   0.000000E+00
  41   -5.010242E-10  -3.562461E-06  -1.387342E-06  -8.197083E-06   0.000000E+00
  42    0.000000E+00  -1.550346E-03  -1.769381E-03   2.067090E-03   0.000000E+00
  43   -1.550346E-03  -1.566573E-02  -8.166301E-03   9.540333E-03   0.000000E+00
  44    1.769381E-03   8.166301E-03  -2.788088E-03  -1.396522E-03   0.000000E+00
  45   -2.067090E-03  -9.540333E-03  -1.396522E-03  -2.351982E-03   0.000000E+00
  46    0.000000E+00   0.000000E+00   0.000000E+00   0.000000E+00  -3.983478E-03
  47   -1.186551E-04  -3.227608E-03  -3.386712E-03   2.674820E-03   0.000000E+00
  48    0.000000E+00  -2.846170E-04  -1.773017E-04   6.624259E-04   0.000000E+00
  49   -2.846170E-04  -7.811668E-03  -2.532130E-03   9.460417E-03   0.000000E+00
  50    1.773017E-04   2.532130E-03  -1.482334E-03  -2.931910E-03   0.000000E+00
  51   -6.624259E-04  -9.460417E-03  -2.931910E-03   8.686981E-03   0.000000E+00
  52    0.000000E+00   0.000000E+00   0.000000E+00   0.000000E+00  -2.267075E-03
  53   -7.752468E-04  -9.434757E-03   9.217442E-04   8.954560E-03   0.000000E+00
  54   -9.130625E-06  -7.618455E-04  -3.320577E-04   1.169939E-03   0.000000E+00
  55    0.000000E+00  -2.189819E-03  -3.381340E-03  -6.559444E-04   0.000000E+00
  56   -2.189819E-03  -1.733771E-02  -1.052347E-02  -2.041442E-03   0.000000E+00
  57    3.381340E-03   1.052347E-02  -9.199565E-03  -1.022739E-03   0.000000E+00
  58    6.559444E-04   2.041442E-03  -1.022739E-03  -4.125831E-03   0.000000E+00
  59    0.000000E+00   0.000000E+00   0.000000E+00   0.000000E+00  -3.927430E-03
  60   -1.488559E-04  -3.673132E-03  -4.796589E-03  -1.503974E-04   0.000000E+00
   
            11             12             13             14             15
  11    1.589112E+01
  12   -8.588999E-02   4.722500E-01
  13    0.000000E+00   0.000000E+00   1.477728E+00
  14    0.000000E+00   0.000000E+00   0.000000E+00   1.477728E+00
  15    0.000000E+00   0.000000E+00   0.000000E+00   0.000000E+00   1.477728E+00
  16   -2.275743E-05  -8.408124E-03  -8.832387E-03  -7.971735E-03   0.000000E+00
  17   -8.408124E-03   4.066457E-02   1.037486E-01   9.363901E-02   0.000000E+00
  18    8.832387E-03  -1.037486E-01  -1.308496E-01  -1.792154E-01   0.000000E+00
  19    7.971735E-03  -9.363901E-02  -1.792154E-01  -9.403772E-02   0.000000E+00
  20    0.000000E+00   0.000000E+00   0.000000E+00   0.000000E+00   6.771441E-02
  21    0.000000E+00  -2.189819E-03  -3.381340E-03  -6.559444E-04   0.000000E+00
  22   -2.189819E-03  -1.733771E-02  -1.052347E-02  -2.041442E-03   0.000000E+00
  23    3.381340E-03   1.052347E-02  -9.199565E-03  -1.022739E-03   0.000000E+00
  24    6.559444E-04   2.041442E-03  -1.022739E-03  -4.125831E-03   0.000000E+00
  25    0.000000E+00   0.000000E+00   0.000000E+00   0.000000E+00  -3.927430E-03
  26   -2.310358E-03  -1.496872E-02   2.341552E-04   8.430496E-04   0.000000E+00
  27   -1.081408E-02   1.040565E-01  -2.420527E-01   8.294143E-02   0.000000E+00
  28   -1.468225E-04  -3.644405E-03  -4.483084E-03  -1.624757E-03   0.000000E+00
  29    0.000000E+00  -1.764065E-03  -8.542090E-04  -2.855903E-03   0.000000E+00
  30   -1.764065E-03  -1.632524E-02  -3.465029E-03  -1.158474E-02   0.000000E+00
  31    8.542090E-04   3.465029E-03  -3.993703E-03   6.273689E-05   0.000000E+00
  32    2.855903E-03   1.158474E-02   6.273689E-05  -3.802718E-03   0.000000E+00
  33    0.000000E+00   0.000000E+00   0.000000E+00   0.000000E+00  -4.012468E-03
  34    0.000000E+00  -1.172216E-05  -1.585518E-05  -3.414685E-05   0.000000E+00
  35   -1.172216E-05  -1.732401E-03  -1.191707E-03  -2.566545E-03   0.000000E+00
  36    1.585518E-05   1.191707E-03   3.392589E-04   1.794127E-03   0.000000E+00
  37    3.414685E-05   2.566545E-03   1.794127E-03   3.370165E-03   0.000000E+00
  38    0.000000E+00   0.000000E+00   0.000000E+00   0.000000E+00  -4.937964E-04
  39   -6.767651E-06  -6.445977E-04  -6.610293E-04  -8.100692E-04   0.000000E+00
  40   -1.129776E-03  -1.160840E-02   1.245906E-03  -9.202571E-03   0.000000E+00
  41   -1.018741E-06  -2.244688E-04  -1.074800E-04  -3.844270E-04   0.000000E+00
  42    0.000000E+00  -8.659697E-06  -1.422486E-05   2.453151E-05   0.000000E+00
  43   -8.659697E-06  -1.496805E-03  -1.247194E-03   2.150851E-03   0.000000E+00
  44    1.422486E-05   1.247194E-03   6.295811E-04  -1.819553E-03   0.000000E+00
  45   -2.453151E-05  -2.150851E-03  -1.819553E-03   2.712406E-03   0.000000E+00
  46    0.000000E+00   0.000000E+00   0.000000E+00   0.000000E+00  -4.255065E-04
  47   -1.005122E-06  -2.227922E-04  -2.563686E-04   3.023764E-04   0.000000E+00
  48    0.000000E+00  -2.337245E-07  -2.168200E-07   8.929809E-07   0.000000E+00
  49   -2.337245E-07  -2.575341E-04  -1.192220E-04   4.910201E-04   0.000000E+00
  50    2.168200E-07   1.192220E-04  -1.693165E-05  -2.273586E-04   0.000000E+00
  51   -8.929809E-07  -4.910201E-04  -2.273586E-04   8.642493E-04   0.000000E+00
  52    0.000000E+00   0.000000E+00   0.000000E+00   0.000000E+00  -7.213538E-05
  53   -8.080110E-06  -7.116013E-04   8.096121E-06   1.143413E-03   0.000000E+00
  54   -6.369203E-09  -1.320361E-05  -7.194295E-06   2.770865E-05   0.000000E+00
  55    0.000000E+00  -7.507414E-04  -1.470634E-03   5.070961E-04   0.000000E+00
  56   -7.507414E-04  -1.190962E-02  -1.180335E-02   4.069966E-03   0.000000E+00
  57    1.470634E-03   1.180335E-02   6.031011E-03  -3.230395E-03   0.000000E+00
  58   -5.070961E-04  -4.069966E-03  -3.230395E-03  -2.223599E-03   0.000000E+00
  59    0.000000E+00   0.000000E+00   0.000000E+00   0.000000E+00  -3.337487E-03
  60   -2.742832E-05  -1.410181E-03  -1.996142E-03   6.870869E-04   0.000000E+00
   
            16             17             18             19             20
  16    1.589112E+01
  17   -8.588999E-02   4.722500E-01
  18    0.000000E+00   0.000000E+00   1.477728E+00
  19    0.000000E+00   0.000000E+00   0.000000E+00   1.477728E+00
  20    0.000000E+00   0.000000E+00   0.000000E+00   0.000000E+00   1.477728E+00
  21   -2.324435E-05  -8.410080E-03  -1.116462E-02   4.095103E-03   0.000000E+00
  22   -8.410080E-03   4.091297E-02   1.316446E-01  -4.828629E-02   0.000000E+00
  23    1.116462E-02  -1.316446E-01  -2.505349E-01   1.168520E-01   0.000000E+00
  24   -4.095103E-03   4.828629E-02   1.168520E-01   2.518233E-02   0.000000E+00
  25    0.000000E+00   0.000000E+00   0.000000E+00   0.000000E+00   6.804279E-02
  26   -1.401404E-04  -3.548804E-03   2.211495E-03   4.108877E-03   0.000000E+00
  27   -2.273779E-03  -1.501284E-02   1.404257E-03   4.000537E-04   0.000000E+00
  28   -2.259031E-03  -1.502638E-02  -1.680016E-03  -1.680924E-04   0.000000E+00
  29   -6.386952E-06  -8.187842E-03   2.556118E-03  -1.116376E-02   0.000000E+00
  30   -8.187842E-03   2.741025E-02  -2.551746E-02   1.114466E-01   0.000000E+00
  31   -2.556118E-03   2.551746E-02   3.585480E-02   6.508491E-02   0.000000E+00
  32    1.116376E-02  -1.114466E-01   6.508491E-02  -2.334991E-01   0.000000E+00
  33    0.000000E+00   0.000000E+00   0.000000E+00   0.000000E+00   5.075702E-02
  34    0.000000E+00  -1.665848E-03  -6.077451E-04  -2.798604E-03   0.000000E+00
  35   -1.665848E-03  -1.603592E-02  -2.615755E-03  -1.204528E-02   0.000000E+00
  36    6.077451E-04   2.615755E-03  -3.940298E-03   2.997743E-04   0.000000E+00
  37    2.798604E-03   1.204528E-02   2.997743E-04  -2.624967E-03   0.000000E+00
  38    0.000000E+00   0.000000E+00   0.000000E+00   0.000000E+00  -4.005397E-03
  39   -7.650021E-04  -9.364443E-03  -5.131787E-03  -7.365879E-03   0.000000E+00
  40   -2.234892E-03  -1.504342E-02   1.320896E-03  -1.571057E-03   0.000000E+00
  41   -1.078676E-04  -3.057145E-03  -2.285064E-04  -4.118663E-03   0.000000E+00
  42    0.000000E+00  -4.527437E-07  -3.458876E-07   1.695349E-06   0.000000E+00
  43   -4.527437E-07  -3.560877E-04  -1.359196E-04   6.662020E-04   0.000000E+00
  44    3.458876E-07   1.359196E-04  -4.778406E-05  -2.549250E-04   0.000000E+00
  45   -1.695349E-06  -6.662020E-04  -2.549250E-04   1.149706E-03   0.000000E+00
  46    0.000000E+00   0.000000E+00   0.000000E+00   0.000000E+00  -9.979425E-05
  47   -2.759333E-07  -1.083649E-04  -8.115331E-05   1.871478E-04   0.000000E+00
  48    0.000000E+00  -6.283510E-10   0.000000E+00   2.966296E-09   0.000000E+00
  49   -6.283510E-10  -1.512271E-05   1.118673E-25   3.612161E-05   0.000000E+00
  50    0.000000E+00   1.118673E-25  -4.294560E-06  -5.592764E-25   0.000000E+00
  51   -2.966296E-09  -3.612161E-05   5.592764E-25   8.136173E-05   0.000000E+00
  52    0.000000E+00   0.000000E+00   0.000000E+00   0.000000E+00  -4.294560E-06
  53   -3.850635E-08  -3.600841E-05   1.510876E-05   7.169840E-05   0.000000E+00
  54    0.000000E+00  -7.191758E-07  -9.811315E-08   1.811700E-06   0.000000E+00
  55    0.000000E+00  -2.078326E-03  -2.162639E-03   2.531733E-03   0.000000E+00
  56   -2.078326E-03  -1.710820E-02  -7.230561E-03   8.464586E-03   0.000000E+00
  57    2.162639E-03   7.230561E-03  -5.618182E-03   1.932573E-03   0.000000E+00
  58   -2.531733E-03  -8.464586E-03   1.932573E-03  -6.229755E-03   0.000000E+00
  59    0.000000E+00   0.000000E+00   0.000000E+00   0.000000E+00  -3.967353E-03
  60   -1.413714E-04  -3.566558E-03  -3.580509E-03   3.021874E-03   0.000000E+00
   
            21             22             23             24             25
  21    1.589112E+01
  22   -8.588999E-02   4.722500E-01
  23    0.000000E+00   0.000000E+00   1.477728E+00
  24    0.000000E+00   0.000000E+00   0.000000E+00   1.477728E+00
  25    0.000000E+00   0.000000E+00   0.000000E+00   0.000000E+00   1.477728E+00
  26   -2.636262E-05  -1.379145E-03   1.570665E-03   1.348019E-03   0.000000E+00
  27   -1.488559E-04  -3.673132E-03   4.796589E-03   1.503974E-04   0.000000E+00
  28   -1.078094E-02   1.043917E-01   1.962267E-01   1.651957E-01   0.000000E+00
  29    0.000000E+00  -1.550346E-03   1.769381E-03  -2.067090E-03   0.000000E+00
  30   -1.550346E-03  -1.566573E-02   8.166301E-03  -9.540333E-03   0.000000E+00
  31   -1.769381E-03  -8.166301E-03  -2.788088E-03  -1.396522E-03   0.000000E+00
  32    2.067090E-03   9.540333E-03  -1.396522E-03  -2.351982E-03   0.000000E+00
  33    0.000000E+00   0.000000E+00   0.000000E+00   0.000000E+00  -3.983478E-03
  34    0.000000E+00  -2.846170E-04   1.773017E-04  -6.624259E-04   0.000000E+00
  35   -2.846170E-04  -7.811668E-03   2.532130E-03  -9.460417E-03   0.000000E+00
  36   -1.773017E-04  -2.532130E-03  -1.482334E-03  -2.931910E-03   0.000000E+00
  37    6.624259E-04   9.460417E-03  -2.931910E-03   8.686981E-03   0.000000E+00
  38    0.000000E+00   0.000000E+00   0.000000E+00   0.000000E+00  -2.267075E-03
  39   -7.752468E-04  -9.434757E-03  -9.217442E-04  -8.954560E-03   0.000000E+00
  40   -1.186551E-04  -3.227608E-03   3.386712E-03  -2.674820E-03   0.000000E+00
  41   -9.130625E-06  -7.618455E-04   3.320577E-04  -1.169939E-03   0.000000E+00
  42    0.000000E+00  -9.975298E-06   3.908606E-06   3.213750E-05   0.000000E+00
  43   -9.975298E-06  -1.602625E-03   3.189120E-04   2.622171E-03   0.000000E+00
  44   -3.908606E-06  -3.189120E-04  -3.916848E-04   5.300115E-04   0.000000E+00
  45   -3.213750E-05  -2.622171E-03   5.300115E-04   3.901736E-03   0.000000E+00
  46    0.000000E+00   0.000000E+00   0.000000E+00   0.000000E+00  -4.561455E-04
  47   -1.468071E-05  -9.934086E-04  -2.348745E-04   1.526387E-03   0.000000E+00
  48    0.000000E+00  -7.233115E-09   8.604785E-09   3.103793E-08   0.000000E+00
  49   -7.233115E-09  -4.659111E-05   2.770894E-05   9.994769E-05   0.000000E+00
  50   -8.604785E-09  -2.770894E-05   3.246685E-06   5.907187E-05   0.000000E+00
  51   -3.103793E-08  -9.994769E-05   5.907187E-05   1.999454E-04   0.000000E+00
  52    0.000000E+00   0.000000E+00   0.000000E+00   0.000000E+00  -1.313007E-05
  53   -4.121874E-08  -3.740951E-05   3.497725E-05   6.739440E-05   0.000000E+00
  54   -5.010242E-10  -3.562461E-06   1.387342E-06   8.197083E-06   0.000000E+00
  55   -3.162617E-05  -8.429092E-03  -2.181353E-03   1.152866E-02   0.000000E+00
  56   -8.429092E-03   4.463798E-02   2.735204E-02  -1.445581E-01   0.000000E+00
  57    2.181353E-03  -2.735204E-02   5.994386E-02   6.907908E-02   0.000000E+00
  58   -1.152866E-02   1.445581E-01   6.907908E-02  -2.920750E-01   0.000000E+00
  59    0.000000E+00   0.000000E+00   0.000000E+00   0.000000E+00   7.301441E-02
  60   -2.301717E-03  -1.498051E-02  -6.092547E-04   8.125772E-04   0.000000E+00
   
            26             27             28             29             30
  26    7.600319E-01
  27   -1.075698E-02   7.600319E-01
  28   -1.112373E-04  -5.625947E-04   7.600319E-01
  29   -8.604700E-07  -1.021999E-03  -8.425490E-04   1.589112E+01
  30   -2.043176E-04  -1.099724E-02  -9.885210E-03  -8.588999E-02   4.722500E-01
  31    1.017132E-04   6.056628E-03  -8.189843E-03   0.000000E+00   0.000000E+00
  32    3.516995E-04   7.073643E-03   4.056516E-03   0.000000E+00   0.000000E+00
  33    0.000000E+00   0.000000E+00   0.000000E+00   0.000000E+00   0.000000E+00
  34   -5.164489E-10  -1.504713E-05  -8.538286E-04  -7.848725E-05  -8.341937E-03
  35   -3.624710E-06  -1.007206E-03  -9.958822E-03  -8.341937E-03   5.695883E-02
  36    3.097020E-06   1.016516E-03  -5.361297E-03   6.626940E-03  -1.099704E-01
  37    7.863303E-06   1.188054E-03   7.425220E-03   7.756371E-03  -1.287127E-01
  38    0.000000E+00   0.000000E+00   0.000000E+00   0.000000E+00   0.000000E+00
  39   -2.377149E-06  -2.247264E-04  -1.138518E-02  -2.357262E-03  -1.488961E-02
  40   -2.313177E-04  -1.125248E-02  -1.538271E-03  -1.086853E-02   1.034971E-01
  41   -3.517324E-07  -2.365042E-04  -1.603092E-03  -2.392286E-03  -1.481364E-02
  42   -8.425490E-04  -6.752450E-07  -8.604700E-07   0.000000E+00   0.000000E+00
  43   -9.885210E-03  -1.785029E-04  -2.043176E-04   0.000000E+00  -1.558165E-06
  44    8.189843E-03   2.028973E-04  -1.017132E-04   0.000000E+00   8.630045E-07
  45   -4.056516E-03  -2.517388E-04  -3.516995E-04   0.000000E+00  -4.102402E-06
  46    0.000000E+00   0.000000E+00   0.000000E+00   0.000000E+00   0.000000E+00
  47   -1.538271E-03  -1.985434E-05  -2.313177E-04   0.000000E+00  -6.354385E-07
  48   -8.538286E-04  -7.335915E-08  -5.164489E-10   0.000000E+00   0.000000E+00
  49   -9.958822E-03  -5.167337E-05  -3.624710E-06   0.000000E+00  -2.285990E-08
  50    5.361297E-03   4.173948E-05  -3.097020E-06   0.000000E+00   3.582985E-09
  51   -7.425220E-03  -9.372885E-05  -7.863303E-06   0.000000E+00  -7.248348E-08
  52    0.000000E+00   0.000000E+00   0.000000E+00   0.000000E+00   0.000000E+00
  53   -1.138518E-02  -2.660358E-04  -2.377149E-06   0.000000E+00  -2.072293E-07
  54   -1.603092E-03  -2.719049E-06  -3.517324E-07   0.000000E+00  -8.531903E-10
  55   -1.468225E-04  -2.742832E-05  -2.310358E-03   0.000000E+00  -8.659697E-06
  56   -3.644405E-03  -1.410181E-03  -1.496872E-02  -8.659697E-06  -1.496805E-03
  57    4.483084E-03   1.996142E-03  -2.341552E-04   1.422486E-05   1.247194E-03
  58    1.624757E-03  -6.870869E-04  -8.430496E-04  -2.453151E-05  -2.150851E-03
  59    0.000000E+00   0.000000E+00   0.000000E+00   0.000000E+00   0.000000E+00
  60   -5.625947E-04  -1.139017E-04  -1.075698E-02  -6.752450E-07  -1.785029E-04
   
            31             32             33             34             35
  31    1.477728E+00
  32    0.000000E+00   1.477728E+00
  33    0.000000E+00   0.000000E+00   1.477728E+00
  34   -6.626940E-03  -7.756371E-03   0.000000E+00   1.589112E+01
  35    1.099704E-01   1.287127E-01   0.000000E+00  -8.588999E-02   4.722500E-01
  36   -9.222462E-02  -2.133903E-01   0.000000E+00   0.000000E+00   0.000000E+00
  37   -2.133903E-01  -1.596653E-01   0.000000E+00   0.000000E+00   0.000000E+00
  38    0.000000E+00   0.000000E+00   9.009316E-02   0.000000E+00   0.000000E+00
  39   -7.811725E-05  -3.477762E-05   0.000000E+00  -1.072827E-02   1.049170E-01
  40   -2.496586E-01   5.096298E-02   0.000000E+00  -2.442426E-03  -1.467944E-02
  41    1.322745E-04   5.151740E-04   0.000000E+00  -1.073604E-02   1.048401E-01
  42    0.000000E+00   0.000000E+00   0.000000E+00   0.000000E+00   0.000000E+00
  43   -8.630045E-07   4.102402E-06   0.000000E+00   0.000000E+00  -2.285990E-08
  44    2.542556E-08  -2.257630E-06   0.000000E+00   0.000000E+00   3.582985E-09
  45   -2.257630E-06   1.028243E-05   0.000000E+00   0.000000E+00  -7.248348E-08
  46    0.000000E+00   0.000000E+00  -4.495022E-07   0.000000E+00   0.000000E+00
  47   -5.772475E-07   1.505205E-06   0.000000E+00   0.000000E+00  -2.626805E-08
  48    0.000000E+00   0.000000E+00   0.000000E+00   0.000000E+00   0.000000E+00
  49   -3.582985E-09   7.248348E-08   0.000000E+00   0.000000E+00   0.000000E+00
  50   -6.176395E-09  -1.131468E-08   0.000000E+00   0.000000E+00   0.000000E+00
  51   -1.131468E-08   2.221593E-07   0.000000E+00   0.000000E+00   0.000000E+00
  52    0.000000E+00   0.000000E+00  -6.735700E-09   0.000000E+00   0.000000E+00
  53    6.228538E-08   5.480543E-07   0.000000E+00   0.000000E+00  -9.803792E-10
  54   -2.362765E-10   2.720190E-09   0.000000E+00   0.000000E+00   0.000000E+00
  55   -1.422486E-05   2.453151E-05   0.000000E+00   0.000000E+00  -2.337245E-07
  56   -1.247194E-03   2.150851E-03   0.000000E+00  -2.337245E-07  -2.575341E-04
  57    6.295811E-04  -1.819553E-03   0.000000E+00   2.168200E-07   1.192220E-04
  58   -1.819553E-03   2.712406E-03   0.000000E+00  -8.929809E-07  -4.910201E-04
  59    0.000000E+00   0.000000E+00  -4.255065E-04   0.000000E+00   0.000000E+00
  60   -2.028973E-04   2.517388E-04   0.000000E+00  -7.335915E-08  -5.167337E-05
   
            36             37             38             39             40
  36    1.477728E+00
  37    0.000000E+00   1.477728E+00
  38    0.000000E+00   0.000000E+00   1.477728E+00
  39    2.550785E-01  -3.522749E-02   0.000000E+00   7.600319E-01
  40   -1.346040E-03  -5.531725E-04   0.000000E+00  -5.755727E-03   7.600319E-01
  41   -8.064350E-02   2.443925E-01   0.000000E+00  -7.731946E-03  -1.096012E-02
  42    0.000000E+00   0.000000E+00   0.000000E+00   0.000000E+00   0.000000E+00
  43   -3.582985E-09   7.248348E-08   0.000000E+00  -2.072293E-07  -6.354385E-07
  44   -6.176395E-09  -1.131468E-08   0.000000E+00  -6.228538E-08   5.772475E-07
  45   -1.131468E-08   2.221593E-07   0.000000E+00  -5.480543E-07  -1.505205E-06
  46    0.000000E+00   0.000000E+00  -6.735700E-09   0.000000E+00   0.000000E+00
  47   -1.497255E-08   7.401302E-08   0.000000E+00  -3.154651E-07  -1.475772E-07
  48    0.000000E+00   0.000000E+00   0.000000E+00   0.000000E+00   0.000000E+00
  49    0.000000E+00   0.000000E+00   0.000000E+00  -9.803792E-10  -2.626805E-08
  50    0.000000E+00   0.000000E+00   0.000000E+00  -6.505398E-10   1.497255E-08
  51    0.000000E+00   0.000000E+00   0.000000E+00  -3.056786E-09  -7.401302E-08
  52    0.000000E+00   0.000000E+00   0.000000E+00   0.000000E+00   0.000000E+00
  53    6.505398E-10   3.056786E-09   0.000000E+00  -2.973516E-09  -3.154651E-07
  54    0.000000E+00   0.000000E+00   0.000000E+00   0.000000E+00  -9.258470E-10
  55   -2.168200E-07   8.929809E-07   0.000000E+00  -8.080110E-06  -1.005122E-06
  56   -1.192220E-04   4.910201E-04   0.000000E+00  -7.116013E-04  -2.227922E-04
  57   -1.693165E-05  -2.273586E-04   0.000000E+00  -8.096121E-06   2.563686E-04
  58   -2.273586E-04   8.642493E-04   0.000000E+00  -1.143413E-03  -3.023764E-04
  59    0.000000E+00   0.000000E+00  -7.213538E-05   0.000000E+00   0.000000E+00
  60   -4.173948E-05   9.372885E-05   0.000000E+00  -2.660358E-04  -1.985434E-05
   
            41             42             43             44             45
  41    7.600319E-01
  42    0.000000E+00   1.589112E+01
  43   -8.531903E-10  -8.588999E-02   4.722500E-01
  44    2.362765E-10   0.000000E+00   0.000000E+00   1.477728E+00
  45   -2.720190E-09   0.000000E+00   0.000000E+00   0.000000E+00   1.477728E+00
  46    0.000000E+00   0.000000E+00   0.000000E+00   0.000000E+00   0.000000E+00
  47   -9.258470E-10  -1.086853E-02   1.034971E-01   2.496586E-01  -5.096298E-02
  48    0.000000E+00  -7.848725E-05  -8.341937E-03   6.626940E-03   7.756371E-03
  49    0.000000E+00  -8.341937E-03   5.695883E-02  -1.099704E-01  -1.287127E-01
  50    0.000000E+00  -6.626940E-03   1.099704E-01  -9.222462E-02  -2.133903E-01
  51    0.000000E+00  -7.756371E-03   1.287127E-01  -2.133903E-01  -1.596653E-01
  52    0.000000E+00   0.000000E+00   0.000000E+00   0.000000E+00   0.000000E+00
  53    0.000000E+00  -2.357262E-03  -1.488961E-02   7.811725E-05   3.477762E-05
  54    0.000000E+00  -2.392286E-03  -1.481364E-02  -1.322745E-04  -5.151740E-04
  55   -6.369203E-09   0.000000E+00  -1.764065E-03  -8.542090E-04  -2.855903E-03
  56   -1.320361E-05  -1.764065E-03  -1.632524E-02  -3.465029E-03  -1.158474E-02
  57    7.194295E-06   8.542090E-04   3.465029E-03  -3.993703E-03   6.273689E-05
  58   -2.770865E-05   2.855903E-03   1.158474E-02   6.273689E-05  -3.802718E-03
  59    0.000000E+00   0.000000E+00   0.000000E+00   0.000000E+00   0.000000E+00
  60   -2.719049E-06  -1.021999E-03  -1.099724E-02  -6.056628E-03  -7.073643E-03
   
            46             47             48             49             50
  46    1.477728E+00
  47    0.000000E+00   7.600319E-01
  48    0.000000E+00  -2.442426E-03   1.589112E+01
  49    0.000000E+00  -1.467944E-02  -8.588999E-02   4.722500E-01
  50    0.000000E+00   1.346040E-03   0.000000E+00   0.000000E+00   1.477728E+00
  51    0.000000E+00   5.531725E-04   0.000000E+00   0.000000E+00   0.000000E+00
  52    9.009316E-02   0.000000E+00   0.000000E+00   0.000000E+00   0.000000E+00
  53    0.000000E+00  -5.755727E-03  -1.072827E-02   1.049170E-01  -2.550785E-01
  54    0.000000E+00  -1.096012E-02  -1.073604E-02   1.048401E-01   8.064350E-02
  55    0.000000E+00  -1.129776E-03   0.000000E+00  -1.172216E-05  -1.585518E-05
  56    0.000000E+00  -1.160840E-02  -1.172216E-05  -1.732401E-03  -1.191707E-03
  57    0.000000E+00  -1.245906E-03   1.585518E-05   1.191707E-03   3.392589E-04
  58    0.000000E+00   9.202571E-03   3.414685E-05   2.566545E-03   1.794127E-03
  59   -4.012468E-03   0.000000E+00   0.000000E+00   0.000000E+00   0.000000E+00
  60    0.000000E+00  -1.125248E-02  -1.504713E-05  -1.007206E-03  -1.016516E-03
   
            51             52             53             54             55
  51    1.477728E+00
  52    0.000000E+00   1.477728E+00
  53    3.522749E-02   0.000000E+00   7.600319E-01
  54   -2.443925E-01   0.000000E+00  -7.731946E-03   7.600319E-01
  55   -3.414685E-05   0.000000E+00  -6.767651E-06  -1.018741E-06   1.589112E+01
  56   -2.566545E-03   0.000000E+00  -6.445977E-04  -2.244688E-04  -8.588999E-02
  57    1.794127E-03   0.000000E+00   6.610293E-04   1.074800E-04   0.000000E+00
  58    3.370165E-03   0.000000E+00   8.100692E-04   3.844270E-04   0.000000E+00
  59    0.000000E+00  -4.937964E-04   0.000000E+00   0.000000E+00   0.000000E+00
  60   -1.188054E-03   0.000000E+00  -2.247264E-04  -2.365042E-04  -1.081408E-02
   
            56             57             58             59             60
  56    4.722500E-01
  57    0.000000E+00   1.477728E+00
  58    0.000000E+00   0.000000E+00   1.477728E+00
  59    0.000000E+00   0.000000E+00   0.000000E+00   1.477728E+00
  60    1.040565E-01   2.420527E-01  -8.294143E-02   0.000000E+00   7.600319E-01
   
   
  KE+NAI+PT.
   
             1              2              3              4              5
   1   -3.227290E+01
   2   -7.882176E+00  -1.919537E+01
   3    1.402003E-02   1.622772E-01  -1.832819E+01
   4   -4.718560E-02  -5.416741E-01   2.015465E-02  -1.851290E+01
   5    0.000000E+00   0.000000E+00   0.000000E+00   0.000000E+00  -1.758788E+01
   6   -3.533041E-05  -1.115526E+00   1.735579E+00  -6.391799E-01   0.000000E+00
   7   -1.139850E+00  -6.777626E+00   6.714334E+00  -2.660700E+00   0.000000E+00
   8   -1.774820E+00  -6.966288E+00   5.088646E+00  -3.395820E+00   0.000000E+00
   9    6.495343E-01   2.333879E+00  -2.977277E+00  -2.549797E+00   0.000000E+00
  10    0.000000E+00   0.000000E+00   0.000000E+00   0.000000E+00  -3.546855E+00
  11    0.000000E+00  -5.015459E-02   7.588738E-02  -8.894865E-02   0.000000E+00
  12   -5.135405E-02  -1.093316E+00   1.052650E+00  -1.225565E+00   0.000000E+00
  13   -7.781178E-02  -1.052826E+00   6.722369E-01  -1.295399E+00   0.000000E+00
  14    9.105428E-02   1.236779E+00  -1.307393E+00   1.077042E+00   0.000000E+00
  15    0.000000E+00   0.000000E+00   0.000000E+00   0.000000E+00  -4.048456E-01
  16    0.000000E+00  -9.664695E-03   4.935402E-03  -2.583028E-02   0.000000E+00
  17   -9.664695E-03  -4.197274E-01   1.282485E-01  -6.707980E-01   0.000000E+00
  18   -4.935402E-03  -1.282485E-01  -1.201444E-01  -2.205622E-01   0.000000E+00
  19    2.583028E-02   6.707980E-01  -2.205622E-01   9.904331E-01   0.000000E+00
  20    0.000000E+00   0.000000E+00   0.000000E+00   0.000000E+00  -1.439871E-01
  21    0.000000E+00  -4.897877E-02  -3.691191E-02  -1.084020E-01   0.000000E+00
  22   -4.998819E-02  -1.075184E+00  -5.164225E-01  -1.506275E+00   0.000000E+00
  23    3.778858E-02   5.153672E-01  -1.612079E-01   7.924961E-01   0.000000E+00
  24    1.106483E-01   1.514027E+00   7.990461E-01   1.890924E+00   0.000000E+00
  25    0.000000E+00   0.000000E+00   0.000000E+00   0.000000E+00  -3.974831E-01
  26   -1.609786E-01  -1.639648E+00   2.056376E+00   1.233761E-01   0.000000E+00
  27   -2.595334E-03  -1.136350E-01   1.422504E-01  -1.222979E-01   0.000000E+00
  28   -2.566253E-03  -1.126794E-01  -8.652551E-02  -1.649488E-01   0.000000E+00
  29    0.000000E+00  -2.604075E-06   2.141214E-06  -1.050628E-05   0.000000E+00
  30   -2.784998E-06  -5.260681E-03   2.312458E-03  -1.136682E-02   0.000000E+00
  31   -2.293488E-06  -2.309806E-03  -6.286512E-04  -5.065944E-03   0.000000E+00
  32    1.124262E-05   1.128419E-02  -5.034017E-03   2.305849E-02   0.000000E+00
  33    0.000000E+00   0.000000E+00   0.000000E+00   0.000000E+00  -1.475337E-03
  34    0.000000E+00  -6.283510E-10   0.000000E+00  -2.966296E-09   0.000000E+00
  35   -6.283510E-10  -1.475510E-04   2.195638E-06  -3.847632E-04   0.000000E+00
  36    0.000000E+00   2.223822E-06  -4.502551E-05   7.166011E-06   0.000000E+00
  37    2.966296E-09   3.898318E-04  -4.567936E-06   9.752679E-04   0.000000E+00
  38    0.000000E+00   0.000000E+00   0.000000E+00   0.000000E+00  -4.018876E-05
  39   -2.616664E-07  -4.657368E-04  -2.092914E-04  -1.030492E-03   0.000000E+00
  40   -2.248755E-06  -1.646999E-03   1.389154E-03  -3.228707E-03   0.000000E+00
  41    0.000000E+00  -6.374750E-06   1.019040E-06  -1.715488E-05   0.000000E+00
  42   -9.140096E-06  -8.794710E-01  -3.262707E-01   1.429241E+00   0.000000E+00
  43   -9.412698E-01  -5.719163E+00  -1.337706E+00   6.017024E+00   0.000000E+00
  44    3.504090E-01   1.500413E+00  -2.536203E+00  -1.958756E+00   0.000000E+00
  45   -1.529936E+00  -6.295702E+00  -1.852346E+00   5.203574E+00   0.000000E+00
  46    0.000000E+00   0.000000E+00   0.000000E+00   0.000000E+00  -2.896832E+00
  47   -1.563614E-01  -1.528353E+00  -1.189819E+00   1.482718E+00   0.000000E+00
  48    0.000000E+00  -3.266170E-02   1.666515E-02   7.684805E-02   0.000000E+00
  49   -3.707611E-02  -8.098512E-01   2.341469E-01   1.182829E+00   0.000000E+00
  50   -1.896640E-02  -2.890236E-01  -2.201739E-01   4.588152E-01   0.000000E+00
  51   -8.741728E-02  -1.209469E+00   3.858997E-01   1.603777E+00   0.000000E+00
  52    0.000000E+00   0.000000E+00   0.000000E+00   0.000000E+00  -2.933044E-01
  53   -2.345160E-02  -4.027787E-01   3.233034E-01   4.789414E-01   0.000000E+00
  54   -1.851845E-03  -8.247858E-02   6.756851E-03   1.366587E-01   0.000000E+00
  55   -3.450441E-05  -1.108073E+00  -1.362119E+00  -1.232967E+00   0.000000E+00
  56   -1.135766E+00  -6.730139E+00  -5.176317E+00  -4.954715E+00   0.000000E+00
  57    1.399085E+00   5.577261E+00   1.808834E+00   5.137297E+00   0.000000E+00
  58    1.260682E+00   4.719801E+00   4.666344E+00   7.200539E-01   0.000000E+00
  59    0.000000E+00   0.000000E+00   0.000000E+00   0.000000E+00  -3.519913E+00
  60   -1.634153E-01  -1.637177E+00  -1.942365E+00  -6.474725E-01   0.000000E+00
   
             6              7              8              9             10
   6   -3.151892E+01
   7   -7.694916E+00  -1.843476E+01
   8   -8.911856E-02  -1.040800E+00  -1.755551E+01
   9   -5.043679E-02  -5.859758E-01   1.368429E-01  -1.769692E+01
  10    0.000000E+00   0.000000E+00   0.000000E+00   0.000000E+00  -1.689921E+01
  11   -4.820011E-05  -1.161725E+00   3.546026E-01  -1.892177E+00   0.000000E+00
  12   -1.165338E+00  -6.767959E+00   1.015559E+00  -7.138340E+00   0.000000E+00
  13   -3.622502E-01  -1.667208E+00  -3.354271E+00  -2.134216E+00   0.000000E+00
  14    1.896835E+00   7.032926E+00  -1.437720E+00   5.733511E+00   0.000000E+00
  15    0.000000E+00   0.000000E+00   0.000000E+00   0.000000E+00  -3.572286E+00
  16    0.000000E+00  -4.998819E-02  -3.778858E-02  -1.106483E-01   0.000000E+00
  17   -4.897877E-02  -1.075184E+00  -5.153672E-01  -1.514027E+00   0.000000E+00
  18    3.691191E-02   5.164225E-01  -1.612079E-01   7.990461E-01   0.000000E+00
  19    1.084020E-01   1.506275E+00   7.924961E-01   1.890924E+00   0.000000E+00
  20    0.000000E+00   0.000000E+00   0.000000E+00   0.000000E+00  -3.974831E-01
  21    0.000000E+00  -1.206161E-02  -2.433073E-02  -2.104590E-02   0.000000E+00
  22   -1.206161E-02  -4.796546E-01  -5.832055E-01  -5.039399E-01   0.000000E+00
  23    2.433073E-02   5.832055E-01   5.785606E-01   6.619461E-01   0.000000E+00
  24    2.104590E-02   5.039399E-01   6.619461E-01   3.825056E-01   0.000000E+00
  25    0.000000E+00   0.000000E+00   0.000000E+00   0.000000E+00  -1.661822E-01
  26   -1.894016E+00  -7.907571E+00   5.109364E+00   4.451623E+00   0.000000E+00
  27   -1.642262E-01  -1.616804E+00   1.109146E+00  -1.700212E+00   0.000000E+00
  28   -3.497873E-04  -3.379815E-02  -4.612339E-02  -3.965261E-02   0.000000E+00
  29    0.000000E+00  -7.614441E-05  -3.328620E-05  -2.726065E-04   0.000000E+00
  30   -8.010209E-05  -3.097178E-02  -8.202502E-03  -6.020989E-02   0.000000E+00
  31    3.475047E-05   6.444565E-03  -7.999202E-03   1.258358E-02   0.000000E+00
  32    2.868673E-04   6.103956E-02   1.622290E-02   1.122578E-01   0.000000E+00
  33    0.000000E+00   0.000000E+00   0.000000E+00   0.000000E+00  -8.941458E-03
  34    0.000000E+00  -2.417119E-08  -2.990452E-08  -1.079666E-07   0.000000E+00
  35   -2.679897E-08  -5.113690E-04  -3.458711E-04  -1.211299E-03   0.000000E+00
  36    3.319362E-08   3.316252E-04   7.681846E-05   7.889249E-04   0.000000E+00
  37    1.198764E-07   1.232241E-03   8.364757E-04   2.776995E-03   0.000000E+00
  38    0.000000E+00   0.000000E+00   0.000000E+00   0.000000E+00  -1.389556E-04
  39   -2.766279E-07  -4.948673E-04  -5.146169E-04  -9.927133E-04   0.000000E+00
  40   -1.777861E-04  -2.107453E-02   4.690946E-03  -3.795231E-02   0.000000E+00
  41   -5.010242E-10  -3.499770E-05  -1.599520E-05  -8.681831E-05   0.000000E+00
  42    0.000000E+00  -3.148923E-02  -4.983300E-02   5.820997E-02   0.000000E+00
  43   -3.294580E-02  -8.027769E-01  -8.253677E-01   8.917251E-01   0.000000E+00
  44    5.210951E-02   7.651487E-01   5.474164E-01  -9.308375E-01   0.000000E+00
  45   -6.100309E-02  -9.597910E-01  -1.066496E+00   8.420864E-01   0.000000E+00
  46    0.000000E+00   0.000000E+00   0.000000E+00   0.000000E+00  -2.902063E-01
  47   -2.047752E-03  -9.635933E-02  -1.281843E-01   9.654827E-02   0.000000E+00
  48    0.000000E+00  -3.369381E-03  -2.542596E-03   9.471867E-03   0.000000E+00
  49   -3.738340E-03  -2.102047E-01  -1.041706E-01   3.380251E-01   0.000000E+00
  50    2.808013E-03   8.053195E-02  -3.372401E-02  -1.384508E-01   0.000000E+00
  51   -1.052865E-02  -3.515383E-01  -1.834382E-01   5.226391E-01   0.000000E+00
  52    0.000000E+00   0.000000E+00   0.000000E+00   0.000000E+00  -7.044454E-02
  53   -2.328798E-02  -3.754584E-01   3.226092E-02   5.360241E-01   0.000000E+00
  54   -1.030024E-04  -1.353199E-02  -7.746124E-03   2.408243E-02   0.000000E+00
  55    0.000000E+00  -5.423878E-02  -1.230775E-01  -2.391998E-02   0.000000E+00
  56   -5.441444E-02  -1.149602E+00  -1.664838E+00  -3.093775E-01   0.000000E+00
  57    1.234956E-01   1.661390E+00   2.180967E+00   4.945670E-01   0.000000E+00
  58    2.392149E-02   3.354535E-01   5.335272E-01  -3.736449E-01   0.000000E+00
  59    0.000000E+00   0.000000E+00   0.000000E+00   0.000000E+00  -4.275293E-01
  60   -2.713198E-03  -1.201746E-01  -1.981139E-01  -6.303865E-03   0.000000E+00
   
            11             12             13             14             15
  11   -3.141017E+01
  12   -7.667905E+00  -1.832617E+01
  13   -1.050053E-01  -1.225303E+00  -1.737114E+01
  14    2.023368E-02   2.335104E-01  -7.013796E-02  -1.765967E+01
[...]
   6   -9.178481E-06   0.000000E+00   0.000000E+00   0.000000E+00  -1.860834E-04
   
            61             62             63             64             65
   1    0.000000E+00   0.000000E+00   0.000000E+00   0.000000E+00   0.000000E+00
   2    0.000000E+00   0.000000E+00   0.000000E+00   0.000000E+00   0.000000E+00
   3    0.000000E+00   0.000000E+00   0.000000E+00   0.000000E+00   0.000000E+00
   4    1.970741E-07   6.649985E-06   4.332126E-06  -1.315163E-05   0.000000E+00
   5   -4.425433E-07  -1.493300E-05  -1.315163E-05   2.800831E-05   0.000000E+00
   6    0.000000E+00   0.000000E+00   0.000000E+00   0.000000E+00  -1.524581E-06
   
            66             67             68             69             70
   1    6.921941E-07   1.390308E-06  -3.954659E-06   0.000000E+00   0.000000E+00
   2   -1.554369E-06  -3.954659E-06   8.509669E-06   0.000000E+00   0.000000E+00
   3    0.000000E+00   0.000000E+00   0.000000E+00  -3.707872E-07   0.000000E+00
   4    1.068047E-04   8.881619E-05  -3.279163E-04   0.000000E+00   2.176160E-05
   5   -2.398371E-04  -3.279163E-04   6.791463E-04   0.000000E+00  -9.818488E-05
   6    0.000000E+00   0.000000E+00   0.000000E+00  -5.721199E-05   0.000000E+00
   
            71             72             73             74             75
   1    2.176160E-05   0.000000E+00   1.286277E-06   0.000000E+00   2.997841E-08
   2   -9.818488E-05   0.000000E+00  -1.240662E-06   0.000000E+00  -7.063308E-08
   3    0.000000E+00   0.000000E+00   0.000000E+00   0.000000E+00   0.000000E+00
   4    3.119336E-04   1.286277E-06   1.113016E-04   2.997841E-08   9.605793E-06
   5   -1.407394E-03  -1.240662E-06  -1.073546E-04  -7.063308E-08  -2.263251E-05
   6    0.000000E+00   0.000000E+00   0.000000E+00   0.000000E+00   0.000000E+00
   
            76             77             78             79             80
   1    1.026010E-05   1.640658E-03   2.217000E-03   3.101917E-03   0.000000E+00
   2    1.198296E-05   1.916154E-03   3.101917E-03   3.183846E-03   0.000000E+00
   3    0.000000E+00   0.000000E+00   0.000000E+00   0.000000E+00  -4.389383E-04
   4    1.589292E-03   5.404697E-03  -1.386124E-03   4.206781E-04   0.000000E+00
   5    1.856163E-03   6.312241E-03   4.206781E-04  -1.255001E-03   0.000000E+00
   6    0.000000E+00   0.000000E+00   0.000000E+00   0.000000E+00  -1.746319E-03
   
            81             82             83             84             85
   1    6.619602E-03   3.084719E-03   8.530080E-03   0.000000E+00   2.517717E-03
   2    7.731151E-03   8.530080E-03   5.743487E-03   0.000000E+00   8.394642E-03
   3    0.000000E+00   0.000000E+00   0.000000E+00  -4.218945E-03   0.000000E+00
   4    1.213534E-04  -1.318705E-02  -1.531106E-02   0.000000E+00   9.569602E-04
   5    1.417308E-04  -1.531106E-02  -1.795940E-02   0.000000E+00   3.190724E-03
   6    0.000000E+00   0.000000E+00   0.000000E+00  -7.734352E-05   0.000000E+00
   
            86             87             88             89             90
   1    9.569602E-04   0.000000E+00   1.716084E-07   4.321269E-07   5.406330E-07
   2    3.190724E-03   0.000000E+00   2.005675E-07   5.406330E-07   6.014187E-07
   3    0.000000E+00   0.000000E+00   0.000000E+00   0.000000E+00   0.000000E+00
   4   -5.334384E-03   4.802016E-05   5.684817E-04   4.866123E-04   6.949709E-04
   5   -1.778606E-02   5.612360E-05   6.644133E-04   6.949709E-04   7.042329E-04
   6    0.000000E+00   0.000000E+00   0.000000E+00   0.000000E+00   0.000000E+00
   
            91             92             93             94             95
   1    0.000000E+00   1.790321E-04   4.593786E-04   6.260522E-04   0.000000E+00
   2    0.000000E+00   2.092439E-04   6.260522E-04   6.554182E-04   0.000000E+00
   3   -3.044648E-08   0.000000E+00   0.000000E+00   0.000000E+00  -7.628071E-05
   4    0.000000E+00   2.035841E-03   1.938395E-03   3.279294E-03   0.000000E+00
   5    0.000000E+00   2.379391E-03   3.279294E-03   2.965260E-03   0.000000E+00
   6   -1.080148E-04   0.000000E+00   0.000000E+00   0.000000E+00  -8.674165E-04
   
            96             97             98             99            100
   1    0.000000E+00   6.120540E-05   0.000000E+00   4.090566E-05  -1.245280E-03
   2    0.000000E+00   4.818931E-05   0.000000E+00   7.356706E-05   4.267058E-04
   3    0.000000E+00   0.000000E+00   0.000000E+00   0.000000E+00   0.000000E+00
   4    6.120540E-05   9.910205E-04   4.090566E-05   6.384098E-04  -3.374666E-02
   5    4.818931E-05   7.802677E-04   7.356706E-05   1.148152E-03   1.156358E-02
   6    0.000000E+00   0.000000E+00   0.000000E+00   0.000000E+00   0.000000E+00
   
           101            102            103            104            105
   1   -2.185143E-01  -4.875469E-01   2.016160E-01   0.000000E+00  -1.463780E-01
   2    7.487579E-02   2.016160E-01   3.175519E-02   0.000000E+00   5.015766E-02
   3    0.000000E+00   0.000000E+00   0.000000E+00   1.008406E-01   0.000000E+00
   4   -1.130397E-01  -3.767536E-02   3.411443E-02   0.000000E+00  -9.840574E-02
   5    3.873402E-02   3.411443E-02   5.019315E-02   0.000000E+00   3.371956E-02
   6    0.000000E+00   0.000000E+00   0.000000E+00   6.188275E-02   0.000000E+00
   
           106            107            108            109            110
   1   -1.656480E-01   1.109261E-01   0.000000E+00   0.000000E+00   0.000000E+00
   2    1.109261E-01   1.200642E-01   0.000000E+00   0.000000E+00   0.000000E+00
   3    0.000000E+00   0.000000E+00   1.580739E-01   0.000000E+00   0.000000E+00
   4   -1.011726E-02   3.988060E-02   0.000000E+00   0.000000E+00   0.000000E+00
   5    3.988060E-02   9.260316E-02   0.000000E+00   0.000000E+00   0.000000E+00
   6    0.000000E+00   0.000000E+00   1.062686E-01   0.000000E+00   0.000000E+00
   
   
  olap-der  
   
             1              2              3              4              5
   1   -1.424732E-04  -1.003931E-02  -2.115603E-02  -6.675295E-03   0.000000E+00
   2   -4.058868E-05  -2.860062E-03  -6.675295E-03   3.736903E-04   0.000000E+00
   3    0.000000E+00   0.000000E+00   0.000000E+00   0.000000E+00   2.275391E-03
   4   -1.478232E-02  -8.322985E-02  -6.913147E-02  -2.570646E-02   0.000000E+00
   5   -4.211282E-03  -2.371106E-02  -2.570646E-02   1.377918E-02   0.000000E+00
   6    0.000000E+00   0.000000E+00   0.000000E+00   0.000000E+00   2.110260E-02
   
             6              7              8              9             10
   1   -5.940040E-02  -1.345819E-01  -4.740536E-02   0.000000E+00   0.000000E+00
   2   -1.692237E-02  -4.740536E-02   1.831384E-02   0.000000E+00   0.000000E+00
   3    0.000000E+00   0.000000E+00   0.000000E+00   3.181898E-02   0.000000E+00
   4   -1.473068E-01  -1.585206E-01  -6.764012E-02   0.000000E+00  -4.058816E-04
   5   -4.196570E-02  -6.764012E-02   5.963798E-02   0.000000E+00  -1.272645E-05
   6    0.000000E+00   0.000000E+00   0.000000E+00   7.890774E-02   0.000000E+00
   
            11             12             13             14             15
   1   -4.609160E-06  -1.658325E-05  -5.396649E-07   0.000000E+00  -1.521944E-03
   2   -1.445206E-07  -5.396649E-07   6.112300E-07   0.000000E+00  -4.772068E-05
   3    0.000000E+00   0.000000E+00   0.000000E+00   6.281512E-07   0.000000E+00
   4   -4.747411E-03  -7.221808E-03  -2.481732E-04   0.000000E+00  -2.170031E-02
   5   -1.488555E-04  -2.481732E-04   6.853386E-04   0.000000E+00  -6.804148E-04
   6    0.000000E+00   0.000000E+00   0.000000E+00   6.931201E-04   0.000000E+00
   
            16             17             18             19             20
   1   -6.400479E-03  -2.163051E-04   0.000000E+00   0.000000E+00  -8.836482E-08
   2   -2.163051E-04   4.913057E-04   0.000000E+00   0.000000E+00   3.041582E-08
   3    0.000000E+00   0.000000E+00   4.980880E-04   0.000000E+00   0.000000E+00
   4   -5.014677E-02  -1.795036E-03   0.000000E+00  -5.851376E-05  -9.715869E-04
   5   -1.795036E-03   7.045595E-03   0.000000E+00   2.014087E-05   3.344273E-04
   6    0.000000E+00   0.000000E+00   7.101879E-03   0.000000E+00   0.000000E+00
   
            21             22             23             24             25
   1   -3.438333E-07   1.222021E-07   0.000000E+00  -2.144044E-04  -9.778887E-04
   2    1.222021E-07  -3.087146E-08   0.000000E+00   7.379957E-05   3.590428E-04
   3    0.000000E+00   0.000000E+00   1.119141E-08   0.000000E+00   0.000000E+00
   4   -1.580649E-03   5.886377E-04   0.000000E+00  -7.139525E-03  -1.809531E-02
   5    5.886377E-04  -7.313670E-05   0.000000E+00   2.457477E-03   6.975986E-03
   6    0.000000E+00   0.000000E+00   1.294767E-04   0.000000E+00   0.000000E+00
   
            26             27             28             29             30
   1    3.590428E-04   0.000000E+00   0.000000E+00  -3.118408E-06  -8.391062E-06
   2   -5.837363E-05   0.000000E+00   0.000000E+00   2.631870E-06   7.548842E-06
   3    0.000000E+00   6.521152E-05   0.000000E+00   0.000000E+00   0.000000E+00
   4    6.975986E-03   0.000000E+00  -2.926247E-04  -3.460959E-03  -3.771625E-03
   5   -2.296851E-04   0.000000E+00   2.469691E-04   2.920977E-03   3.738016E-03
   6    0.000000E+00   2.171501E-03   0.000000E+00   0.000000E+00   0.000000E+00
   
            31             32             33             34             35
   1    7.548842E-06   0.000000E+00  -1.096390E-03  -3.349708E-03   3.221341E-03
   2   -5.817777E-06   0.000000E+00   9.253297E-04   3.221341E-03  -2.251602E-03
   3    0.000000E+00   5.532867E-07   0.000000E+00   0.000000E+00   0.000000E+00
   4    3.738016E-03   0.000000E+00  -1.605739E-02  -2.569692E-02   2.746184E-02
   5   -2.497392E-03   0.000000E+00   1.355210E-02   2.746184E-02  -1.633560E-02
   6    0.000000E+00   6.574150E-04   0.000000E+00   0.000000E+00   0.000000E+00
   
            36             37             38             39             40
   1    0.000000E+00  -9.741766E-05  -6.603127E-03  -7.156442E-03   1.276356E-02
   2    0.000000E+00   1.299282E-04   8.806745E-03   1.276356E-02  -1.460963E-02
   3    4.671417E-04   0.000000E+00   0.000000E+00   0.000000E+00   0.000000E+00
   4    0.000000E+00  -9.443681E-03  -5.288781E-02  -1.397210E-02   4.747665E-02
   5    0.000000E+00   1.259526E-02   7.053770E-02   4.747665E-02  -4.169575E-02
   6    6.841618E-03   0.000000E+00   0.000000E+00   0.000000E+00   0.000000E+00
   
            41             42             43             44             45
   1    0.000000E+00  -3.797376E-02  -3.322543E-02   8.803961E-02   0.000000E+00
   2    0.000000E+00   5.064649E-02   8.803961E-02  -8.463551E-02   0.000000E+00
   3    2.413426E-03   0.000000E+00   0.000000E+00   0.000000E+00   3.278498E-02
   4    0.000000E+00  -9.298247E-02  -1.270860E-02   1.240173E-01   0.000000E+00
   5    0.000000E+00   1.240129E-01   1.240173E-01  -8.512761E-02   0.000000E+00
   6    2.162497E-02   0.000000E+00   0.000000E+00   0.000000E+00   8.027722E-02
   
            46             47             48             49             50
   1   -2.544055E-09  -1.728636E-04   0.000000E+00  -1.037916E-05  -3.932453E-04
   2   -4.853249E-10  -3.297689E-05   0.000000E+00   3.569050E-06   2.085030E-03
   3    0.000000E+00   0.000000E+00   0.000000E+00   0.000000E+00   0.000000E+00
   4   -1.728636E-04  -4.580484E-03  -1.037916E-05  -8.007541E-04  -8.184353E-03
   5   -3.297689E-05  -8.738109E-04   3.569050E-06   2.753529E-04   4.339434E-02
   6    0.000000E+00   0.000000E+00   0.000000E+00   0.000000E+00   0.000000E+00
   
            51             52             53             54             55
   1   -8.184353E-03   0.000000E+00   0.000000E+00   0.000000E+00   0.000000E+00
   2    4.339434E-02   0.000000E+00   0.000000E+00   0.000000E+00   0.000000E+00
   3    0.000000E+00   0.000000E+00   0.000000E+00   0.000000E+00   0.000000E+00
   4   -2.286656E-02  -7.413203E-07  -2.507627E-05  -3.057286E-05   4.296623E-05
   5    1.212411E-01   9.197713E-07   3.111265E-05   4.296623E-05  -4.925188E-05
   6    0.000000E+00   0.000000E+00   0.000000E+00   0.000000E+00   0.000000E+00
   
            56             57             58             59             60
   1    0.000000E+00  -2.609239E-06  -9.201087E-06   1.264001E-05   0.000000E+00
   2    0.000000E+00   3.237337E-06   1.264001E-05  -1.469617E-05   0.000000E+00
   3    0.000000E+00   0.000000E+00   0.000000E+00   0.000000E+00   9.865463E-07
   4    0.000000E+00  -4.961699E-04  -9.454093E-04   1.405749E-03   0.000000E+00
   5    0.000000E+00   6.156083E-04   1.405749E-03  -1.556541E-03   0.000000E+00
   6    4.057205E-06   0.000000E+00   0.000000E+00   0.000000E+00   1.876005E-04
   
            61             62             63             64             65
   1    0.000000E+00   0.000000E+00   0.000000E+00   0.000000E+00   0.000000E+00
   2    0.000000E+00   0.000000E+00   0.000000E+00   0.000000E+00   0.000000E+00
   3    0.000000E+00   0.000000E+00   0.000000E+00   0.000000E+00   0.000000E+00
   4   -4.701974E-08  -2.391333E-06  -1.767029E-06   5.188745E-06   0.000000E+00
   5    1.055860E-07   5.369901E-06   5.188745E-06  -1.110805E-05   0.000000E+00
   6    0.000000E+00   0.000000E+00   0.000000E+00   0.000000E+00   5.436311E-07
   
            66             67             68             69             70
   1   -1.618707E-07  -3.591525E-07   1.001213E-06   0.000000E+00   0.000000E+00
   2    3.634916E-07   1.001213E-06  -2.161582E-06   0.000000E+00   0.000000E+00
   3    0.000000E+00   0.000000E+00   0.000000E+00   8.670918E-08   0.000000E+00
   4   -8.443474E-05  -9.086242E-05   3.056028E-04   0.000000E+00  -1.037388E-05
   5    1.896040E-04   3.056028E-04  -6.410229E-04   0.000000E+00   4.680529E-05
   6    0.000000E+00   0.000000E+00   0.000000E+00   4.522911E-05   0.000000E+00
   
            71             72             73             74             75
   1   -1.037388E-05   0.000000E+00  -3.860510E-07   0.000000E+00  -7.053326E-09
   2    4.680529E-05   0.000000E+00   3.723608E-07   0.000000E+00   1.661856E-08
   3    0.000000E+00   0.000000E+00   0.000000E+00   0.000000E+00   0.000000E+00
   4   -4.546432E-04  -3.860510E-07  -9.375734E-05  -7.053326E-09  -6.151302E-06
   5    2.051277E-03   3.723608E-07   9.043250E-05   1.661856E-08   1.449328E-05
   6    0.000000E+00   0.000000E+00   0.000000E+00   0.000000E+00   0.000000E+00
   
            76             77             78             79             80
   1   -8.249008E-07  -4.172994E-04  -6.920549E-04  -9.379714E-04   0.000000E+00
   2   -9.634163E-07  -4.873714E-04  -9.379714E-04  -9.844142E-04   0.000000E+00
   3    0.000000E+00   0.000000E+00   0.000000E+00   0.000000E+00   1.110593E-04
   4   -2.760229E-03  -2.041193E-02  -1.209481E-02  -2.113124E-02   0.000000E+00
   5   -3.223720E-03  -2.383945E-02  -2.113124E-02  -1.868127E-02   0.000000E+00
   6    0.000000E+00   0.000000E+00   0.000000E+00   0.000000E+00   5.998282E-03
   
            81             82             83             84             85
   1   -1.075674E-02  -1.832844E-02  -2.941302E-02   0.000000E+00  -1.042519E-03
   2   -1.256298E-02  -2.941302E-02  -2.749628E-02   0.000000E+00  -3.475998E-03
   3    0.000000E+00   0.000000E+00   0.000000E+00   6.855712E-03   0.000000E+00
   4   -5.105564E-02  -3.662388E-02  -8.077758E-02   0.000000E+00  -1.558501E-02
   5   -5.962879E-02  -8.077758E-02  -6.180170E-02   0.000000E+00  -5.196400E-02
   6    0.000000E+00   0.000000E+00   0.000000E+00   3.253987E-02   0.000000E+00
   
            86             87             88             89             90
   1   -1.558501E-02   0.000000E+00  -1.582487E-08  -4.257883E-08  -5.304545E-08
   2   -5.196400E-02   0.000000E+00  -1.849533E-08  -5.304545E-08  -5.918929E-08
   3    0.000000E+00   0.000000E+00   0.000000E+00   0.000000E+00   0.000000E+00
   4   -3.966518E-02  -2.095315E-05  -3.919810E-04  -4.170992E-04  -5.725812E-04
   5   -1.322528E-01  -2.448901E-05  -4.581280E-04  -5.725812E-04  -5.963951E-04
   6    0.000000E+00   0.000000E+00   0.000000E+00   0.000000E+00   0.000000E+00
   
            91             92             93             94             95
   1    0.000000E+00  -7.622900E-05  -2.321041E-04  -3.092318E-04   0.000000E+00
   2    0.000000E+00  -8.909269E-05  -3.092318E-04  -3.289357E-04   0.000000E+00
   3    2.807622E-09   0.000000E+00   0.000000E+00   0.000000E+00   3.247910E-05
   4    0.000000E+00  -3.393062E-03  -5.429976E-03  -8.035942E-03   0.000000E+00
   5    0.000000E+00  -3.965644E-03  -8.035942E-03  -7.946321E-03   0.000000E+00
   6    7.280950E-05   0.000000E+00   0.000000E+00   0.000000E+00   1.445691E-03
   
            96             97             98             99            100
   1    0.000000E+00  -2.809076E-05   0.000000E+00  -1.898791E-05  -7.124336E-02
   2    0.000000E+00  -2.211691E-05   0.000000E+00  -3.414894E-05   2.441214E-02
   3    0.000000E+00   0.000000E+00   0.000000E+00   0.000000E+00   0.000000E+00
   4   -2.809076E-05  -1.378236E-03  -1.898791E-05  -9.003336E-04  -5.757983E-02
   5   -2.211691E-05  -1.085137E-03  -3.414894E-05  -1.619211E-03   1.973022E-02
   6    0.000000E+00   0.000000E+00   0.000000E+00   0.000000E+00   0.000000E+00
   
           101            102            103            104            105
   1   -3.077514E-01  -2.892394E-01   1.549128E-01   0.000000E+00  -2.453634E-01
   2    1.054536E-01   1.549128E-01   1.097692E-01   0.000000E+00   8.407586E-02
   3    0.000000E+00   0.000000E+00   0.000000E+00   1.628514E-01   0.000000E+00
   4   -2.210864E-01  -6.475878E-03   4.283006E-02   0.000000E+00  -2.457563E-01
   5    7.575713E-02   4.283006E-02   1.038415E-01   0.000000E+00   8.421047E-02
   6    0.000000E+00   0.000000E+00   0.000000E+00   1.185175E-01   0.000000E+00
   
           106            107            108            109            110
   1   -7.999434E-02   1.182045E-01   0.000000E+00   0.000000E+00   0.000000E+00
   2    1.182045E-01   2.244647E-01   0.000000E+00   0.000000E+00   0.000000E+00
   3    0.000000E+00   0.000000E+00   2.649685E-01   0.000000E+00   0.000000E+00
   4    6.890884E-02   6.732688E-02   0.000000E+00   0.000000E+00   0.000000E+00
   5    6.732688E-02   2.423226E-01   0.000000E+00   0.000000E+00   0.000000E+00
   6    0.000000E+00   0.000000E+00   2.653927E-01   0.000000E+00   0.000000E+00
   
  end of program der1a
   
   
  start of program der1b
   
  forces (hartrees/bohr) : total     
   
 atom  label           x              y              z
 ---- --------   -------------  -------------  -------------
    1 C1          8.712081E-05  -8.977223E-05   0.000000E+00
    2 C2         -3.167973E-04  -2.482129E-04   0.000000E+00
    3 C3         -2.037160E-04   1.965154E-05   0.000000E+00
    4 C4         -8.712081E-05   8.977223E-05   0.000000E+00
    5 C5          3.167973E-04   2.482129E-04   0.000000E+00
    6 H6         -2.367390E-05  -7.165791E-06   0.000000E+00
    7 H7         -4.186663E-05  -2.571234E-05   0.000000E+00
    8 H8          2.367390E-05   7.165791E-06   0.000000E+00
    9 C9         -6.318094E-05   1.255564E-04   0.000000E+00
   10 C10         8.860165E-05   1.316996E-04   0.000000E+00
   11 H11        -1.920401E-05   2.873572E-05   0.000000E+00
   12 H12        -7.011923E-05   8.660174E-05   0.000000E+00
   13 H13        -3.283481E-06   1.209090E-05   0.000000E+00
   14 C14         6.318094E-05  -1.255564E-04   0.000000E+00
   15 H15         7.011923E-05  -8.660174E-05   0.000000E+00
   16 C16        -8.860165E-05  -1.316996E-04   0.000000E+00
   17 H17         1.920401E-05  -2.873572E-05   0.000000E+00
   18 H18         3.283481E-06  -1.209090E-05   0.000000E+00
   19 C19         2.037160E-04  -1.965154E-05   0.000000E+00
   20 H20         4.186663E-05   2.571234E-05   0.000000E+00
 -------------   -------------  -------------  -------------
     total        0.000000E+00   0.000000E+00   0.000000E+00
   
  end of program der1b
   
 Total cpu seconds     user:      18.650   user+sys:      19.510
  
 Total elapsed time:    83 seconds

Job dvb_sp completed on puffin at Fri Nov  2 20:34:14 2007
