    nwchem, len=6
dvb_sp_ks.nw, len=12
 argument  1 = dvb_sp_ks.nw
                                         
                                         


              Northwest Computational Chemistry Package (NWChem) 6.0
              ------------------------------------------------------


                    Environmental Molecular Sciences Laboratory
                       Pacific Northwest National Laboratory
                                Richland, WA 99352

                              Copyright (c) 1994-2010
                       Pacific Northwest National Laboratory
                            Battelle Memorial Institute

             NWChem is an open-source computational chemistry package
                        distributed under the terms of the
                      Educational Community License (ECL) 2.0
             A copy of the license is included with this distribution
                              in the LICENSE.TXT file

                                  ACKNOWLEDGMENT
                                  --------------

            This software and its documentation were developed at the
            EMSL at Pacific Northwest National Laboratory, a multiprogram
            national laboratory, operated for the U.S. Department of Energy
            by Battelle under Contract Number DE-AC05-76RL01830. Support
            for this work was provided by the Department of Energy Office
            of Biological and Environmental Research, Office of Basic
            Energy Sciences, and the Office of Advanced Scientific Computing.


           Job information
           ---------------

    hostname      = silenziosa
    program       = nwchem
    date          = Tue Feb 18 01:25:06 2014

    compiled      = Thu_May_05_12:06:54_2011
    source        = /build/buildd/nwchem-6.0
    nwchem branch = 6.0
    input         = dvb_sp_ks.nw
    prefix        = dvb.
    data base     = ./dvb.db
    status        = startup
    nproc         =        1
    time left     =     -1s



           Memory information
           ------------------

    heap     =   13107201 doubles =    100.0 Mbytes
    stack    =   13107201 doubles =    100.0 Mbytes
    global   =   26214400 doubles =    200.0 Mbytes (distinct from heap & stack)
    total    =   52428802 doubles =    400.0 Mbytes
    verify   = yes
    hardfail = no 


           Directory information
           ---------------------

  0 permanent = .
  0 scratch   = .




                                NWChem Input Module
                                -------------------


                        Divinylbenzene in STO-3G basis set
                        ----------------------------------

 Scaling coordinates for geometry "geometry" by  1.889725989
 (inverse scale =  0.529177249)

 Turning off AUTOSYM since
 SYMMETRY directive was detected!


          ------
          auto-z
          ------


                             Geometry "geometry" -> ""
                             -------------------------

 Output coordinates in angstroms (scale by  1.889725989 to convert to a.u.)

  No.       Tag          Charge          X              Y              Z
 ---- ---------------- ---------- -------------- -------------- --------------
    1 C                    6.0000    -1.41525332     0.23022179     0.00000000
    2 C                    6.0000     1.41525332    -0.23022179     0.00000000
    3 C                    6.0000    -0.49513316     1.31446087     0.00000000
    4 C                    6.0000     0.49513316    -1.31446087     0.00000000
    5 C                    6.0000     0.88940904     1.09094937     0.00000000
    6 C                    6.0000    -0.88940904    -1.09094937     0.00000000
    7 H                    1.0000    -0.87955120     2.34373437     0.00000000
    8 H                    1.0000     0.87955120    -2.34373437     0.00000000
    9 H                    1.0000     1.57790416     1.94500613     0.00000000
   10 H                    1.0000    -1.57790416    -1.94500613     0.00000000
   11 C                    6.0000     2.88458450    -0.52108938     0.00000000
   12 C                    6.0000    -2.88458450     0.52108938     0.00000000
   13 H                    1.0000     3.14033568    -1.59196057     0.00000000
   14 H                    1.0000    -3.14033568     1.59196057     0.00000000
   15 C                    6.0000     3.88004281     0.38225354     0.00000000
   16 C                    6.0000    -3.88004281    -0.38225354     0.00000000
   17 H                    1.0000     3.69467659     1.46243896     0.00000000
   18 H                    1.0000    -3.69467659    -1.46243896     0.00000000
   19 H                    1.0000     4.93164535     0.07110495     0.00000000
   20 H                    1.0000    -4.93164535    -0.07110495     0.00000000

      Atomic Mass 
      ----------- 

      C                 12.000000
      H                  1.007825


 Effective nuclear repulsion energy (a.u.)     445.9370121674

            Nuclear Dipole moment (a.u.) 
            ----------------------------
        X                 Y               Z
 ---------------- ---------------- ----------------
     0.0000000000     0.0000000000     0.0000000000



                                Z-matrix (autoz)
                                -------- 

 Units are Angstrom for bonds and degrees for angles

      Type          Name      I     J     K     L     M      Value
      ----------- --------  ----- ----- ----- ----- ----- ----------
    1 Stretch                  1     3                       1.42204
    2 Stretch                  1     6                       1.42197
    3 Stretch                  1    12                       1.49784
    4 Stretch                  2     4                       1.42204
    5 Stretch                  2     5                       1.42197
    6 Stretch                  2    11                       1.49784
    7 Stretch                  3     5                       1.40247
    8 Stretch                  3     7                       1.09872
    9 Stretch                  4     6                       1.40247
   10 Stretch                  4     8                       1.09872
   11 Stretch                  5     9                       1.09701
   12 Stretch                  6    10                       1.09701
   13 Stretch                 11    13                       1.10099
   14 Stretch                 11    15                       1.34423
   15 Stretch                 12    14                       1.10099
   16 Stretch                 12    16                       1.34423
   17 Stretch                 15    17                       1.09597
   18 Stretch                 15    19                       1.09667
   19 Stretch                 16    18                       1.09597
   20 Stretch                 16    20                       1.09667
   21 Bend                     1     3     5               121.14867
   22 Bend                     1     3     7               119.20109
   23 Bend                     1     6     4               120.87358
   24 Bend                     1     6    10               119.42285
   25 Bend                     1    12    14               114.62953
   26 Bend                     1    12    16               126.57992
   27 Bend                     2     4     6               121.14867
   28 Bend                     2     4     8               119.20109
   29 Bend                     2     5     3               120.87358
   30 Bend                     2     5     9               119.42285
   31 Bend                     2    11    13               114.62953
   32 Bend                     2    11    15               126.57992
   33 Bend                     3     1     6               117.97776
   34 Bend                     3     1    12               119.12155
   35 Bend                     3     5     9               119.70357
   36 Bend                     4     2     5               117.97776
   37 Bend                     4     2    11               119.12155
   38 Bend                     4     6    10               119.70357
   39 Bend                     5     2    11               122.90069
   40 Bend                     5     3     7               119.65024
   41 Bend                     6     1    12               122.90069
   42 Bend                     6     4     8               119.65024
   43 Bend                    11    15    17               122.48517
   44 Bend                    11    15    19               121.29492
   45 Bend                    12    16    18               122.48517
   46 Bend                    12    16    20               121.29492
   47 Bend                    13    11    15               118.79054
   48 Bend                    14    12    16               118.79054
   49 Bend                    17    15    19               116.21990
   50 Bend                    18    16    20               116.21990
   51 Torsion                  1     3     5     2           0.00000
   52 Torsion                  1     3     5     9         180.00000
   53 Torsion                  1     6     4     2           0.00000
   54 Torsion                  1     6     4     8         180.00000
   55 Torsion                  1    12    16    18           0.00000
   56 Torsion                  1    12    16    20         180.00000
   57 Torsion                  2     4     6    10         180.00000
   58 Torsion                  2     5     3     7         180.00000
   59 Torsion                  2    11    15    17           0.00000
   60 Torsion                  2    11    15    19         180.00000
   61 Torsion                  3     1     6     4           0.00000
   62 Torsion                  3     1     6    10         180.00000
   63 Torsion                  3     1    12    14          -0.00000
   64 Torsion                  3     1    12    16         180.00000
   65 Torsion                  3     5     2     4          -0.00000
   66 Torsion                  3     5     2    11         180.00000
   67 Torsion                  4     2     5     9         180.00000
   68 Torsion                  4     2    11    13           0.00000
   69 Torsion                  4     2    11    15         180.00000
   70 Torsion                  4     6     1    12         180.00000
   71 Torsion                  5     2     4     6           0.00000
   72 Torsion                  5     2     4     8         180.00000
   73 Torsion                  5     2    11    13         180.00000
   74 Torsion                  5     2    11    15           0.00000
   75 Torsion                  5     3     1     6           0.00000
   76 Torsion                  5     3     1    12         180.00000
   77 Torsion                  6     1     3     7         180.00000
   78 Torsion                  6     1    12    14         180.00000
   79 Torsion                  6     1    12    16           0.00000
   80 Torsion                  6     4     2    11         180.00000
   81 Torsion                  7     3     1    12           0.00000
   82 Torsion                  7     3     5     9           0.00000
   83 Torsion                  8     4     2    11           0.00000
   84 Torsion                  8     4     6    10           0.00000
   85 Torsion                  9     5     2    11           0.00000
   86 Torsion                 10     6     1    12           0.00000
   87 Torsion                 13    11    15    17         180.00000
   88 Torsion                 13    11    15    19           0.00000
   89 Torsion                 14    12    16    18         180.00000
   90 Torsion                 14    12    16    20           0.00000


            XYZ format geometry
            -------------------
    20
 geometry
 C                    -1.41525332     0.23022179     0.00000000
 C                     1.41525332    -0.23022179     0.00000000
 C                    -0.49513316     1.31446087     0.00000000
 C                     0.49513316    -1.31446087     0.00000000
 C                     0.88940904     1.09094937     0.00000000
 C                    -0.88940904    -1.09094937     0.00000000
 H                    -0.87955120     2.34373437     0.00000000
 H                     0.87955120    -2.34373437     0.00000000
 H                     1.57790416     1.94500613     0.00000000
 H                    -1.57790416    -1.94500613     0.00000000
 C                     2.88458450    -0.52108938     0.00000000
 C                    -2.88458450     0.52108938     0.00000000
 H                     3.14033568    -1.59196057     0.00000000
 H                    -3.14033568     1.59196057     0.00000000
 C                     3.88004281     0.38225354     0.00000000
 C                    -3.88004281    -0.38225354     0.00000000
 H                     3.69467659     1.46243896     0.00000000
 H                    -3.69467659    -1.46243896     0.00000000
 H                     4.93164535     0.07110495     0.00000000
 H                    -4.93164535    -0.07110495     0.00000000

 ==============================================================================
                                internuclear distances
 ------------------------------------------------------------------------------
       center one      |      center two      | atomic units |  angstroms
 ------------------------------------------------------------------------------
    3 C                |   1 C                |     2.68726  |     1.42204
    4 C                |   2 C                |     2.68726  |     1.42204
    5 C                |   2 C                |     2.68714  |     1.42197
    5 C                |   3 C                |     2.65028  |     1.40247
    6 C                |   1 C                |     2.68714  |     1.42197
    6 C                |   4 C                |     2.65028  |     1.40247
    7 H                |   3 C                |     2.07628  |     1.09872
    8 H                |   4 C                |     2.07628  |     1.09872
    9 H                |   5 C                |     2.07305  |     1.09701
   10 H                |   6 C                |     2.07305  |     1.09701
   11 C                |   2 C                |     2.83052  |     1.49784
   12 C                |   1 C                |     2.83052  |     1.49784
   13 H                |  11 C                |     2.08056  |     1.10099
   14 H                |  12 C                |     2.08056  |     1.10099
   15 C                |  11 C                |     2.54023  |     1.34423
   16 C                |  12 C                |     2.54023  |     1.34423
   17 H                |  15 C                |     2.07109  |     1.09597
   18 H                |  16 C                |     2.07109  |     1.09597
   19 H                |  15 C                |     2.07240  |     1.09667
   20 H                |  16 C                |     2.07240  |     1.09667
 ------------------------------------------------------------------------------
                         number of included internuclear distances:         20
 ==============================================================================



 ==============================================================================
                                 internuclear angles
 ------------------------------------------------------------------------------
        center 1       |       center 2       |       center 3       |  degrees
 ------------------------------------------------------------------------------
    3 C                |   1 C                |   6 C                |   117.98
    3 C                |   1 C                |  12 C                |   119.12
    6 C                |   1 C                |  12 C                |   122.90
    4 C                |   2 C                |   5 C                |   117.98
    4 C                |   2 C                |  11 C                |   119.12
    5 C                |   2 C                |  11 C                |   122.90
    1 C                |   3 C                |   5 C                |   121.15
    1 C                |   3 C                |   7 H                |   119.20
    5 C                |   3 C                |   7 H                |   119.65
    2 C                |   4 C                |   6 C                |   121.15
    2 C                |   4 C                |   8 H                |   119.20
    6 C                |   4 C                |   8 H                |   119.65
    2 C                |   5 C                |   3 C                |   120.87
    2 C                |   5 C                |   9 H                |   119.42
    3 C                |   5 C                |   9 H                |   119.70
    1 C                |   6 C                |   4 C                |   120.87
    1 C                |   6 C                |  10 H                |   119.42
    4 C                |   6 C                |  10 H                |   119.70
    2 C                |  11 C                |  13 H                |   114.63
    2 C                |  11 C                |  15 C                |   126.58
   13 H                |  11 C                |  15 C                |   118.79
    1 C                |  12 C                |  14 H                |   114.63
    1 C                |  12 C                |  16 C                |   126.58
   14 H                |  12 C                |  16 C                |   118.79
   11 C                |  15 C                |  17 H                |   122.49
   11 C                |  15 C                |  19 H                |   121.29
   17 H                |  15 C                |  19 H                |   116.22
   12 C                |  16 C                |  18 H                |   122.49
   12 C                |  16 C                |  20 H                |   121.29
   18 H                |  16 C                |  20 H                |   116.22
 ------------------------------------------------------------------------------
                            number of included internuclear angles:         30
 ==============================================================================





 Summary of "ao basis" -> "" (cartesian)
 ------------------------------------------------------------------------------
       Tag                 Description            Shells   Functions and Types
 ---------------- ------------------------------  ------  ---------------------
 *                           sto-3g                   on all atoms 


                              NWChem Property Module
                              ----------------------


                        Divinylbenzene in STO-3G basis set

  itol2e modified to match energy
  convergence criterion.

                                 NWChem DFT Module
                                 -----------------


                        Divinylbenzene in STO-3G basis set


                      Basis "ao basis" -> "ao basis" (cartesian)
                      -----
  C (Carbon)
  ----------
            Exponent  Coefficients 
       -------------- ---------------------------------------------------------
  1 S  7.16168370E+01  0.154329
  1 S  1.30450960E+01  0.535328
  1 S  3.53051220E+00  0.444635

  2 S  2.94124940E+00 -0.099967
  2 S  6.83483100E-01  0.399513
  2 S  2.22289900E-01  0.700115

  3 P  2.94124940E+00  0.155916
  3 P  6.83483100E-01  0.607684
  3 P  2.22289900E-01  0.391957

  H (Hydrogen)
  ------------
            Exponent  Coefficients 
       -------------- ---------------------------------------------------------
  1 S  3.42525091E+00  0.154329
  1 S  6.23913730E-01  0.535328
  1 S  1.68855400E-01  0.444635



 Summary of "ao basis" -> "ao basis" (cartesian)
 ------------------------------------------------------------------------------
       Tag                 Description            Shells   Functions and Types
 ---------------- ------------------------------  ------  ---------------------
 C                           sto-3g                  3        5   2s1p
 H                           sto-3g                  1        1   1s


  Caching 1-el integrals 
  itol2e modified to match energy
  convergence criterion.

            General Information
            -------------------
          SCF calculation type: DFT
          Wavefunction type:  closed shell.
          No. of atoms     :    20
          No. of electrons :    70
           Alpha electrons :    35
            Beta electrons :    35
          Charge           :     0
          Spin multiplicity:     1
          Use of symmetry is: off; symmetry adaption is: off
          Maximum number of iterations:  30
          AO basis - number of functions:    60
                     number of shells:    40
          Convergence on energy requested: 1.00D-07
          Convergence on density requested: 1.00D-05
          Convergence on gradient requested: 1.00D-06

              XC Information
              --------------
                         B3LYP Method XC Potential
                     Hartree-Fock (Exact) Exchange  0.200          
                        Slater Exchange Functional  0.800 local    
                    Becke 1988 Exchange Functional  0.720 non-local
              Lee-Yang-Parr Correlation Functional  0.810          
                  VWN I RPA Correlation Functional  0.190 local    

             Grid Information
             ----------------
          Grid used for XC integration:  fine      
          Radial quadrature: Mura-Knowles        
          Angular quadrature: Lebedev. 
          Tag              B.-S. Rad. Rad. Pts. Rad. Cut. Ang. Pts.
          ---              ---------- --------- --------- ---------
          C                   0.70       70          13.0       590
          H                   0.35       60          13.0       590
          Grid pruning is: on 
          Number of quadrature shells:  1300
          Spatial weights used:  Erf1

          Convergence Information
          -----------------------
          Convergence aids based upon iterative change in 
          total energy or number of iterations. 
          Levelshifting, if invoked, occurs when the 
          HOMO/LUMO gap drops below (HL_TOL): 1.00D-02
          DIIS, if invoked, will attempt to extrapolate 
          using up to (NFOCK): 10 stored Fock matrices.

                    Damping( 0%)  Levelshifting(0.5)       DIIS
                  --------------- ------------------- ---------------
          dE  on:    start            ASAP                start   
          dE off:    2 iters         30 iters            30 iters 


      Screening Tolerance Information
      -------------------------------
          Density screening/tol_rho: 1.00D-11
          AO Gaussian exp screening on grid/accAOfunc:  16
          CD Gaussian exp screening on grid/accCDfunc:  20
          XC Gaussian exp screening on grid/accXCfunc:  20
          Schwarz screening/accCoul: 1.00D-08


      Superposition of Atomic Density Guess
      -------------------------------------

 Sum of atomic energies:        -376.44825176

      Non-variational initial energy
      ------------------------------

 Total energy =    -379.429467
 1-e energy   =   -1401.451096
 2-e energy   =     576.084617
 HOMO         =      -0.037644
 LUMO         =       0.163723

   Time after variat. SCF:      0.6
   Time prior to 1st pass:      0.6

 Integral file          = ./dvb.aoints.0
 Record size in doubles =  65536        No. of integs per rec  =  43688
 Max. records in memory =     54        Max. records in file   =  56818
 No. of bits per label  =      8        No. of bits per value  =     64


 #quartets = 2.152D+05 #integrals = 6.689D+05 #direct =  0.0% #cached =100.0%


 Grid_pts file          = ./dvb.gridpts.0
 Record size in doubles =  12289        No. of grid_pts per rec  =   3070
 Max. records in memory =    276        Max. recs in file   =    303013

 WARNING: error on integrated density =  0.20D-06
 greater than required accuracy of  0.10D-06

           Memory utilization after 1st SCF pass: 
           Heap Space remaining (MW):        6.17             6173070
          Stack Space remaining (MW):       13.11            13106305

   convergence    iter        energy       DeltaE   RMS-Dens  Diis-err    time
 ---------------- ----- ----------------- --------- --------- ---------  ------
 d= 0,ls=0.0,diis     1   -382.2544308876 -8.28D+02  1.42D-02  3.78D-01     9.0
 WARNING: error on integrated density =  0.20D-06
 greater than required accuracy of  0.10D-06
 d= 0,ls=0.0,diis     2   -382.3017301243 -4.73D-02  6.99D-03  3.82D-02    14.0
 WARNING: error on integrated density =  0.20D-06
 greater than required accuracy of  0.10D-06
 d= 0,ls=0.0,diis     3   -382.2954328955  6.30D-03  4.21D-03  7.95D-02    18.9
 WARNING: error on integrated density =  0.20D-06
 greater than required accuracy of  0.10D-06
 d= 0,ls=0.0,diis     4   -382.3080981547 -1.27D-02  5.18D-04  8.80D-04    23.9
 WARNING: error on integrated density =  0.20D-06
 greater than required accuracy of  0.10D-06
 d= 0,ls=0.0,diis     5   -382.3082345797 -1.36D-04  1.18D-04  4.46D-05    28.8
 WARNING: error on integrated density =  0.20D-06
 greater than required accuracy of  0.10D-06
 d= 0,ls=0.0,diis     6   -382.3082407181 -6.14D-06  3.18D-05  3.09D-06    33.7
 WARNING: error on integrated density =  0.20D-06
 greater than required accuracy of  0.10D-06
 d= 0,ls=0.0,diis     7   -382.3082411948 -4.77D-07  7.09D-06  1.61D-07    38.7
 WARNING: error on integrated density =  0.20D-06
 greater than required accuracy of  0.10D-06
 d= 0,ls=0.0,diis     8   -382.3082412236 -2.89D-08  5.88D-07  7.21D-10    43.6


         Total DFT energy =     -382.308241223603
      One electron energy =    -1400.644822234049
           Coulomb energy =      630.242472774468
    Exchange-Corr. energy =      -57.842903931469
 Nuclear repulsion energy =      445.937012167446

 Numeric. integr. density =       69.999985821112

     Total iterative time =     43.0s



                       DFT Final Molecular Orbital Analysis
                       ------------------------------------

 Vector    1  Occ=2.000000D+00  E=-1.002023D+01
              MO Center= -1.5D-04,  2.4D-05, -1.7D-13, r^2= 2.1D+00
   Bfn.  Coefficient  Atom+Function         Bfn.  Coefficient  Atom+Function  
  ----- ------------  ---------------      ----- ------------  ---------------
     1      0.699339   1 C  s                 6     -0.699265   2 C  s         

 Vector    2  Occ=2.000000D+00  E=-1.002018D+01
              MO Center=  1.5D-04, -2.4D-05, -1.7D-13, r^2= 2.1D+00
   Bfn.  Coefficient  Atom+Function         Bfn.  Coefficient  Atom+Function  
  ----- ------------  ---------------      ----- ------------  ---------------
     6      0.699335   2 C  s                 1      0.699262   1 C  s         

 Vector    3  Occ=2.000000D+00  E=-1.000794D+01
              MO Center= -1.2D-03,  2.1D-04, -1.7D-13, r^2= 8.6D+00
   Bfn.  Coefficient  Atom+Function         Bfn.  Coefficient  Atom+Function  
  ----- ------------  ---------------      ----- ------------  ---------------
    40     -0.699920  12 C  s                35      0.699640  11 C  s         

 Vector    4  Occ=2.000000D+00  E=-1.000794D+01
              MO Center=  1.2D-03, -2.1D-04, -1.7D-13, r^2= 8.6D+00
   Bfn.  Coefficient  Atom+Function         Bfn.  Coefficient  Atom+Function  
  ----- ------------  ---------------      ----- ------------  ---------------
    35      0.699836  11 C  s                40      0.699555  12 C  s         

 Vector    5  Occ=2.000000D+00  E=-1.000689D+01
              MO Center=  1.3D-04,  4.5D-04,  1.1D-13, r^2= 2.0D+00
   Bfn.  Coefficient  Atom+Function         Bfn.  Coefficient  Atom+Function  
  ----- ------------  ---------------      ----- ------------  ---------------
    21     -0.544557   5 C  s                26     -0.544347   6 C  s         
    11      0.440032   3 C  s                16      0.439865   4 C  s         

 Vector    6  Occ=2.000000D+00  E=-1.000689D+01
              MO Center= -1.4D-04, -4.5D-04,  1.1D-13, r^2= 2.0D+00
   Bfn.  Coefficient  Atom+Function         Bfn.  Coefficient  Atom+Function  
  ----- ------------  ---------------      ----- ------------  ---------------
    26     -0.553678   6 C  s                21      0.553467   5 C  s         
    16      0.427407   4 C  s                11     -0.427240   3 C  s         

 Vector    7  Occ=2.000000D+00  E=-1.000624D+01
              MO Center=  3.6D-06,  1.7D-05,  7.9D-14, r^2= 2.0D+00
   Bfn.  Coefficient  Atom+Function         Bfn.  Coefficient  Atom+Function  
  ----- ------------  ---------------      ----- ------------  ---------------
    11     -0.554553   3 C  s                16      0.554547   4 C  s         
    21     -0.428633   5 C  s                26      0.428624   6 C  s         

 Vector    8  Occ=2.000000D+00  E=-1.000610D+01
              MO Center=  2.0D-06, -1.8D-05,  8.1D-14, r^2= 2.0D+00
   Bfn.  Coefficient  Atom+Function         Bfn.  Coefficient  Atom+Function  
  ----- ------------  ---------------      ----- ------------  ---------------
    16     -0.544568   4 C  s                11     -0.544558   3 C  s         
    26     -0.440186   6 C  s                21     -0.440182   5 C  s         

 Vector    9  Occ=2.000000D+00  E=-9.992161D+00
              MO Center= -1.6D-01, -1.6D-02, -2.3D-16, r^2= 1.5D+01
   Bfn.  Coefficient  Atom+Function         Bfn.  Coefficient  Atom+Function  
  ----- ------------  ---------------      ----- ------------  ---------------
    52      0.714775  16 C  s                47     -0.685884  15 C  s         

 Vector   10  Occ=2.000000D+00  E=-9.992161D+00
              MO Center=  1.6D-01,  1.6D-02,  6.2D-15, r^2= 1.5D+01
   Bfn.  Coefficient  Atom+Function         Bfn.  Coefficient  Atom+Function  
  ----- ------------  ---------------      ----- ------------  ---------------
    47     -0.714775  15 C  s                52     -0.685884  16 C  s         

 Vector   11  Occ=2.000000D+00  E=-8.094676D-01
              MO Center= -4.5D-08,  1.0D-08, -2.1D-11, r^2= 3.0D+00
   Bfn.  Coefficient  Atom+Function         Bfn.  Coefficient  Atom+Function  
  ----- ------------  ---------------      ----- ------------  ---------------
     2     -0.274701   1 C  s                 7     -0.274701   2 C  s         
    12     -0.247019   3 C  s                17     -0.247019   4 C  s         
    27     -0.246687   6 C  s                22     -0.246687   5 C  s         

 Vector   12  Occ=2.000000D+00  E=-7.539366D-01
              MO Center= -5.2D-09, -1.7D-09, -1.7D-11, r^2= 7.8D+00
   Bfn.  Coefficient  Atom+Function         Bfn.  Coefficient  Atom+Function  
  ----- ------------  ---------------      ----- ------------  ---------------
    41     -0.297174  12 C  s                36      0.297174  11 C  s         
     7      0.273784   2 C  s                 2     -0.273784   1 C  s         
    53     -0.209311  16 C  s                48      0.209311  15 C  s         

 Vector   13  Occ=2.000000D+00  E=-7.178636D-01
              MO Center=  1.9D-09,  3.6D-09, -2.8D-12, r^2= 1.1D+01
   Bfn.  Coefficient  Atom+Function         Bfn.  Coefficient  Atom+Function  
  ----- ------------  ---------------      ----- ------------  ---------------
    36     -0.314821  11 C  s                41     -0.314821  12 C  s         
    53     -0.309762  16 C  s                48     -0.309762  15 C  s         

 Vector   14  Occ=2.000000D+00  E=-6.999247D-01
              MO Center= -7.4D-09, -1.0D-08,  2.2D-11, r^2= 3.2D+00
   Bfn.  Coefficient  Atom+Function         Bfn.  Coefficient  Atom+Function  
  ----- ------------  ---------------      ----- ------------  ---------------
    12     -0.357137   3 C  s                17      0.357137   4 C  s         
    27      0.323902   6 C  s                22     -0.323902   5 C  s         

 Vector   15  Occ=2.000000D+00  E=-6.673156D-01
              MO Center=  2.4D-08,  3.1D-09, -6.0D-11, r^2= 9.1D+00
   Bfn.  Coefficient  Atom+Function         Bfn.  Coefficient  Atom+Function  
  ----- ------------  ---------------      ----- ------------  ---------------
    48     -0.299503  15 C  s                53      0.299503  16 C  s         
     2     -0.274066   1 C  s                 7      0.274066   2 C  s         
    22      0.202285   5 C  s                27     -0.202285   6 C  s         

 Vector   16  Occ=2.000000D+00  E=-5.885106D-01
              MO Center= -1.4D-08, -1.1D-09, -2.0D-11, r^2= 8.4D+00
   Bfn.  Coefficient  Atom+Function         Bfn.  Coefficient  Atom+Function  
  ----- ------------  ---------------      ----- ------------  ---------------
    53     -0.241408  16 C  s                48     -0.241408  15 C  s         
    27     -0.233815   6 C  s                22     -0.233815   5 C  s         
     7      0.206377   2 C  s                 2      0.206377   1 C  s         
    13     -0.159867   3 C  px               18      0.159867   4 C  px        
    41      0.159609  12 C  s                36      0.159609  11 C  s         

 Vector   17  Occ=2.000000D+00  E=-5.591529D-01
              MO Center= -6.9D-09,  3.2D-09, -2.4D-11, r^2= 5.1D+00
   Bfn.  Coefficient  Atom+Function         Bfn.  Coefficient  Atom+Function  
  ----- ------------  ---------------      ----- ------------  ---------------
    12     -0.326033   3 C  s                17     -0.326033   4 C  s         
     4     -0.185158   1 C  py                9      0.185158   2 C  py        
    28     -0.170843   6 C  px               23      0.170843   5 C  px        
    22      0.170744   5 C  s                27      0.170744   6 C  s         
    31     -0.169236   7 H  s                32     -0.169236   8 H  s         

 Vector   18  Occ=2.000000D+00  E=-5.314221D-01
              MO Center= -5.3D-08,  2.7D-10,  1.5D-11, r^2= 1.2D+01
   Bfn.  Coefficient  Atom+Function         Bfn.  Coefficient  Atom+Function  
  ----- ------------  ---------------      ----- ------------  ---------------
    41      0.302764  12 C  s                36     -0.302764  11 C  s         
    53     -0.249170  16 C  s                48      0.249170  15 C  s         
    46      0.170519  14 H  s                45     -0.170519  13 H  s         
    58     -0.160625  18 H  s                57      0.160625  17 H  s         
    17      0.154466   4 C  s                12     -0.154466   3 C  s         

 Vector   19  Occ=2.000000D+00  E=-5.099384D-01
              MO Center=  7.1D-08, -1.9D-09,  1.5D-11, r^2= 7.5D+00
   Bfn.  Coefficient  Atom+Function         Bfn.  Coefficient  Atom+Function  
  ----- ------------  ---------------      ----- ------------  ---------------
    24      0.202064   5 C  py               29     -0.202064   6 C  py        
    14      0.184899   3 C  py               19     -0.184899   4 C  py        
    36      0.180760  11 C  s                41      0.180760  12 C  s         
    34      0.169278  10 H  s                33      0.169278   9 H  s         
    27      0.166025   6 C  s                22      0.166025   5 C  s         

 Vector   20  Occ=2.000000D+00  E=-4.576009D-01
              MO Center= -4.6D-08,  4.5D-10,  9.0D-13, r^2= 9.5D+00
   Bfn.  Coefficient  Atom+Function         Bfn.  Coefficient  Atom+Function  
  ----- ------------  ---------------      ----- ------------  ---------------
    55     -0.212680  16 C  py               50      0.212680  15 C  py        
    42      0.185181  12 C  px               37     -0.185181  11 C  px        
    58      0.179107  18 H  s                57      0.179107  17 H  s         
    46     -0.153096  14 H  s                45     -0.153096  13 H  s         

 Vector   21  Occ=2.000000D+00  E=-4.391986D-01
              MO Center= -2.2D-08,  5.0D-10,  5.9D-12, r^2= 1.0D+01
   Bfn.  Coefficient  Atom+Function         Bfn.  Coefficient  Atom+Function  
  ----- ------------  ---------------      ----- ------------  ---------------
    43      0.218763  12 C  py               38      0.218763  11 C  py        
    54     -0.210705  16 C  px               49     -0.210705  15 C  px        
    13     -0.185047   3 C  px               18     -0.185047   4 C  px        
    60      0.178122  20 H  s                59     -0.178122  19 H  s         
    46      0.155497  14 H  s                45     -0.155497  13 H  s         

 Vector   22  Occ=2.000000D+00  E=-4.110196D-01
              MO Center= -1.6D-09,  1.3D-08, -1.5D-11, r^2= 6.8D+00
   Bfn.  Coefficient  Atom+Function         Bfn.  Coefficient  Atom+Function  
  ----- ------------  ---------------      ----- ------------  ---------------
     7     -0.235305   2 C  s                 2      0.235305   1 C  s         
    33      0.230457   9 H  s                34     -0.230457  10 H  s         
    31     -0.226659   7 H  s                32      0.226659   8 H  s         
    19     -0.222552   4 C  py               14     -0.222552   3 C  py        
    23      0.177443   5 C  px               28      0.177443   6 C  px        

 Vector   23  Occ=2.000000D+00  E=-3.976935D-01
              MO Center=  5.8D-09, -6.5D-09,  1.7D-13, r^2= 8.7D+00
   Bfn.  Coefficient  Atom+Function         Bfn.  Coefficient  Atom+Function  
  ----- ------------  ---------------      ----- ------------  ---------------
    29     -0.250969   6 C  py               24     -0.250969   5 C  py        
    55     -0.250330  16 C  py               50     -0.250330  15 C  py        
     4      0.220150   1 C  py                9      0.220150   2 C  py        
    57     -0.215414  17 H  s                58      0.215414  18 H  s         
    42      0.181287  12 C  px               37      0.181287  11 C  px        

 Vector   24  Occ=2.000000D+00  E=-3.959393D-01
              MO Center=  1.2D-08, -1.1D-08,  4.4D-12, r^2= 1.5D+01
   Bfn.  Coefficient  Atom+Function         Bfn.  Coefficient  Atom+Function  
  ----- ------------  ---------------      ----- ------------  ---------------
    54     -0.338939  16 C  px               49      0.338939  15 C  px        
    60      0.262591  20 H  s                59      0.262591  19 H  s         
    38     -0.251877  11 C  py               43      0.251877  12 C  py        

 Vector   25  Occ=2.000000D+00  E=-3.744317D-01
              MO Center= -6.4D-09,  2.2D-10,  3.1D-12, r^2= 4.4D+00
   Bfn.  Coefficient  Atom+Function         Bfn.  Coefficient  Atom+Function  
  ----- ------------  ---------------      ----- ------------  ---------------
    14     -0.306901   3 C  py               19     -0.306901   4 C  py        
    31     -0.252262   7 H  s                32      0.252262   8 H  s         
    28     -0.225212   6 C  px               23     -0.225212   5 C  px        
    34      0.218190  10 H  s                33     -0.218190   9 H  s         
    29     -0.189118   6 C  py               24     -0.189118   5 C  py        

 Vector   26  Occ=2.000000D+00  E=-3.509385D-01
              MO Center= -2.9D-08,  3.1D-08, -8.6D-12, r^2= 9.0D+00
   Bfn.  Coefficient  Atom+Function         Bfn.  Coefficient  Atom+Function  
  ----- ------------  ---------------      ----- ------------  ---------------
    49     -0.245115  15 C  px               54     -0.245115  16 C  px        
    13      0.223875   3 C  px               18      0.223875   4 C  px        
    43      0.202553  12 C  py               38      0.202553  11 C  py        
    23     -0.193584   5 C  px               28     -0.193583   6 C  px        
    42      0.186801  12 C  px               37      0.186801  11 C  px        

 Vector   27  Occ=2.000000D+00  E=-3.470161D-01
              MO Center=  2.9D-08, -1.6D-08, -7.1D-12, r^2= 1.2D+01
   Bfn.  Coefficient  Atom+Function         Bfn.  Coefficient  Atom+Function  
  ----- ------------  ---------------      ----- ------------  ---------------
    50      0.294962  15 C  py               55     -0.294962  16 C  py        
    57      0.268014  17 H  s                58      0.268014  18 H  s         
    38     -0.209274  11 C  py               43      0.209274  12 C  py        
    45      0.200224  13 H  s                46      0.200224  14 H  s         
    32     -0.156470   8 H  s                31     -0.156470   7 H  s         

 Vector   28  Occ=2.000000D+00  E=-3.244718D-01
              MO Center= -4.3D-08,  9.4D-09,  2.6D-11, r^2= 3.6D+00
   Bfn.  Coefficient  Atom+Function         Bfn.  Coefficient  Atom+Function  
  ----- ------------  ---------------      ----- ------------  ---------------
     5     -0.337605   1 C  pz               10     -0.337605   2 C  pz        
    15     -0.297981   3 C  pz               20     -0.297981   4 C  pz        
    30     -0.297168   6 C  pz               25     -0.297168   5 C  pz        
    44     -0.173950  12 C  pz               39     -0.173950  11 C  pz        

 Vector   29  Occ=2.000000D+00  E=-3.110654D-01
              MO Center= -6.9D-08,  7.4D-10, -5.8D-12, r^2= 1.2D+01
   Bfn.  Coefficient  Atom+Function         Bfn.  Coefficient  Atom+Function  
  ----- ------------  ---------------      ----- ------------  ---------------
    46     -0.259097  14 H  s                45      0.259097  13 H  s         
     3     -0.242397   1 C  px                8     -0.242397   2 C  px        
    58     -0.231033  18 H  s                57      0.231033  17 H  s         
    43     -0.216457  12 C  py               38     -0.216457  11 C  py        
    60      0.212339  20 H  s                59     -0.212339  19 H  s         

 Vector   30  Occ=2.000000D+00  E=-2.929852D-01
              MO Center=  7.9D-08, -1.6D-08, -2.3D-12, r^2= 6.1D+00
   Bfn.  Coefficient  Atom+Function         Bfn.  Coefficient  Atom+Function  
  ----- ------------  ---------------      ----- ------------  ---------------
    18      0.277567   4 C  px               13     -0.277567   3 C  px        
     8     -0.267791   2 C  px                3      0.267791   1 C  px        
    37      0.248350  11 C  px               42     -0.248350  12 C  px        
    34      0.240399  10 H  s                33      0.240399   9 H  s         
    28     -0.234078   6 C  px               23      0.234078   5 C  px        

 Vector   31  Occ=2.000000D+00  E=-2.874977D-01
              MO Center=  8.1D-08, -2.7D-09,  4.0D-12, r^2= 6.2D+00
   Bfn.  Coefficient  Atom+Function         Bfn.  Coefficient  Atom+Function  
  ----- ------------  ---------------      ----- ------------  ---------------
     9     -0.295420   2 C  py                4      0.295420   1 C  py        
    24      0.280156   5 C  py               29     -0.280156   6 C  py        
    32     -0.258071   8 H  s                31     -0.258071   7 H  s         
    19      0.221894   4 C  py               14     -0.221894   3 C  py        
    45     -0.182733  13 H  s                46     -0.182733  14 H  s         

 Vector   32  Occ=2.000000D+00  E=-2.634578D-01
              MO Center=  1.5D-08, -3.9D-09,  2.3D-11, r^2= 7.8D+00
   Bfn.  Coefficient  Atom+Function         Bfn.  Coefficient  Atom+Function  
  ----- ------------  ---------------      ----- ------------  ---------------
    39      0.376486  11 C  pz               44     -0.376486  12 C  pz        
    10      0.348959   2 C  pz                5     -0.348959   1 C  pz        
    56     -0.271398  16 C  pz               51      0.271398  15 C  pz        

 Vector   33  Occ=2.000000D+00  E=-2.123388D-01
              MO Center= -2.0D-08,  7.1D-09,  9.4D-12, r^2= 1.1D+01
   Bfn.  Coefficient  Atom+Function         Bfn.  Coefficient  Atom+Function  
  ----- ------------  ---------------      ----- ------------  ---------------
    56     -0.417955  16 C  pz               51     -0.417955  15 C  pz        
    39     -0.413785  11 C  pz               44     -0.413785  12 C  pz        
    15      0.179208   3 C  pz               20      0.179208   4 C  pz        
    25      0.176634   5 C  pz               30      0.176634   6 C  pz        

 Vector   34  Occ=2.000000D+00  E=-1.951707D-01
              MO Center= -5.0D-09, -1.0D-08, -3.3D-11, r^2= 2.7D+00
   Bfn.  Coefficient  Atom+Function         Bfn.  Coefficient  Atom+Function  
  ----- ------------  ---------------      ----- ------------  ---------------
    20     -0.463631   4 C  pz               15      0.463631   3 C  pz        
    30     -0.457532   6 C  pz               25      0.457532   5 C  pz        

 Vector   35  Occ=2.000000D+00  E=-1.529971D-01
              MO Center=  4.2D-08, -1.4D-10,  4.2D-11, r^2= 8.1D+00
   Bfn.  Coefficient  Atom+Function         Bfn.  Coefficient  Atom+Function  
  ----- ------------  ---------------      ----- ------------  ---------------
    51      0.397366  15 C  pz               56     -0.397366  16 C  pz        
     5      0.387556   1 C  pz               10     -0.387556   2 C  pz        
    25     -0.230755   5 C  pz               30      0.230755   6 C  pz        
    39      0.223675  11 C  pz               44     -0.223675  12 C  pz        
    20     -0.215062   4 C  pz               15      0.215062   3 C  pz        

 Vector   36  Occ=0.000000D+00  E= 3.750847D-02
              MO Center= -3.5D-08, -9.7D-10, -1.5D-11, r^2= 8.0D+00
   Bfn.  Coefficient  Atom+Function         Bfn.  Coefficient  Atom+Function  
  ----- ------------  ---------------      ----- ------------  ---------------
    56      0.449620  16 C  pz               51      0.449620  15 C  pz        
     5     -0.442667   1 C  pz               10     -0.442667   2 C  pz        
    30      0.277543   6 C  pz               25      0.277543   5 C  pz        
    44     -0.256133  12 C  pz               39     -0.256133  11 C  pz        
    15      0.232270   3 C  pz               20      0.232270   4 C  pz        

 Vector   37  Occ=0.000000D+00  E= 9.011489D-02
              MO Center=  5.0D-09,  9.9D-09,  2.2D-11, r^2= 2.7D+00
   Bfn.  Coefficient  Atom+Function         Bfn.  Coefficient  Atom+Function  
  ----- ------------  ---------------      ----- ------------  ---------------
    15      0.582688   3 C  pz               20      0.582688   4 C  pz        
    25     -0.553241   5 C  pz               30     -0.553241   6 C  pz        

 Vector   38  Occ=0.000000D+00  E= 1.107255D-01
              MO Center=  1.9D-08, -6.7D-09,  5.8D-12, r^2= 1.1D+01
   Bfn.  Coefficient  Atom+Function         Bfn.  Coefficient  Atom+Function  
  ----- ------------  ---------------      ----- ------------  ---------------
    51      0.523108  15 C  pz               56     -0.523108  16 C  pz        
    44      0.522164  12 C  pz               39     -0.522164  11 C  pz        
    20      0.240691   4 C  pz               15     -0.240691   3 C  pz        
    30     -0.232245   6 C  pz               25      0.232245   5 C  pz        

 Vector   39  Occ=0.000000D+00  E= 1.821997D-01
              MO Center= -9.5D-09,  1.9D-09, -4.5D-11, r^2= 7.9D+00
   Bfn.  Coefficient  Atom+Function         Bfn.  Coefficient  Atom+Function  
  ----- ------------  ---------------      ----- ------------  ---------------
    44     -0.529129  12 C  pz               39     -0.529129  11 C  pz        
     5      0.497221   1 C  pz               10      0.497221   2 C  pz        
    51      0.379694  15 C  pz               56      0.379694  16 C  pz        
    30     -0.199202   6 C  pz               25     -0.199202   5 C  pz        
    15     -0.166738   3 C  pz               20     -0.166738   4 C  pz        

 Vector   40  Occ=0.000000D+00  E= 2.723000D-01
              MO Center=  3.1D-08, -6.4D-09, -2.1D-11, r^2= 3.8D+00
   Bfn.  Coefficient  Atom+Function         Bfn.  Coefficient  Atom+Function  
  ----- ------------  ---------------      ----- ------------  ---------------
    10     -0.543478   2 C  pz                5      0.543478   1 C  pz        
    25      0.466879   5 C  pz               30     -0.466879   6 C  pz        
    20      0.464183   4 C  pz               15     -0.464183   3 C  pz        
    39      0.287729  11 C  pz               44     -0.287729  12 C  pz        
    51     -0.156153  15 C  pz               56      0.156153  16 C  pz        

 Vector   41  Occ=0.000000D+00  E= 3.324831D-01
              MO Center= -1.9D-07,  7.5D-08,  1.9D-11, r^2= 8.8D+00
   Bfn.  Coefficient  Atom+Function         Bfn.  Coefficient  Atom+Function  
  ----- ------------  ---------------      ----- ------------  ---------------
    33     -0.423787   9 H  s                34     -0.423787  10 H  s         
    31     -0.413785   7 H  s                32     -0.413785   8 H  s         
     2      0.401573   1 C  s                 7      0.401573   2 C  s         
    60     -0.358535  20 H  s                59     -0.358534  19 H  s         
    42     -0.339243  12 C  px               37      0.339243  11 C  px        

 Vector   42  Occ=0.000000D+00  E= 3.406435D-01
              MO Center=  9.3D-08, -8.6D-08,  1.2D-11, r^2= 1.0D+01
   Bfn.  Coefficient  Atom+Function         Bfn.  Coefficient  Atom+Function  
  ----- ------------  ---------------      ----- ------------  ---------------
    45     -0.433831  13 H  s                46      0.433831  14 H  s         
    19     -0.355386   4 C  py               14     -0.355386   3 C  py        
    38     -0.343550  11 C  py               43     -0.343550  12 C  py        
    57      0.323126  17 H  s                58     -0.323126  18 H  s         
    32     -0.321894   8 H  s                31      0.321894   7 H  s         

 Vector   43  Occ=0.000000D+00  E= 3.795205D-01
              MO Center=  2.4D-08,  1.2D-08,  3.7D-11, r^2= 7.8D+00
   Bfn.  Coefficient  Atom+Function         Bfn.  Coefficient  Atom+Function  
  ----- ------------  ---------------      ----- ------------  ---------------
    41     -0.546131  12 C  s                36      0.546131  11 C  s         
     3     -0.461072   1 C  px                8     -0.461072   2 C  px        
    33      0.405559   9 H  s                34     -0.405559  10 H  s         
    59      0.351678  19 H  s                60     -0.351678  20 H  s         
     7     -0.338391   2 C  s                 2      0.338391   1 C  s         

 Vector   44  Occ=0.000000D+00  E= 3.812887D-01
              MO Center=  2.1D-08,  1.6D-08,  2.2D-11, r^2= 1.2D+01
   Bfn.  Coefficient  Atom+Function         Bfn.  Coefficient  Atom+Function  
  ----- ------------  ---------------      ----- ------------  ---------------
    45     -0.579618  13 H  s                46     -0.579618  14 H  s         
    12     -0.393536   3 C  s                17     -0.393536   4 C  s         
    58      0.391423  18 H  s                57      0.391423  17 H  s         
    36      0.382177  11 C  s                41      0.382177  12 C  s         
    38     -0.338037  11 C  py               43      0.338037  12 C  py        

 Vector   45  Occ=0.000000D+00  E= 4.103418D-01
              MO Center= -2.6D-06, -9.0D-07,  2.8D-11, r^2= 1.1D+01
   Bfn.  Coefficient  Atom+Function         Bfn.  Coefficient  Atom+Function  
  ----- ------------  ---------------      ----- ------------  ---------------
    53     -0.647343  16 C  s                48     -0.647343  15 C  s         
    27     -0.620102   6 C  s                22     -0.620101   5 C  s         
    58      0.513316  18 H  s                57      0.513315  17 H  s         
    17      0.443643   4 C  s                12      0.443642   3 C  s         
    60      0.320779  20 H  s                59      0.320779  19 H  s         

 Vector   46  Occ=0.000000D+00  E= 4.112337D-01
              MO Center=  2.6D-06,  9.5D-07, -1.8D-10, r^2= 1.1D+01
   Bfn.  Coefficient  Atom+Function         Bfn.  Coefficient  Atom+Function  
  ----- ------------  ---------------      ----- ------------  ---------------
    22      0.613170   5 C  s                27     -0.613169   6 C  s         
    48      0.539728  15 C  s                53     -0.539727  16 C  s         
     7     -0.476221   2 C  s                 2      0.476221   1 C  s         
    57     -0.447804  17 H  s                58      0.447803  18 H  s         
    12     -0.440677   3 C  s                17      0.440676   4 C  s         

 Vector   47  Occ=0.000000D+00  E= 4.258005D-01
              MO Center=  4.3D-08, -1.9D-08,  3.0D-11, r^2= 9.2D+00
   Bfn.  Coefficient  Atom+Function         Bfn.  Coefficient  Atom+Function  
  ----- ------------  ---------------      ----- ------------  ---------------
    31     -0.603108   7 H  s                32      0.603108   8 H  s         
    36      0.446800  11 C  s                41     -0.446800  12 C  s         
    45     -0.437151  13 H  s                46      0.437151  14 H  s         
    12      0.368672   3 C  s                17     -0.368672   4 C  s         
    60      0.337699  20 H  s                59     -0.337699  19 H  s         

 Vector   48  Occ=0.000000D+00  E= 4.393581D-01
              MO Center= -1.8D-07, -2.5D-08, -9.3D-12, r^2= 7.5D+00
   Bfn.  Coefficient  Atom+Function         Bfn.  Coefficient  Atom+Function  
  ----- ------------  ---------------      ----- ------------  ---------------
     2      0.782306   1 C  s                 7      0.782306   2 C  s         
    41     -0.556800  12 C  s                36     -0.556800  11 C  s         
    17     -0.499689   4 C  s                12     -0.499689   3 C  s         
    27     -0.411537   6 C  s                22     -0.411536   5 C  s         
    53      0.409883  16 C  s                48      0.409883  15 C  s         

 Vector   49  Occ=0.000000D+00  E= 4.537210D-01
              MO Center=  2.2D-07, -1.3D-09,  1.1D-10, r^2= 1.2D+01
   Bfn.  Coefficient  Atom+Function         Bfn.  Coefficient  Atom+Function  
  ----- ------------  ---------------      ----- ------------  ---------------
    48      0.706743  15 C  s                53     -0.706742  16 C  s         
    57     -0.525566  17 H  s                58      0.525566  18 H  s         
    33      0.477099   9 H  s                34     -0.477099  10 H  s         
    36     -0.428986  11 C  s                41      0.428986  12 C  s         
    22     -0.407146   5 C  s                27      0.407146   6 C  s         

 Vector   50  Occ=0.000000D+00  E= 4.783349D-01
              MO Center= -1.5D-08, -5.4D-09, -2.2D-11, r^2= 1.1D+01
   Bfn.  Coefficient  Atom+Function         Bfn.  Coefficient  Atom+Function  
  ----- ------------  ---------------      ----- ------------  ---------------
    12     -0.706194   3 C  s                17     -0.706194   4 C  s         
    27      0.619408   6 C  s                22      0.619408   5 C  s         
    60      0.475200  20 H  s                59      0.475200  19 H  s         
    48     -0.415067  15 C  s                53     -0.415067  16 C  s         
    54      0.381998  16 C  px               49     -0.381998  15 C  px        

 Vector   51  Occ=0.000000D+00  E= 5.255610D-01
              MO Center= -8.7D-09,  4.2D-09, -5.6D-12, r^2= 6.5D+00
   Bfn.  Coefficient  Atom+Function         Bfn.  Coefficient  Atom+Function  
  ----- ------------  ---------------      ----- ------------  ---------------
     8     -0.602463   2 C  px                3      0.602463   1 C  px        
    36      0.491656  11 C  s                41      0.491656  12 C  s         
    14      0.453229   3 C  py               19     -0.453229   4 C  py        
     2      0.448710   1 C  s                 7      0.448710   2 C  s         
    55     -0.341444  16 C  py               50      0.341444  15 C  py        

 Vector   52  Occ=0.000000D+00  E= 5.463499D-01
              MO Center= -3.8D-09, -9.2D-09,  8.3D-12, r^2= 7.7D+00
   Bfn.  Coefficient  Atom+Function         Bfn.  Coefficient  Atom+Function  
  ----- ------------  ---------------      ----- ------------  ---------------
    17     -0.647792   4 C  s                12      0.647792   3 C  s         
     9     -0.560999   2 C  py                4     -0.560999   1 C  py        
    54     -0.483549  16 C  px               49     -0.483549  15 C  px        
    28      0.479121   6 C  px               23      0.479121   5 C  px        
    60     -0.356012  20 H  s                59      0.356012  19 H  s         

 Vector   53  Occ=0.000000D+00  E= 5.764341D-01
              MO Center=  1.1D-08,  3.3D-09, -2.8D-12, r^2= 5.4D+00
   Bfn.  Coefficient  Atom+Function         Bfn.  Coefficient  Atom+Function  
  ----- ------------  ---------------      ----- ------------  ---------------
    19      0.536195   4 C  py               14     -0.536195   3 C  py        
    24      0.523998   5 C  py               29     -0.523998   6 C  py        
    33     -0.519105   9 H  s                34     -0.519105  10 H  s         
    32      0.448312   8 H  s                31      0.448312   7 H  s         
    28     -0.397763   6 C  px               23      0.397762   5 C  px        

 Vector   54  Occ=0.000000D+00  E= 5.984354D-01
              MO Center=  2.7D-09,  6.1D-09,  1.6D-11, r^2= 4.8D+00
   Bfn.  Coefficient  Atom+Function         Bfn.  Coefficient  Atom+Function  
  ----- ------------  ---------------      ----- ------------  ---------------
    13      0.722023   3 C  px               18      0.722023   4 C  px        
    27      0.599920   6 C  s                22     -0.599920   5 C  s         
    41     -0.415406  12 C  s                36      0.415406  11 C  s         
     7     -0.405917   2 C  s                 2      0.405917   1 C  s         
    23      0.395775   5 C  px               28      0.395775   6 C  px        

 Vector   55  Occ=0.000000D+00  E= 6.248960D-01
              MO Center= -6.7D-08,  4.0D-11,  3.9D-12, r^2= 1.1D+01
   Bfn.  Coefficient  Atom+Function         Bfn.  Coefficient  Atom+Function  
  ----- ------------  ---------------      ----- ------------  ---------------
     7     -0.608531   2 C  s                 2      0.608530   1 C  s         
    55     -0.527790  16 C  py               50     -0.527790  15 C  py        
    42     -0.482100  12 C  px               37     -0.482100  11 C  px        
    24     -0.365123   5 C  py               29     -0.365123   6 C  py        
    58     -0.363295  18 H  s                57      0.363295  17 H  s         

 Vector   56  Occ=0.000000D+00  E= 6.398317D-01
              MO Center=  6.0D-08, -9.1D-10,  1.2D-11, r^2= 9.4D+00
   Bfn.  Coefficient  Atom+Function         Bfn.  Coefficient  Atom+Function  
  ----- ------------  ---------------      ----- ------------  ---------------
    38      0.548460  11 C  py               43     -0.548460  12 C  py        
    49      0.535095  15 C  px               54     -0.535095  16 C  px        
    18      0.384660   4 C  px               13     -0.384660   3 C  px        
     3      0.365119   1 C  px                8     -0.365119   2 C  px        
    59     -0.330755  19 H  s                60     -0.330755  20 H  s         

 Vector   57  Occ=0.000000D+00  E= 6.828343D-01
              MO Center=  1.3D-08, -2.2D-09,  9.2D-12, r^2= 9.3D+00
   Bfn.  Coefficient  Atom+Function         Bfn.  Coefficient  Atom+Function  
  ----- ------------  ---------------      ----- ------------  ---------------
    37      0.662569  11 C  px               42     -0.662569  12 C  px        
    50      0.581340  15 C  py               55     -0.581340  16 C  py        
    23     -0.449120   5 C  px               28      0.449120   6 C  px        
    18      0.391559   4 C  px               13     -0.391559   3 C  px        
     3     -0.381055   1 C  px                8      0.381055   2 C  px        

 Vector   58  Occ=0.000000D+00  E= 7.173543D-01
              MO Center= -3.7D-08,  2.8D-09, -1.2D-11, r^2= 9.6D+00
   Bfn.  Coefficient  Atom+Function         Bfn.  Coefficient  Atom+Function  
  ----- ------------  ---------------      ----- ------------  ---------------
    43      0.610179  12 C  py               38      0.610179  11 C  py        
    54      0.538642  16 C  px               49      0.538642  15 C  px        
    53      0.538014  16 C  s                48     -0.538014  15 C  s         
    41     -0.466540  12 C  s                36      0.466540  11 C  s         
    42      0.462030  12 C  px               37      0.462030  11 C  px        

 Vector   59  Occ=0.000000D+00  E= 7.790395D-01
              MO Center=  5.3D-08, -7.4D-09,  3.1D-12, r^2= 5.4D+00
   Bfn.  Coefficient  Atom+Function         Bfn.  Coefficient  Atom+Function  
  ----- ------------  ---------------      ----- ------------  ---------------
     9     -0.702662   2 C  py                4      0.702662   1 C  py        
    18     -0.532938   4 C  px               13      0.532938   3 C  px        
    29      0.434071   6 C  py               24     -0.434071   5 C  py        
    38      0.431315  11 C  py               43     -0.431315  12 C  py        
    23      0.413063   5 C  px               28     -0.413063   6 C  px        

 Vector   60  Occ=0.000000D+00  E= 7.942609D-01
              MO Center=  2.5D-08, -3.1D-09,  1.5D-11, r^2= 3.4D+00
   Bfn.  Coefficient  Atom+Function         Bfn.  Coefficient  Atom+Function  
  ----- ------------  ---------------      ----- ------------  ---------------
     8      0.658444   2 C  px                3      0.658444   1 C  px        
    19      0.567196   4 C  py               14      0.567196   3 C  py        
    24     -0.498359   5 C  py               29     -0.498359   6 C  py        
    22      0.413797   5 C  s                27     -0.413797   6 C  s         
    28     -0.393578   6 C  px               23     -0.393578   5 C  px        

                                 Final MO vectors
                                 ----------------


 global array: alpha evecs[1:60,1:60],  handle: -995 

            1           2           3           4           5           6  
       ----------- ----------- ----------- ----------- ----------- -----------
   1       0.69934     0.69926    -0.02747     0.02769    -0.00313    -0.02871
   2       0.03156     0.03135     0.00410    -0.00406     0.00078     0.00816
   3       0.00091     0.00063    -0.00417     0.00413    -0.00053     0.00309
   4      -0.00002     0.00004     0.00065    -0.00063    -0.00526    -0.00119
   5      -0.00000    -0.00000    -0.00000     0.00000     0.00000     0.00000
   6      -0.69927     0.69933     0.02746     0.02770    -0.00314     0.02871
   7      -0.03156     0.03135    -0.00410    -0.00406     0.00078    -0.00816
   8       0.00091    -0.00063    -0.00416    -0.00413     0.00052     0.00309
   9      -0.00002    -0.00004     0.00065     0.00063     0.00526    -0.00119
  10      -0.00000     0.00000    -0.00000    -0.00000    -0.00000     0.00000
  11      -0.01889    -0.01936     0.01175    -0.01471     0.44003    -0.42724
  12      -0.00774    -0.00693     0.00068    -0.00068     0.02447    -0.02417
  13       0.00261     0.00298     0.00002     0.00006     0.00367    -0.00384
  14       0.00355     0.00334    -0.00013     0.00019    -0.00100     0.00113
  15       0.00000     0.00000     0.00000     0.00000    -0.00000     0.00000
  16       0.01888    -0.01936    -0.01174    -0.01472     0.43987     0.42741
  17       0.00774    -0.00693    -0.00068    -0.00068     0.02446     0.02418
  18       0.00261    -0.00298     0.00002    -0.00006    -0.00367    -0.00384
  19       0.00354    -0.00334    -0.00013    -0.00019     0.00100     0.00113
  20       0.00000    -0.00000     0.00000    -0.00000     0.00000     0.00000
  21       0.01919    -0.01953    -0.00959    -0.01099    -0.54456     0.55347
  22       0.00771    -0.00687    -0.00055    -0.00042    -0.02809     0.02857
  23       0.00134    -0.00177     0.00010    -0.00001     0.00324    -0.00335
  24      -0.00416     0.00406     0.00013     0.00021    -0.00006    -0.00010
  25       0.00000    -0.00000    -0.00000     0.00000     0.00000    -0.00000
  26      -0.01919    -0.01952     0.00959    -0.01099    -0.54435    -0.55368
  27      -0.00771    -0.00687     0.00055    -0.00042    -0.02808    -0.02858
  28       0.00134     0.00177     0.00010     0.00001    -0.00324    -0.00336
  29      -0.00416    -0.00406     0.00013    -0.00021     0.00006    -0.00010
  30       0.00000     0.00000    -0.00000    -0.00000    -0.00000    -0.00000
  31       0.00034     0.00022    -0.00010     0.00011    -0.00407     0.00400
  32      -0.00034     0.00022     0.00010     0.00011    -0.00407    -0.00400
  33      -0.00033     0.00022    -0.00004    -0.00006     0.00504    -0.00513
  34       0.00033     0.00022     0.00004    -0.00006     0.00504     0.00513
  35       0.02700    -0.02737     0.69964     0.69984     0.00083     0.01373
  36       0.00671    -0.00678     0.03077     0.03077     0.00004     0.00073
  37      -0.00398     0.00402     0.00108     0.00109    -0.00003     0.00005
  38       0.00089    -0.00089     0.00076     0.00075    -0.00011     0.00006
  39       0.00000    -0.00000     0.00000     0.00000    -0.00000    -0.00000
  40      -0.02701    -0.02737    -0.69992     0.69956     0.00084    -0.01373
  41      -0.00671    -0.00677    -0.03079     0.03076     0.00004    -0.00073
  42      -0.00398    -0.00402     0.00108    -0.00109     0.00003     0.00005
  43       0.00089     0.00089     0.00076    -0.00075     0.00011     0.00006
  44       0.00000     0.00000     0.00000    -0.00000     0.00000    -0.00000
  45      -0.00032     0.00033    -0.00642    -0.00642     0.00000    -0.00018
  46       0.00032     0.00033     0.00642    -0.00641     0.00000     0.00018
  47      -0.00018     0.00019    -0.00810    -0.00810     0.00029    -0.00093
  48      -0.00047     0.00047    -0.00762    -0.00762     0.00005    -0.00028
  49       0.00028    -0.00029     0.00343     0.00343    -0.00001     0.00014
  50      -0.00001     0.00000     0.00306     0.00306     0.00003     0.00003
  51      -0.00000     0.00000    -0.00000    -0.00000     0.00000    -0.00000
  52       0.00018     0.00019     0.00810    -0.00809     0.00029     0.00093
  53       0.00047     0.00047     0.00762    -0.00761     0.00005     0.00028
  54       0.00028     0.00029     0.00343    -0.00342     0.00001     0.00014
  55      -0.00001    -0.00000     0.00306    -0.00306    -0.00003     0.00003
  56      -0.00000     0.00000    -0.00000     0.00000    -0.00000    -0.00000
  57       0.00015    -0.00014     0.00019     0.00019    -0.00016     0.00015
  58      -0.00015    -0.00014    -0.00019     0.00019    -0.00016    -0.00015
  59       0.00003    -0.00003     0.00022     0.00022     0.00000    -0.00001
  60      -0.00003    -0.00003    -0.00022     0.00022     0.00000     0.00001

            7           8           9          10          11          12  
       ----------- ----------- ----------- ----------- ----------- -----------
   1      -0.00353    -0.02947     0.00018    -0.00017     0.10786     0.10355
   2       0.00106     0.00750     0.00016    -0.00015    -0.27470    -0.27378
   3       0.00124     0.00308    -0.00005     0.00005    -0.04075     0.03300
   4       0.00501     0.00005    -0.00002     0.00002     0.00531    -0.00431
   5      -0.00000     0.00000    -0.00000    -0.00000     0.00000     0.00000
   6       0.00353    -0.02947    -0.00017    -0.00018     0.10786    -0.10355
   7      -0.00106     0.00750    -0.00016    -0.00016    -0.27470     0.27378
   8       0.00124    -0.00308    -0.00005    -0.00005     0.04075     0.03300
   9       0.00501    -0.00005    -0.00002    -0.00002    -0.00531    -0.00431
  10      -0.00000    -0.00000    -0.00000     0.00000    -0.00000     0.00000
  11      -0.55455    -0.54456     0.00029    -0.00056     0.09784     0.03906
  12      -0.02046    -0.01979    -0.00000     0.00006    -0.24702    -0.10222
  13       0.00224     0.00235     0.00008    -0.00003    -0.01474     0.05883
  14       0.00024    -0.00012     0.00001    -0.00002     0.05331     0.02766
  15       0.00000     0.00000     0.00000     0.00000     0.00000    -0.00000
  16       0.55455    -0.54457    -0.00026    -0.00057     0.09784    -0.03906
  17       0.02046    -0.01979     0.00000     0.00006    -0.24702     0.10222
  18       0.00224    -0.00235     0.00008     0.00003     0.01474     0.05883
  19       0.00024     0.00012     0.00001     0.00002    -0.05331     0.02766
  20       0.00000    -0.00000     0.00000    -0.00000    -0.00000     0.00000
  21      -0.42863    -0.44018    -0.00077    -0.00086     0.09757    -0.04279
  22      -0.01369    -0.01425     0.00002     0.00004    -0.24669     0.11255
  23      -0.00300    -0.00301     0.00010     0.00009     0.03122     0.04689
  24       0.00093     0.00066    -0.00001    -0.00000     0.04590    -0.04440
  25       0.00000     0.00000    -0.00000     0.00000     0.00000     0.00000
  26       0.42862    -0.44019     0.00080    -0.00083     0.09757     0.04279
  27       0.01369    -0.01425    -0.00002     0.00004    -0.24669    -0.11255
  28      -0.00300     0.00301     0.00011    -0.00009    -0.03122     0.04689
  29       0.00093    -0.00066    -0.00001     0.00000    -0.04590    -0.04440
  30       0.00000    -0.00000    -0.00000    -0.00000     0.00000    -0.00000
  31       0.00489     0.00496    -0.00001     0.00002    -0.04495    -0.02686
  32      -0.00489     0.00496     0.00001     0.00002    -0.04495     0.02686
  33       0.00373     0.00402    -0.00010    -0.00011    -0.04519     0.03076
  34      -0.00373     0.00402     0.00011    -0.00010    -0.04519    -0.03076
  35       0.00332    -0.01729    -0.00881    -0.00918     0.04972    -0.11382
  36       0.00017    -0.00075     0.00675     0.00703    -0.12781     0.29717
  37       0.00002    -0.00019     0.00329     0.00343     0.02851    -0.00866
  38      -0.00001    -0.00003     0.00303     0.00316    -0.01277     0.03415
  39       0.00000    -0.00000     0.00000     0.00000    -0.00000     0.00000
  40      -0.00332    -0.01729     0.00918    -0.00881     0.04972     0.11382
  41      -0.00017    -0.00075    -0.00703     0.00675    -0.12781    -0.29717
  42       0.00002     0.00019     0.00343    -0.00329    -0.02851    -0.00866
  43      -0.00001     0.00003     0.00316    -0.00303     0.01277     0.03415
  44       0.00000     0.00000    -0.00000     0.00000     0.00000     0.00000
  45      -0.00005     0.00025    -0.00004    -0.00004    -0.02560     0.06702
  46       0.00005     0.00025     0.00004    -0.00004    -0.02560    -0.06702
  47       0.00022     0.00115    -0.68588    -0.71478     0.02467    -0.08073
  48      -0.00003     0.00033    -0.03022    -0.03149    -0.06268     0.20931
  49       0.00001    -0.00018     0.00091     0.00095     0.02030    -0.04973
  50       0.00005    -0.00005     0.00087     0.00091     0.01249    -0.03752
  51      -0.00000    -0.00000    -0.00000    -0.00000    -0.00000    -0.00000
  52      -0.00022     0.00115     0.71478    -0.68588     0.02467     0.08073
  53       0.00003     0.00033     0.03149    -0.03022    -0.06268    -0.20931
  54       0.00001     0.00018     0.00095    -0.00091    -0.02030    -0.04973
  55       0.00005     0.00005     0.00091    -0.00087    -0.01249    -0.03752
  56      -0.00000     0.00000    -0.00000     0.00000     0.00000     0.00000
  57      -0.00009    -0.00010     0.00623     0.00649    -0.01412     0.04858
  58       0.00009    -0.00010    -0.00649     0.00623    -0.01412    -0.04858
  59       0.00001     0.00001     0.00624     0.00650    -0.01058     0.04369
  60      -0.00001     0.00001    -0.00650     0.00624    -0.01058    -0.04369

           13          14          15          16          17          18  
       ----------- ----------- ----------- ----------- ----------- -----------
   1       0.00453     0.01260     0.09965    -0.07098    -0.05432     0.01303
   2      -0.01482    -0.03409    -0.27407     0.20638     0.16080    -0.03709
   3       0.09620    -0.02241    -0.05630    -0.07269    -0.06308    -0.13518
   4      -0.00992    -0.12509     0.01755     0.12073    -0.18516     0.05296
   5       0.00000     0.00000    -0.00000    -0.00000    -0.00000    -0.00000
   6       0.00453    -0.01260    -0.09965    -0.07098    -0.05432    -0.01303
   7      -0.01482     0.03409     0.27407     0.20638     0.16080     0.03709
   8      -0.09620    -0.02241    -0.05630     0.07269     0.06308    -0.13518
   9       0.00992    -0.12509     0.01755    -0.12073     0.18516     0.05296
  10       0.00000     0.00000    -0.00000     0.00000     0.00000     0.00000
  11      -0.04631     0.13232     0.04077    -0.00303     0.11045     0.05067
  12       0.12146    -0.35714    -0.11268     0.01004    -0.32603    -0.15447
  13       0.03711    -0.05619     0.09124    -0.15987     0.03690     0.00481
  14      -0.01597    -0.00376     0.03831    -0.03067    -0.08151     0.00526
  15       0.00000     0.00000     0.00000     0.00000     0.00000    -0.00000
  16      -0.04631    -0.13232    -0.04077    -0.00303     0.11045    -0.05067
  17       0.12146     0.35714     0.11268     0.01004    -0.32603     0.15447
  18      -0.03711    -0.05619     0.09124     0.15987    -0.03690     0.00481
  19       0.01597    -0.00376     0.03831     0.03067     0.08151     0.00526
  20      -0.00000     0.00000     0.00000    -0.00000    -0.00000     0.00000
  21      -0.04173     0.12009    -0.07330     0.08191    -0.05747    -0.03036
  22       0.10894    -0.32390     0.20229    -0.23381     0.17074     0.09205
  23      -0.04734     0.06579     0.04722     0.02320     0.17084     0.07874
  24      -0.00226    -0.03435    -0.05384    -0.06538    -0.08574    -0.03546
  25       0.00000     0.00000    -0.00000     0.00000     0.00000     0.00000
  26      -0.04173    -0.12009     0.07330     0.08191    -0.05747     0.03036
  27       0.10894     0.32390    -0.20229    -0.23381     0.17074    -0.09205
  28       0.04734     0.06579     0.04722    -0.02320    -0.17084     0.07874
  29       0.00226    -0.03435    -0.05384     0.06538     0.08574    -0.03546
  30       0.00000     0.00000     0.00000    -0.00000    -0.00000     0.00000
  31       0.02335    -0.09831    -0.03218     0.01929    -0.16924    -0.05033
  32       0.02335     0.09831     0.03218     0.01929    -0.16924     0.05033
  33       0.01660    -0.08999     0.05346    -0.10642     0.08383     0.05580
  34       0.01660     0.08999    -0.05346    -0.10642     0.08383    -0.05580
  35       0.11924    -0.00020     0.05162    -0.05306    -0.00758     0.09885
  36      -0.31482     0.00128    -0.13685     0.15961     0.02450    -0.30276
  37      -0.05727    -0.01838    -0.12887    -0.12888    -0.07814     0.04053
  38      -0.04562    -0.02304    -0.03979    -0.08188     0.04624     0.11624
  39      -0.00000    -0.00000    -0.00000    -0.00000    -0.00000    -0.00000
  40       0.11924     0.00020    -0.05162    -0.05306    -0.00758    -0.09885
  41      -0.31482    -0.00128     0.13685     0.15961     0.02450     0.30276
  42       0.05727    -0.01838    -0.12887     0.12888     0.07814     0.04053
  43       0.04562    -0.02304    -0.03979     0.08188    -0.04624     0.11624
  44       0.00000    -0.00000    -0.00000    -0.00000     0.00000    -0.00000
  45      -0.07653     0.00984    -0.03764     0.08003    -0.03217    -0.17052
  46      -0.07653    -0.00984     0.03764     0.08003    -0.03217     0.17052
  47       0.11746     0.01450     0.11027     0.08371     0.03787    -0.08074
  48      -0.30976    -0.03792    -0.29950    -0.24141    -0.11347     0.24917
  49       0.05257     0.00637     0.01621    -0.03810    -0.04949     0.09070
  50       0.04933    -0.00154     0.03460    -0.03577     0.01367     0.12357
  51       0.00000    -0.00000     0.00000     0.00000    -0.00000    -0.00000
  52       0.11746    -0.01450    -0.11027     0.08371     0.03787     0.08074
  53      -0.30976     0.03792     0.29950    -0.24141    -0.11347    -0.24917
  54      -0.05257     0.00637     0.01621     0.03810     0.04949     0.09070
  55      -0.04933    -0.00154     0.03460     0.03577    -0.01367     0.12357
  56       0.00000    -0.00000    -0.00000     0.00000     0.00000    -0.00000
  57      -0.07420    -0.01478    -0.07740    -0.10354    -0.02278     0.16062
  58      -0.07420     0.01478     0.07740    -0.10354    -0.02278    -0.16062
  59      -0.07484    -0.00894    -0.08996    -0.09775    -0.06787     0.12474
  60      -0.07484     0.00894     0.08996    -0.09775    -0.06787    -0.12474

           19          20          21          22          23          24  
       ----------- ----------- ----------- ----------- ----------- -----------
   1       0.05453    -0.03229     0.02276    -0.06945     0.02278    -0.02167
   2      -0.16217     0.10634    -0.07804     0.23531    -0.07753     0.07158
   3      -0.14247    -0.13251     0.13451     0.02692    -0.14434    -0.01028
   4      -0.02014     0.05081     0.12546     0.10120     0.22015     0.01569
   5      -0.00000    -0.00000     0.00000    -0.00000    -0.00000     0.00000
   6       0.05453    -0.03229    -0.02276     0.06945    -0.02278    -0.02167
   7      -0.16217     0.10634     0.07804    -0.23531     0.07753     0.07158
   8       0.14247     0.13251     0.13451     0.02692    -0.14434     0.01028
   9       0.02014    -0.05081     0.12546     0.10120     0.22015    -0.01569
  10       0.00000     0.00000     0.00000    -0.00000    -0.00000    -0.00000
  11      -0.00697    -0.01336    -0.02216     0.04738     0.00126     0.02514
  12       0.02555     0.05157     0.07459    -0.16296    -0.00150    -0.08397
  13       0.08704    -0.14202    -0.18505    -0.06055    -0.12067    -0.08213
  14       0.18490     0.13625     0.01772    -0.22255     0.00259     0.00597
  15       0.00000    -0.00000    -0.00000    -0.00000     0.00000    -0.00000
  16      -0.00697    -0.01336     0.02216    -0.04738    -0.00126     0.02514
  17       0.02555     0.05157    -0.07459     0.16296     0.00150    -0.08397
  18      -0.08704     0.14202    -0.18505    -0.06055    -0.12067     0.08213
  19      -0.18490    -0.13625     0.01772    -0.22255     0.00259    -0.00597
  20      -0.00000     0.00000    -0.00000    -0.00000     0.00000    -0.00000
  21      -0.05224     0.01978     0.04259    -0.04406    -0.01174    -0.01824
  22       0.16603    -0.05620    -0.13898     0.15292     0.03666     0.06801
  23       0.03637     0.13561     0.10193     0.17744     0.05791     0.13654
  24       0.20206     0.08526    -0.09623     0.11363    -0.25097     0.03776
  25       0.00000    -0.00000    -0.00000    -0.00000     0.00000    -0.00000
  26      -0.05224     0.01978    -0.04259     0.04406     0.01174    -0.01824
  27       0.16603    -0.05620     0.13898    -0.15292    -0.03666     0.06801
  28      -0.03637    -0.13561     0.10193     0.17744     0.05791    -0.13654
  29      -0.20206    -0.08526    -0.09623     0.11363    -0.25097    -0.03776
  30      -0.00000     0.00000    -0.00000    -0.00000     0.00000     0.00000
  31       0.09946     0.13601     0.10021    -0.22666     0.03673    -0.00607
  32       0.09946     0.13601    -0.10021     0.22666    -0.03673    -0.00607
  33       0.16928     0.09041    -0.05989     0.23046    -0.13275     0.11408
  34       0.16928     0.09041     0.05989    -0.23046     0.13275     0.11408
  35      -0.05912     0.04018    -0.01690    -0.01529     0.00257     0.02765
  36       0.18076    -0.12770     0.05160     0.04228    -0.01492    -0.08059
  37       0.00178    -0.18518    -0.10206     0.12511     0.18129    -0.08056
  38      -0.06454     0.11396     0.21876     0.03866     0.04374    -0.25188
  39      -0.00000    -0.00000     0.00000    -0.00000     0.00000    -0.00000
  40      -0.05912     0.04018     0.01690     0.01529    -0.00257     0.02765
  41       0.18076    -0.12770    -0.05160    -0.04228     0.01492    -0.08059
[...]
   16  C                 -0.0237846158   0.0000000816   0.0006810697   0.0000150778  -0.0000068480  -0.0040269188   0.0000293110
   17  H                 -0.0000002517  -0.0035544824  -0.0000120051   0.0000126267  -0.0006066904  -0.0000003650   0.0000023141
   18  H                 -0.0035544824  -0.0000002517   0.0000126267  -0.0000120051  -0.0000003650  -0.0006066904   0.0000007853
   19  H                  0.0000000066   0.0013150353   0.0000000870  -0.0000156416   0.0000185835   0.0000001058  -0.0000000105
   20  H                  0.0013150353   0.0000000066  -0.0000156416   0.0000000870   0.0000001058   0.0000185835  -0.0000022407

                               8              9             10             11             12             13             14

    1  C                  0.0013312035   0.0013296914  -0.0247906949   0.0000161072   0.4118042431  -0.0000006605  -0.0258850842
    2  C                 -0.0251556957  -0.0247906948   0.0013296914   0.4118042432   0.0000161072  -0.0258850841  -0.0000006605
    3  C                  0.0000371731  -0.0250475247   0.0013458189   0.0007473317  -0.0288384143  -0.0000167731  -0.0039327802
    4  C                  0.3879237730   0.0013458189  -0.0250475247  -0.0288384143   0.0007473317  -0.0039327802  -0.0000167731
    5  C                  0.0013317127   0.3880028298   0.0000328207  -0.0241083197   0.0008235793   0.0010788382   0.0000217885
    6  C                 -0.0251740134   0.0000328207   0.3880028297   0.0008235793  -0.0241083196   0.0000217885   0.0010788382
    7  H                  0.0000018820  -0.0037654064  -0.0000339100  -0.0000141967  -0.0038818741   0.0000003536   0.0010174695
    8  H                  0.5883583608  -0.0000339100  -0.0037654064  -0.0038818741  -0.0000141967   0.0010174695   0.0000003536
    9  H                 -0.0000339100   0.5867772398   0.0000019355  -0.0030996839  -0.0000151712   0.0000193701  -0.0000015818
   10  H                 -0.0037654064   0.0000019355   0.5867772393  -0.0000151712  -0.0030996839  -0.0000015818   0.0000193701
   11  C                 -0.0038818741  -0.0030996839  -0.0000151712   4.7987477768   0.0000000818   0.3861017804  -0.0000000004
   12  C                 -0.0000141967  -0.0000151712  -0.0030996839   0.0000000818   4.7987477700  -0.0000000004   0.3861017805
   13  H                  0.0010174695   0.0000193701  -0.0000015818   0.3861017804  -0.0000000004   0.5957528960   0.0000000000
   14  H                  0.0000003536  -0.0000015818   0.0000193701  -0.0000000004   0.3861017805   0.0000000000   0.5957528959
   15  C                  0.0000293110  -0.0006458719   0.0000000940   0.5860225810  -0.0000000000  -0.0278027659   0.0000000000
   16  C                  0.0000000622   0.0000000940  -0.0006458719  -0.0000000000   0.5860225811   0.0000000000  -0.0278027658
   17  H                  0.0000007853   0.0005849006   0.0000000072  -0.0239469453   0.0000000000   0.0020548830  -0.0000000000
   18  H                  0.0000023141   0.0000000072   0.0005849007   0.0000000000  -0.0239469453  -0.0000000000   0.0020548830
   19  H                 -0.0000022407  -0.0000171462  -0.0000000019  -0.0239849449  -0.0000000000  -0.0050996351  -0.0000000000
   20  H                 -0.0000000105  -0.0000000019  -0.0000171462  -0.0000000000  -0.0239849448  -0.0000000000  -0.0050996351

                              15             16             17             18             19             20
    1  C                  0.0000000816  -0.0237846158  -0.0000002517  -0.0035544824   0.0000000066   0.0013150353
    2  C                 -0.0237846157   0.0000000816  -0.0035544824  -0.0000002517   0.0013150353   0.0000000066
    3  C                  0.0000150778   0.0006810697  -0.0000120051   0.0000126267   0.0000000870  -0.0000156416
    4  C                  0.0006810697   0.0000150778   0.0000126267  -0.0000120051  -0.0000156416   0.0000000870
    5  C                 -0.0040269188  -0.0000068480  -0.0006066904  -0.0000003650   0.0000185835   0.0000001058
    6  C                 -0.0000068480  -0.0040269188  -0.0000003650  -0.0006066904   0.0000001058   0.0000185835
    7  H                  0.0000000622   0.0000293110   0.0000023141   0.0000007853  -0.0000000105  -0.0000022407
    8  H                  0.0000293110   0.0000000622   0.0000007853   0.0000023141  -0.0000022407  -0.0000000105
    9  H                 -0.0006458719   0.0000000940   0.0005849006   0.0000000072  -0.0000171462  -0.0000000019
   10  H                  0.0000000940  -0.0006458719   0.0000000072   0.0005849007  -0.0000000019  -0.0000171462
   11  C                  0.5860225810  -0.0000000000  -0.0239469453   0.0000000000  -0.0239849449  -0.0000000000
   12  C                 -0.0000000000   0.5860225811   0.0000000000  -0.0239469453  -0.0000000000  -0.0239849448
   13  H                 -0.0278027659   0.0000000000   0.0020548830  -0.0000000000  -0.0050996351  -0.0000000000
   14  H                  0.0000000000  -0.0278027658  -0.0000000000   0.0020548830  -0.0000000000  -0.0050996351
   15  C                  4.8501659760  -0.0000000000   0.3859171803   0.0000000000   0.3882440217   0.0000000000
   16  C                 -0.0000000000   4.8501659841   0.0000000000   0.3859171802   0.0000000000   0.3882440216
   17  H                  0.3859171803   0.0000000000   0.5870984486  -0.0000000000  -0.0236635882   0.0000000000
   18  H                  0.0000000000   0.3859171802  -0.0000000000   0.5870984471   0.0000000000  -0.0236635882
   19  H                  0.3882440217   0.0000000000  -0.0236635882   0.0000000000   0.5839060649  -0.0000000000
   20  H                  0.0000000000   0.3882440216   0.0000000000  -0.0236635882  -0.0000000000   0.5839060629

 Total      S,P,D,... shell population
 --------------------------------
    Atom          S        P
 --------------------------------------------------------------------------------------
     1 C      3.13682   2.86756
     2 C      3.13682   2.86756
     3 C      3.15100   2.92573
     4 C      3.15100   2.92573
     5 C      3.14877   2.92835
     6 C      3.14877   2.92835
     7 H      0.92201   0.00000
     8 H      0.92201   0.00000
     9 H      0.92068   0.00000
    10 H      0.92068   0.00000
    11 C      3.15392   2.92245
    12 C      3.15392   2.92245
    13 H      0.92331   0.00000
    14 H      0.92331   0.00000
    15 C      3.16903   2.98578
    16 C      3.16903   2.98578
    17 H      0.92389   0.00000
    18 H      0.92389   0.00000
    19 H      0.92070   0.00000
    20 H      0.92070   0.00000

          ----- Total      gross population on atoms ----

              1  C    6.0     6.00439
              2  C    6.0     6.00439
              3  C    6.0     6.07672
              4  C    6.0     6.07672
              5  C    6.0     6.07713
              6  C    6.0     6.07713
              7  H    1.0     0.92201
              8  H    1.0     0.92201
              9  H    1.0     0.92068
             10  H    1.0     0.92068
             11  C    6.0     6.07637
             12  C    6.0     6.07637
             13  H    1.0     0.92331
             14  H    1.0     0.92331
             15  C    6.0     6.15481
             16  C    6.0     6.15481
             17  H    1.0     0.92389
             18  H    1.0     0.92389
             19  H    1.0     0.92070
             20  H    1.0     0.92070

          ----- Bond indices -----
  1- 1   0.00000  1- 2   0.09858  1- 3   1.36307  1- 4   0.00313  1- 5   0.00305  1- 6   1.36519  1- 7   0.00447  1- 8   0.00733
  2- 1   0.09858  2- 2   0.00000  2- 3   0.00313  2- 4   1.36307  2- 5   1.36519  2- 6   0.00305  2- 7   0.00733  2- 8   0.00447
  3- 1   1.36307  3- 2   0.00313  3- 3   0.00000  3- 4   0.09865  3- 5   1.46517  3- 6   0.00361  3- 7   0.96133  3- 8   0.00021
  4- 1   0.00313  4- 2   1.36307  4- 3   0.09865  4- 4   0.00000  4- 5   0.00361  4- 6   1.46517  4- 7   0.00021  4- 8   0.96133
  5- 1   0.00305  5- 2   1.36519  5- 3   1.46517  5- 4   0.00361  5- 5   0.00000  5- 6   0.10218  5- 7   0.00381  5- 8   0.00699
  6- 1   1.36519  6- 2   0.00305  6- 3   0.00361  6- 4   1.46517  6- 5   0.10218  6- 6   0.00000  6- 7   0.00699  6- 8   0.00381
  7- 1   0.00447  7- 2   0.00733  7- 3   0.96133  7- 4   0.00021  7- 5   0.00381  7- 6   0.00699  7- 7   0.00000  7- 8   0.00007
  8- 1   0.00733  8- 2   0.00447  8- 3   0.00021  8- 4   0.96133  8- 5   0.00699  8- 6   0.00381  8- 7   0.00007  8- 8   0.00000
  9- 1   0.00729  9- 2   0.00424  9- 3   0.00373  9- 4   0.00702  9- 5   0.95946  9- 6   0.00019  9- 7   0.00292  9- 8   0.00118
 10- 1   0.00424 10- 2   0.00729 10- 3   0.00702 10- 4   0.00373 10- 5   0.00019 10- 6   0.95946 10- 7   0.00118 10- 8   0.00292
 11- 1   0.00023 11- 2   1.06640 11- 3   0.00888 11- 4   0.00560 11- 5   0.00473 11- 6   0.00771 11- 7   0.00097 11- 8   0.00271
 12- 1   1.06640 12- 2   0.00023 12- 3   0.00560 12- 4   0.00888 12- 5   0.00771 12- 6   0.00473 12- 7   0.00271 12- 8   0.00097
 13- 1   0.00004 13- 2   0.00563 13- 3   0.00073 13- 4   0.00197 13- 5   0.00605 13- 6   0.00007 13- 7   0.00029 13- 8   0.00141
 14- 1   0.00563 14- 2   0.00004 14- 3   0.00197 14- 4   0.00073 14- 5   0.00007 14- 6   0.00605 14- 7   0.00141 14- 8   0.00029
 15- 1   0.02591 15- 2   0.00353 15- 3   0.00033 15- 4   0.04473 15- 5   0.04010 15- 6   0.00077 15- 7   0.00002 15- 8   0.00009
 16- 1   0.00353 16- 2   0.02591 16- 3   0.04473 16- 4   0.00033 16- 5   0.00077 16- 6   0.04010 16- 7   0.00009 16- 8   0.00002
 17- 1   0.00001 17- 2   0.00446 17- 3   0.00011 17- 4   0.00015 17- 5   0.00034 17- 6   0.00002 17- 7   0.00002 17- 8   0.00002
 18- 1   0.00446 18- 2   0.00001 18- 3   0.00015 18- 4   0.00011 18- 5   0.00002 18- 6   0.00034 18- 7   0.00002 18- 8   0.00002
 19- 1   0.00003 19- 2   0.01046 19- 3   0.00000 19- 4   0.00080 19- 5   0.00042 19- 6   0.00023 19- 7   0.00002 19- 8   0.00006
 20- 1   0.01046 20- 2   0.00003 20- 3   0.00080 20- 4   0.00000 20- 5   0.00023 20- 6   0.00042 20- 7   0.00006 20- 8   0.00002
  1- 9   0.00729  1-10   0.00424  1-11   0.00023  1-12   1.06640  1-13   0.00004  1-14   0.00563  1-15   0.02591  1-16   0.00353
  2- 9   0.00424  2-10   0.00729  2-11   1.06640  2-12   0.00023  2-13   0.00563  2-14   0.00004  2-15   0.00353  2-16   0.02591
  3- 9   0.00373  3-10   0.00702  3-11   0.00888  3-12   0.00560  3-13   0.00073  3-14   0.00197  3-15   0.00033  3-16   0.04473
  4- 9   0.00702  4-10   0.00373  4-11   0.00560  4-12   0.00888  4-13   0.00197  4-14   0.00073  4-15   0.04473  4-16   0.00033
  5- 9   0.95946  5-10   0.00019  5-11   0.00473  5-12   0.00771  5-13   0.00605  5-14   0.00007  5-15   0.04010  5-16   0.00077
  6- 9   0.00019  6-10   0.95946  6-11   0.00771  6-12   0.00473  6-13   0.00007  6-14   0.00605  6-15   0.00077  6-16   0.04010
  7- 9   0.00292  7-10   0.00118  7-11   0.00097  7-12   0.00271  7-13   0.00029  7-14   0.00141  7-15   0.00002  7-16   0.00009
  8- 9   0.00118  8-10   0.00292  8-11   0.00271  8-12   0.00097  8-13   0.00141  8-14   0.00029  8-15   0.00009  8-16   0.00002
  9- 9   0.00000  9-10   0.00008  9-11   0.00301  9-12   0.00095  9-13   0.00010  9-14   0.00004  9-15   0.00040  9-16   0.00016
 10- 9   0.00008 10-10   0.00000 10-11   0.00095 10-12   0.00301 10-13   0.00004 10-14   0.00010 10-15   0.00016 10-16   0.00040
 11- 9   0.00301 11-10   0.00095 11-11   0.00000 11-12   0.00044 11-13   0.95915 11-14   0.00000 11-15   1.90133 11-16   0.00003
 12- 9   0.00095 12-10   0.00301 12-11   0.00044 12-12   0.00000 12-13   0.00000 12-14   0.95915 12-15   0.00003 12-16   1.90133
 13- 9   0.00010 13-10   0.00004 13-11   0.95915 13-12   0.00000 13-13   0.00000 13-14   0.00000 13-15   0.00281 13-16   0.00000
 14- 9   0.00004 14-10   0.00010 14-11   0.00000 14-12   0.95915 14-13   0.00000 14-14   0.00000 14-15   0.00000 14-16   0.00281
 15- 9   0.00040 15-10   0.00016 15-11   1.90133 15-12   0.00003 15-13   0.00281 15-14   0.00000 15-15   0.00000 15-16   0.00895
 16- 9   0.00016 16-10   0.00040 16-11   0.00003 16-12   1.90133 16-13   0.00000 16-14   0.00281 16-15   0.00895 16-16   0.00000
 17- 9   0.00273 17-10   0.00002 17-11   0.00313 17-12   0.00000 17-13   0.01161 17-14   0.00000 17-15   0.96639 17-16   0.00000
 18- 9   0.00002 18-10   0.00273 18-11   0.00000 18-12   0.00313 18-13   0.00000 18-14   0.01161 18-15   0.00000 18-16   0.96639
 19- 9   0.00012 19-10   0.00007 19-11   0.00283 19-12   0.00000 19-13   0.00423 19-14   0.00000 19-15   0.96924 19-16   0.00000
 20- 9   0.00007 20-10   0.00012 20-11   0.00000 20-12   0.00283 20-13   0.00000 20-14   0.00423 20-15   0.00000 20-16   0.96924
  1-17   0.00001  1-18   0.00446  1-19   0.00003  1-20   0.01046
  2-17   0.00446  2-18   0.00001  2-19   0.01046  2-20   0.00003
  3-17   0.00011  3-18   0.00015  3-19   0.00000  3-20   0.00080
  4-17   0.00015  4-18   0.00011  4-19   0.00080  4-20   0.00000
  5-17   0.00034  5-18   0.00002  5-19   0.00042  5-20   0.00023
  6-17   0.00002  6-18   0.00034  6-19   0.00023  6-20   0.00042
  7-17   0.00002  7-18   0.00002  7-19   0.00002  7-20   0.00006
  8-17   0.00002  8-18   0.00002  8-19   0.00006  8-20   0.00002
  9-17   0.00273  9-18   0.00002  9-19   0.00012  9-20   0.00007
 10-17   0.00002 10-18   0.00273 10-19   0.00007 10-20   0.00012
 11-17   0.00313 11-18   0.00000 11-19   0.00283 11-20   0.00000
 12-17   0.00000 12-18   0.00313 12-19   0.00000 12-20   0.00283
 13-17   0.01161 13-18   0.00000 13-19   0.00423 13-20   0.00000
 14-17   0.00000 14-18   0.01161 14-19   0.00000 14-20   0.00423
 15-17   0.96639 15-18   0.00000 15-19   0.96924 15-20   0.00000
 16-17   0.00000 16-18   0.96639 16-19   0.00000 16-20   0.96924
 17-17   0.00000 17-18   0.00000 17-19   0.00520 17-20   0.00000
 18-17   0.00000 18-18   0.00000 18-19   0.00000 18-20   0.00520
 19-17   0.00520 19-18   0.00000 19-19   0.00000 19-20   0.00000
 20-17   0.00000 20-18   0.00520 20-19   0.00000 20-20   0.00000

 Large bond indices
 ------------------
  1   C -  3   C    1.36307
  1   C -  6   C    1.36519
  1   C - 12   C    1.06640
  2   C -  4   C    1.36307
  2   C -  5   C    1.36519
  2   C - 11   C    1.06640
  3   C -  5   C    1.46517
  3   C -  7   H    0.96133
  4   C -  6   C    1.46517
  4   C -  8   H    0.96133
  5   C -  6   C    0.10218
  5   C -  9   H    0.95946
  6   C - 10   H    0.95946
 11   C - 13   H    0.95915
 11   C - 15   C    1.90133
 12   C - 14   H    0.95915
 12   C - 16   C    1.90133
 15   C - 17   H    0.96639
 15   C - 19   H    0.96924
 16   C - 18   H    0.96639
 16   C - 20   H    0.96924

                                                                Free electrons             Valency
                              Number of         Sum of          + Bond indices         - Bond indices    
                Valency     Free electrons    Bond indices     =Mulliken charge     = Net spin population
     1  C       3.97306        2.03133          3.97306           6.00439                -0.00000
     2  C       3.97306        2.03133          3.97306           6.00439                -0.00000
     3  C       3.96923        2.10750          3.96923           6.07672                -0.00000
     4  C       3.96923        2.10750          3.96923           6.07672                -0.00000
     5  C       3.97007        2.10706          3.97007           6.07713                -0.00000
     6  C       3.97007        2.10706          3.97007           6.07713                -0.00000
     7  H       0.99392       -0.07191          0.99392           0.92201                -0.00000
     8  H       0.99392       -0.07191          0.99392           0.92201                -0.00000
     9  H       0.99371       -0.07303          0.99371           0.92068                -0.00000
    10  H       0.99371       -0.07303          0.99371           0.92068                -0.00000
    11  C       3.96810        2.10827          3.96810           6.07637                -0.00000
    12  C       3.96810        2.10827          3.96810           6.07637                -0.00000
    13  H       0.99412       -0.07081          0.99412           0.92331                -0.00000
    14  H       0.99412       -0.07081          0.99412           0.92331                -0.00000
    15  C       3.96478        2.19003          3.96478           6.15481                -0.00000
    16  C       3.96478        2.19003          3.96478           6.15481                -0.00000
    17  H       0.99421       -0.07032          0.99421           0.92389                -0.00000
    18  H       0.99421       -0.07032          0.99421           0.92389                -0.00000
    19  H       0.99371       -0.07301          0.99371           0.92070                -0.00000
    20  H       0.99371       -0.07301          0.99371           0.92070                -0.00000

 Task  times  cpu:       43.7s     wall:       44.2s
 Summary of allocated global arrays
-----------------------------------
  No active global arrays



                         GA Statistics for process    0
                         ------------------------------

       create   destroy   get      put      acc     scatter   gather  read&inc
calls:  550      550     3.44e+05 2788     2.37e+05  420        0        0     
number of processes/call 1.00e+00 1.00e+00 1.00e+00 1.00e+00 0.00e+00
bytes total:             3.62e+07 3.96e+06 1.94e+07 3.09e+04 0.00e+00 0.00e+00
bytes remote:            0.00e+00 0.00e+00 0.00e+00 0.00e+00 0.00e+00 0.00e+00
Max memory consumed for GA by this process: 1123200 bytes
MA_summarize_allocated_blocks: starting scan ...
MA_summarize_allocated_blocks: scan completed: 0 heap blocks, 0 stack blocks
MA usage statistics:

	allocation statistics:
					      heap	     stack
					      ----	     -----
	current number of blocks	         0	         0
	maximum number of blocks	        23	        48
	current total bytes		         0	         0
	maximum total bytes		  55473048	  22516152
	maximum total K-bytes		     55474	     22517
	maximum total M-bytes		        56	        23


                                NWChem Input Module
                                -------------------





                                     CITATION
                                     --------
                Please cite the following reference when publishing
                           results obtained with NWChem:

                 M. Valiev, E.J. Bylaska, N. Govind, K. Kowalski,
              T.P. Straatsma, H.J.J. van Dam, D. Wang, J. Nieplocha,
                        E. Apra, T.L. Windus, W.A. de Jong
                 "NWChem: a comprehensive and scalable open-source
                  solution for large scale molecular simulations"
                      Comput. Phys. Commun. 181, 1477 (2010)
                           doi:10.1016/j.cpc.2010.04.018

                              AUTHORS & CONTRIBUTORS
                              ----------------------
      E. J. Bylaska, W. A. de Jong, N. Govind, K. Kowalski, T. P. Straatsma,
     M. Valiev, H. J. J. van Dam, D. Wang, E. Apra, T. L. Windus, J. Hammond,
     J. Autschbach, P. Nichols, S. Hirata, M. T. Hackler, Y. Zhao, P.-D. Fan,
      R. J. Harrison, M. Dupuis, D. M. A. Smith, K. Glaesemann, J. Nieplocha,
      V. Tipparaju, M. Krishnan, A. Vazquez-Mayagoitia, L. Jensen, M. Swart,
      Q. Wu, T. Van Voorhis, A. A. Auer, M. Nooijen, L. D. Crosby, E. Brown,
             G. Cisneros, G. I. Fann, H. Fruchtl, J. Garza, K. Hirao,
        R. Kendall, J. A. Nichols, K. Tsemekhman, K. Wolinski, J. Anchell,
       D. Bernholdt, P. Borowski, T. Clark, D. Clerc, H. Dachsel, M. Deegan,
        K. Dyall, D. Elwood, E. Glendening, M. Gutowski, A. Hess, J. Jaffe,
        B. Johnson, J. Ju, R. Kobayashi, R. Kutteh, Z. Lin, R. Littlefield,
    X. Long, B. Meng, T. Nakajima, S. Niu, L. Pollack, M. Rosing, G. Sandrone,
       M. Stave, H. Taylor, G. Thomas, J. H. van Lenthe, A. Wong, Z. Zhang.

 Total times  cpu:       43.7s     wall:       44.2s
