Job dvb_sp_ks started on silenziosa at Fri Apr 11 07:49:06 2014
jobid: silenziosa-0-5347d6b1

  +--------------------------------------------------------------------+
  |  Jaguar version 8.3, release  13                                   |
  |                                                                    |
  |  Copyright Schrodinger, Inc.                                       |
  |  All Rights Reserved.                                              |
  |                                                                    |
  |  The following have contributed to Jaguar (listed alphabetically): |
  |  Mike Beachy, Art Bochevarov, Dale Braden, Yixiang Cao,            |
  |  Chris Cortis, Rich Friesner, Bill Goddard, Hod Greeley,           |
  |  Tom Hughes, Jean-Marc Langlois, Daniel Mainz, Rob Murphy,         |
  |  Dean Philipp, Tom Pollard, Murco Ringnalda.                       |
  |                                                                    |
  |  Use of this program should be acknowledged in publications as:    |
  |                                                                    |
  |  Jaguar, version 8.3, Schrodinger, Inc., New York, NY, 2014.       |
  |                                                                    |
  |  A. D. Bochevarov, E. Harder, T. F. Hughes, J. R. Greenwood,       |
  |  D. A. Braden, D. M. Philipp, D. Rinaldo, M. D. Halls,             |
  |  J. Zhang, R. A. Friesner, "Jaguar: A High-Performance Quantum     |
  |  Chemistry Software Program with Strengths in Life and Materials   |
  |  Sciences", Int. J. Quantum Chem., 2013, 113(18), 2110-2142.       |
  +--------------------------------------------------------------------+
  
  start of program pre
  
  Job name: dvb_sp_ks
  Executables used: /usr/local/lib/schrodinger2014-1/jaguar-v83013/bin/Linux-x86_64
  Temporary files : /home/kml/dvb_sp_ks
  
  
  basis set:             sto-3g          
  net molecular charge:    0
  multiplicity:            1
  
  number of basis functions....           60
  
  Basis set name for each atom
  
  Atom     Basis 
  C1       sto-3g          
  C2       sto-3g          
  C3       sto-3g          
  C4       sto-3g          
  C5       sto-3g          
  H6       sto-3g          
  H7       sto-3g          
  H8       sto-3g          
  C9       sto-3g          
  C10      sto-3g          
  H11      sto-3g          
  H12      sto-3g          
  H13      sto-3g          
  C14      sto-3g          
  H15      sto-3g          
  C16      sto-3g          
  H17      sto-3g          
  H18      sto-3g          
  C19      sto-3g          
  H20      sto-3g          
  
  Gaussian basis set information
  
                                                        renorm    mfac*renorm
   atom    fn   prim  L        z            coef         coef         coef
 -------- ----- ---- --- -------------  -----------  -----------  -----------
 C1           1    1   S  7.161684E+01   1.5433E-01   2.7078E+00   2.7078E+00
 C1           1    2   S  1.304510E+01   5.3533E-01   2.6189E+00   2.6189E+00
 C1           1    3   S  3.530512E+00   4.4463E-01   8.1619E-01   8.1619E-01
 C1           2    4   S  2.941249E+00  -2.9565E-01  -4.7324E-01  -4.7324E-01
 C1           2    5   S  6.834831E-01   1.1815E+00   6.3299E-01   6.3299E-01
 C1           3    6   X  2.941249E+00   2.2135E-01   1.2153E+00   1.2153E+00
              4        Y                                           1.2153E+00
              5        Z                                           1.2153E+00
 C1           3    7   X  6.834831E-01   8.6271E-01   7.6421E-01   7.6421E-01
              4        Y                                           7.6421E-01
              5        Z                                           7.6421E-01
 C1           2    8   S  2.222899E-01   1.0000E+00   2.3073E-01   2.3073E-01
 C1           3    9   X  2.222899E-01   1.0000E+00   2.1757E-01   2.1757E-01
              4        Y                                           2.1757E-01
              5        Z                                           2.1757E-01
 C2           6    1   S  7.161684E+01   1.5433E-01   2.7078E+00   2.7078E+00
 C2           6    2   S  1.304510E+01   5.3533E-01   2.6189E+00   2.6189E+00
 C2           6    3   S  3.530512E+00   4.4463E-01   8.1619E-01   8.1619E-01
 C2           7    4   S  2.941249E+00  -2.9565E-01  -4.7324E-01  -4.7324E-01
 C2           7    5   S  6.834831E-01   1.1815E+00   6.3299E-01   6.3299E-01
 C2           8    6   X  2.941249E+00   2.2135E-01   1.2153E+00   1.2153E+00
              9        Y                                           1.2153E+00
             10        Z                                           1.2153E+00
 C2           8    7   X  6.834831E-01   8.6271E-01   7.6421E-01   7.6421E-01
              9        Y                                           7.6421E-01
             10        Z                                           7.6421E-01
 C2           7    8   S  2.222899E-01   1.0000E+00   2.3073E-01   2.3073E-01
 C2           8    9   X  2.222899E-01   1.0000E+00   2.1757E-01   2.1757E-01
              9        Y                                           2.1757E-01
             10        Z                                           2.1757E-01
 C3          11    1   S  7.161684E+01   1.5433E-01   2.7078E+00   2.7078E+00
 C3          11    2   S  1.304510E+01   5.3533E-01   2.6189E+00   2.6189E+00
 C3          11    3   S  3.530512E+00   4.4463E-01   8.1619E-01   8.1619E-01
 C3          12    4   S  2.941249E+00  -2.9565E-01  -4.7324E-01  -4.7324E-01
 C3          12    5   S  6.834831E-01   1.1815E+00   6.3299E-01   6.3299E-01
 C3          13    6   X  2.941249E+00   2.2135E-01   1.2153E+00   1.2153E+00
             14        Y                                           1.2153E+00
             15        Z                                           1.2153E+00
 C3          13    7   X  6.834831E-01   8.6271E-01   7.6421E-01   7.6421E-01
             14        Y                                           7.6421E-01
             15        Z                                           7.6421E-01
 C3          12    8   S  2.222899E-01   1.0000E+00   2.3073E-01   2.3073E-01
 C3          13    9   X  2.222899E-01   1.0000E+00   2.1757E-01   2.1757E-01
             14        Y                                           2.1757E-01
             15        Z                                           2.1757E-01
 C4          16    1   S  7.161684E+01   1.5433E-01   2.7078E+00   2.7078E+00
 C4          16    2   S  1.304510E+01   5.3533E-01   2.6189E+00   2.6189E+00
 C4          16    3   S  3.530512E+00   4.4463E-01   8.1619E-01   8.1619E-01
 C4          17    4   S  2.941249E+00  -2.9565E-01  -4.7324E-01  -4.7324E-01
 C4          17    5   S  6.834831E-01   1.1815E+00   6.3299E-01   6.3299E-01
 C4          18    6   X  2.941249E+00   2.2135E-01   1.2153E+00   1.2153E+00
             19        Y                                           1.2153E+00
             20        Z                                           1.2153E+00
 C4          18    7   X  6.834831E-01   8.6271E-01   7.6421E-01   7.6421E-01
             19        Y                                           7.6421E-01
             20        Z                                           7.6421E-01
 C4          17    8   S  2.222899E-01   1.0000E+00   2.3073E-01   2.3073E-01
 C4          18    9   X  2.222899E-01   1.0000E+00   2.1757E-01   2.1757E-01
             19        Y                                           2.1757E-01
             20        Z                                           2.1757E-01
 C5          21    1   S  7.161684E+01   1.5433E-01   2.7078E+00   2.7078E+00
 C5          21    2   S  1.304510E+01   5.3533E-01   2.6189E+00   2.6189E+00
 C5          21    3   S  3.530512E+00   4.4463E-01   8.1619E-01   8.1619E-01
 C5          22    4   S  2.941249E+00  -2.9565E-01  -4.7324E-01  -4.7324E-01
 C5          22    5   S  6.834831E-01   1.1815E+00   6.3299E-01   6.3299E-01
 C5          23    6   X  2.941249E+00   2.2135E-01   1.2153E+00   1.2153E+00
             24        Y                                           1.2153E+00
             25        Z                                           1.2153E+00
 C5          23    7   X  6.834831E-01   8.6271E-01   7.6421E-01   7.6421E-01
             24        Y                                           7.6421E-01
             25        Z                                           7.6421E-01
 C5          22    8   S  2.222899E-01   1.0000E+00   2.3073E-01   2.3073E-01
 C5          23    9   X  2.222899E-01   1.0000E+00   2.1757E-01   2.1757E-01
             24        Y                                           2.1757E-01
             25        Z                                           2.1757E-01
 H6          26    1   S  3.425251E+00   2.4050E-01   4.3157E-01   4.3157E-01
 H6          26    2   S  6.239137E-01   8.3424E-01   4.1739E-01   4.1739E-01
 H6          26    3   S  1.688554E-01   1.0000E+00   1.8774E-01   1.8774E-01
 H7          27    1   S  3.425251E+00   2.4050E-01   4.3157E-01   4.3157E-01
 H7          27    2   S  6.239137E-01   8.3424E-01   4.1739E-01   4.1739E-01
 H7          27    3   S  1.688554E-01   1.0000E+00   1.8774E-01   1.8774E-01
 H8          28    1   S  3.425251E+00   2.4050E-01   4.3157E-01   4.3157E-01
 H8          28    2   S  6.239137E-01   8.3424E-01   4.1739E-01   4.1739E-01
 H8          28    3   S  1.688554E-01   1.0000E+00   1.8774E-01   1.8774E-01
 C9          29    1   S  7.161684E+01   1.5433E-01   2.7078E+00   2.7078E+00
 C9          29    2   S  1.304510E+01   5.3533E-01   2.6189E+00   2.6189E+00
 C9          29    3   S  3.530512E+00   4.4463E-01   8.1619E-01   8.1619E-01
 C9          30    4   S  2.941249E+00  -2.9565E-01  -4.7324E-01  -4.7324E-01
 C9          30    5   S  6.834831E-01   1.1815E+00   6.3299E-01   6.3299E-01
 C9          31    6   X  2.941249E+00   2.2135E-01   1.2153E+00   1.2153E+00
             32        Y                                           1.2153E+00
             33        Z                                           1.2153E+00
 C9          31    7   X  6.834831E-01   8.6271E-01   7.6421E-01   7.6421E-01
             32        Y                                           7.6421E-01
             33        Z                                           7.6421E-01
 C9          30    8   S  2.222899E-01   1.0000E+00   2.3073E-01   2.3073E-01
 C9          31    9   X  2.222899E-01   1.0000E+00   2.1757E-01   2.1757E-01
             32        Y                                           2.1757E-01
             33        Z                                           2.1757E-01
 C10         34    1   S  7.161684E+01   1.5433E-01   2.7078E+00   2.7078E+00
 C10         34    2   S  1.304510E+01   5.3533E-01   2.6189E+00   2.6189E+00
 C10         34    3   S  3.530512E+00   4.4463E-01   8.1619E-01   8.1619E-01
 C10         35    4   S  2.941249E+00  -2.9565E-01  -4.7324E-01  -4.7324E-01
 C10         35    5   S  6.834831E-01   1.1815E+00   6.3299E-01   6.3299E-01
 C10         36    6   X  2.941249E+00   2.2135E-01   1.2153E+00   1.2153E+00
             37        Y                                           1.2153E+00
             38        Z                                           1.2153E+00
 C10         36    7   X  6.834831E-01   8.6271E-01   7.6421E-01   7.6421E-01
             37        Y                                           7.6421E-01
             38        Z                                           7.6421E-01
 C10         35    8   S  2.222899E-01   1.0000E+00   2.3073E-01   2.3073E-01
 C10         36    9   X  2.222899E-01   1.0000E+00   2.1757E-01   2.1757E-01
             37        Y                                           2.1757E-01
             38        Z                                           2.1757E-01
 H11         39    1   S  3.425251E+00   2.4050E-01   4.3157E-01   4.3157E-01
 H11         39    2   S  6.239137E-01   8.3424E-01   4.1739E-01   4.1739E-01
 H11         39    3   S  1.688554E-01   1.0000E+00   1.8774E-01   1.8774E-01
 H12         40    1   S  3.425251E+00   2.4050E-01   4.3157E-01   4.3157E-01
 H12         40    2   S  6.239137E-01   8.3424E-01   4.1739E-01   4.1739E-01
 H12         40    3   S  1.688554E-01   1.0000E+00   1.8774E-01   1.8774E-01
 H13         41    1   S  3.425251E+00   2.4050E-01   4.3157E-01   4.3157E-01
 H13         41    2   S  6.239137E-01   8.3424E-01   4.1739E-01   4.1739E-01
 H13         41    3   S  1.688554E-01   1.0000E+00   1.8774E-01   1.8774E-01
 C14         42    1   S  7.161684E+01   1.5433E-01   2.7078E+00   2.7078E+00
 C14         42    2   S  1.304510E+01   5.3533E-01   2.6189E+00   2.6189E+00
 C14         42    3   S  3.530512E+00   4.4463E-01   8.1619E-01   8.1619E-01
 C14         43    4   S  2.941249E+00  -2.9565E-01  -4.7324E-01  -4.7324E-01
 C14         43    5   S  6.834831E-01   1.1815E+00   6.3299E-01   6.3299E-01
 C14         44    6   X  2.941249E+00   2.2135E-01   1.2153E+00   1.2153E+00
             45        Y                                           1.2153E+00
             46        Z                                           1.2153E+00
 C14         44    7   X  6.834831E-01   8.6271E-01   7.6421E-01   7.6421E-01
             45        Y                                           7.6421E-01
             46        Z                                           7.6421E-01
 C14         43    8   S  2.222899E-01   1.0000E+00   2.3073E-01   2.3073E-01
 C14         44    9   X  2.222899E-01   1.0000E+00   2.1757E-01   2.1757E-01
             45        Y                                           2.1757E-01
             46        Z                                           2.1757E-01
 H15         47    1   S  3.425251E+00   2.4050E-01   4.3157E-01   4.3157E-01
 H15         47    2   S  6.239137E-01   8.3424E-01   4.1739E-01   4.1739E-01
 H15         47    3   S  1.688554E-01   1.0000E+00   1.8774E-01   1.8774E-01
 C16         48    1   S  7.161684E+01   1.5433E-01   2.7078E+00   2.7078E+00
 C16         48    2   S  1.304510E+01   5.3533E-01   2.6189E+00   2.6189E+00
 C16         48    3   S  3.530512E+00   4.4463E-01   8.1619E-01   8.1619E-01
 C16         49    4   S  2.941249E+00  -2.9565E-01  -4.7324E-01  -4.7324E-01
 C16         49    5   S  6.834831E-01   1.1815E+00   6.3299E-01   6.3299E-01
 C16         50    6   X  2.941249E+00   2.2135E-01   1.2153E+00   1.2153E+00
             51        Y                                           1.2153E+00
             52        Z                                           1.2153E+00
 C16         50    7   X  6.834831E-01   8.6271E-01   7.6421E-01   7.6421E-01
             51        Y                                           7.6421E-01
             52        Z                                           7.6421E-01
 C16         49    8   S  2.222899E-01   1.0000E+00   2.3073E-01   2.3073E-01
 C16         50    9   X  2.222899E-01   1.0000E+00   2.1757E-01   2.1757E-01
             51        Y                                           2.1757E-01
             52        Z                                           2.1757E-01
 H17         53    1   S  3.425251E+00   2.4050E-01   4.3157E-01   4.3157E-01
 H17         53    2   S  6.239137E-01   8.3424E-01   4.1739E-01   4.1739E-01
 H17         53    3   S  1.688554E-01   1.0000E+00   1.8774E-01   1.8774E-01
 H18         54    1   S  3.425251E+00   2.4050E-01   4.3157E-01   4.3157E-01
 H18         54    2   S  6.239137E-01   8.3424E-01   4.1739E-01   4.1739E-01
 H18         54    3   S  1.688554E-01   1.0000E+00   1.8774E-01   1.8774E-01
 C19         55    1   S  7.161684E+01   1.5433E-01   2.7078E+00   2.7078E+00
 C19         55    2   S  1.304510E+01   5.3533E-01   2.6189E+00   2.6189E+00
 C19         55    3   S  3.530512E+00   4.4463E-01   8.1619E-01   8.1619E-01
 C19         56    4   S  2.941249E+00  -2.9565E-01  -4.7324E-01  -4.7324E-01
 C19         56    5   S  6.834831E-01   1.1815E+00   6.3299E-01   6.3299E-01
 C19         57    6   X  2.941249E+00   2.2135E-01   1.2153E+00   1.2153E+00
             58        Y                                           1.2153E+00
             59        Z                                           1.2153E+00
 C19         57    7   X  6.834831E-01   8.6271E-01   7.6421E-01   7.6421E-01
             58        Y                                           7.6421E-01
             59        Z                                           7.6421E-01
 C19         56    8   S  2.222899E-01   1.0000E+00   2.3073E-01   2.3073E-01
 C19         57    9   X  2.222899E-01   1.0000E+00   2.1757E-01   2.1757E-01
             58        Y                                           2.1757E-01
             59        Z                                           2.1757E-01
 H20         60    1   S  3.425251E+00   2.4050E-01   4.3157E-01   4.3157E-01
 H20         60    2   S  6.239137E-01   8.3424E-01   4.1739E-01   4.1739E-01
 H20         60    3   S  1.688554E-01   1.0000E+00   1.8774E-01   1.8774E-01
  
  Effective Core Potential 
  
  Atom      Electrons represented by ECP
 C1                     0
 C2                     0
 C3                     0
 C4                     0
 C5                     0
 H6                     0
 H7                     0
 H8                     0
 C9                     0
 C10                    0
 H11                    0
 H12                    0
 H13                    0
 C14                    0
 H15                    0
 C16                    0
 H17                    0
 H18                    0
 C19                    0
 H20                    0
  
  no dealiasing set available for atom            1
  switch to all-analytic calculation
  
 Input geometry:
                                   angstroms
  atom               x                 y                 z
  C1           -0.0758150000      0.0000000000      0.0269380000 
  C2           -0.0045600000      0.0000000000      1.4463040000 
  C3            1.2336810000      0.0000000000      2.1042190000 
  C4            2.4572420000      0.0000000000      1.3787840000 
  C5            2.3859860000      0.0000000000     -0.0405820000 
  H6           -0.9288540000      0.0000000000      2.0382910000 
  H7            1.2652340000      0.0000000000      3.2024280000 
  H8            3.3102810000      0.0000000000     -0.6325690000 
  C9            3.7520430000      0.0000000000      2.1313240000 
  C10           4.9872240000      0.0000000000      1.6008690000 
  H11           5.1663340000      0.0000000000      0.5196130000 
  H12           3.6421500000      0.0000000000      3.2262300000 
  H13           5.8793430000      0.0000000000      2.2379240000 
  C14          -1.3706160000      0.0000000000     -0.7256020000 
  H15          -1.2607230000      0.0000000000     -1.8205080000 
  C16          -2.6057970000      0.0000000000     -0.1951460000 
  H17          -2.7849070000      0.0000000000      0.8861090000 
  H18          -3.4979160000      0.0000000000     -0.8322020000 
  C19           1.1477460000      0.0000000000     -0.6984970000 
  H20           1.1161930000      0.0000000000     -1.7967060000 
   
  principal moments of inertia:
        amu*angstrom^2:      109.23592      737.84463      847.08055
                g*cm^2: 1.81390497E-38 1.22521968E-37 1.40661017E-37
   
  rotational constants:
               cm^(-1):      0.15432312      0.02284713      0.01990086
                   GHz:      4.62649088      0.68493960      0.59661269
   
  Molecular weight:     130.08 amu
   
  Stoichiometry: C10H10
  Molecular Point Group: C2h     
	Molecule translated to center of mass 
	Molecule reoriented along symmetry axes
  Point Group used: C2h
  
  
 Symmetrized geometry:
                                   angstroms
  atom               x                 y                 z
  C1            1.2665285000      0.6759230000      0.0000000000 
  C2            1.1952730000     -0.7434430000      0.0000000000 
  C3           -0.0429675000     -1.4013580000      0.0000000000 
  C4           -1.2665285000     -0.6759230000      0.0000000000 
  C5           -1.1952730000      0.7434430000      0.0000000000 
  H6            2.1195675000     -1.3354300000      0.0000000000 
  H7           -0.0745205000     -2.4995670000      0.0000000000 
  H8           -2.1195675000      1.3354300000      0.0000000000 
  C9           -2.5613295000     -1.4284630000      0.0000000000 
  C10          -3.7965105000     -0.8980075000      0.0000000000 
  H11          -3.9756205000      0.1832480000      0.0000000000 
  H12          -2.4514365000     -2.5233690000      0.0000000000 
  H13          -4.6886295000     -1.5350630000      0.0000000000 
  C14           2.5613295000      1.4284630000      0.0000000000 
  H15           2.4514365000      2.5233690000      0.0000000000 
  C16           3.7965105000      0.8980075000      0.0000000000 
  H17           3.9756205000     -0.1832480000      0.0000000000 
  H18           4.6886295000      1.5350630000      0.0000000000 
  C19           0.0429675000      1.4013580000      0.0000000000 
  H20           0.0745205000      2.4995670000      0.0000000000 
   
  nuclear repulsion energy.......     445.899321568 hartrees
 
 Non-default options chosen:
   SCF calculation type: DFT(b3lyp)                  
   DFT=Becke_3_Parameter/HF+Slater+Becke88+VWN+LYP (B3LYP)
   Include all virtuals in output
   Mulliken populations computed by atom
  
 Non-default print settings:
      1=  2  18=  2 102=  8
  
 Temporary integer options set:
     73=  2
  
  Peak memory usage:    479 Mb
  
  end of program pre
   
 Time(pre)  user:        0.0  user+sys:        0.0  wallclock:        0.2
  
  start of program onee
  
   
  overlap matrix:
   
             1              2              3              4              5
   1    1.000000E+00
   2    2.483624E-01   1.000000E+00
   3    0.000000E+00   0.000000E+00   1.000000E+00
   4    0.000000E+00   0.000000E+00   0.000000E+00   1.000000E+00
   5    0.000000E+00   0.000000E+00   0.000000E+00   0.000000E+00   1.000000E+00
   6    5.850666E-07   3.564737E-02  -2.965142E-03  -5.906382E-02   0.000000E+00
   7    3.564737E-02   3.541460E-01  -1.906289E-02  -3.797211E-01   0.000000E+00
   8    2.965142E-03   1.906289E-02   2.036441E-01  -2.663556E-02   0.000000E+00
   9    5.906382E-02   3.797211E-01  -2.663556E-02  -3.255829E-01   0.000000E+00
  10    0.000000E+00   0.000000E+00   0.000000E+00   0.000000E+00   2.049812E-01
  11    0.000000E+00   1.593342E-03  -1.987345E-03  -3.152566E-03   0.000000E+00
  12    1.593342E-03   5.633000E-02  -4.462557E-02  -7.079048E-02   0.000000E+00
  13    1.987345E-03   4.462557E-02  -1.554861E-02  -6.174136E-02   0.000000E+00
  14    3.152566E-03   7.079048E-02  -6.174136E-02  -7.456913E-02   0.000000E+00
  15    0.000000E+00   0.000000E+00   0.000000E+00   0.000000E+00   2.337249E-02
  16    0.000000E+00   2.981916E-04  -7.181694E-04  -3.832738E-04   0.000000E+00
  17    2.981916E-04   2.168351E-02  -3.128179E-02  -1.669451E-02   0.000000E+00
  18    7.181694E-04   3.128179E-02  -4.021669E-02  -2.586129E-02   0.000000E+00
  19    3.832738E-04   1.669451E-02  -2.586129E-02  -5.560114E-03   0.000000E+00
  20    0.000000E+00   0.000000E+00   0.000000E+00   0.000000E+00   8.241581E-03
  21    0.000000E+00   1.551477E-03  -3.637739E-03   9.977251E-05   0.000000E+00
  22    1.551477E-03   5.546960E-02  -8.251837E-02   2.263237E-03   0.000000E+00
  23    3.637739E-03   8.251837E-02  -1.120994E-01   3.704754E-03   0.000000E+00
  24   -9.977251E-05  -2.263237E-03   3.704754E-03   2.287559E-02   0.000000E+00
  25    0.000000E+00   0.000000E+00   0.000000E+00   0.000000E+00   2.297720E-02
  26    5.035218E-03   9.225424E-02   4.678803E-02  -1.103200E-01   0.000000E+00
  27    8.028312E-05   5.921399E-03  -3.841835E-03  -9.097138E-03   0.000000E+00
  28    7.942685E-05   5.881757E-03  -9.632506E-03   1.876115E-03   0.000000E+00
  29    0.000000E+00   8.313468E-08  -3.015903E-07  -1.658009E-07   0.000000E+00
  30    8.313468E-08   2.567472E-04  -4.988409E-04  -2.742405E-04   0.000000E+00
  31    3.015903E-07   4.988409E-04  -8.987438E-04  -5.394653E-04   0.000000E+00
  32    1.658009E-07   2.742405E-04  -5.394653E-04  -2.140356E-04   0.000000E+00
  33    0.000000E+00   0.000000E+00   0.000000E+00   0.000000E+00   8.253845E-05
  34    0.000000E+00   7.706886E-11  -3.662100E-10  -1.138425E-10   0.000000E+00
  35    7.706886E-11   7.014075E-06  -1.776461E-05  -5.522427E-06   0.000000E+00
  36    3.662100E-10   1.776461E-05  -4.287917E-05  -1.401597E-05   0.000000E+00
  37    1.138425E-10   5.522427E-06  -1.401597E-05  -2.149536E-06   0.000000E+00
  38    0.000000E+00   0.000000E+00   0.000000E+00   0.000000E+00   2.207562E-06
  39    8.127326E-09   2.318633E-05  -5.290947E-05  -4.972612E-06   0.000000E+00
  40    6.810945E-08   8.196952E-05  -1.337015E-04  -1.150496E-04   0.000000E+00
  41    0.000000E+00   3.035051E-07  -7.796759E-07  -2.894722E-07   0.000000E+00
  42    1.431417E-07   2.956747E-02   4.263861E-02   2.478161E-02   0.000000E+00
  43    2.956747E-02   3.177157E-01   3.043981E-01   1.769166E-01   0.000000E+00
  44   -4.263861E-02  -3.043981E-01  -1.942025E-01  -2.163160E-01   0.000000E+00
  45   -2.478161E-02  -1.769166E-01  -2.163160E-01   5.226208E-02   0.000000E+00
  46    0.000000E+00   0.000000E+00   0.000000E+00   0.000000E+00   1.779852E-01
  47    4.907231E-03   9.056739E-02   6.366048E-02   9.925606E-02   0.000000E+00
  48    0.000000E+00   1.158990E-03   2.791195E-03   2.450140E-04   0.000000E+00
  49    1.158990E-03   4.688726E-02   7.082180E-02   6.216812E-03   0.000000E+00
  50   -2.791195E-03  -7.082180E-02  -9.800540E-02  -1.027822E-02   0.000000E+00
  51   -2.450140E-04  -6.216812E-03  -1.027822E-02   1.818169E-02   0.000000E+00
  52    0.000000E+00   0.000000E+00   0.000000E+00   0.000000E+00   1.908392E-02
  53    7.335966E-04   2.452346E-02   3.496098E-02  -1.108765E-02   0.000000E+00
  54    5.774994E-05   4.819993E-03   7.906021E-03   1.984856E-03   0.000000E+00
  55    5.716404E-07   3.553606E-02  -5.071306E-02   3.006718E-02   0.000000E+00
  56    3.553606E-02   3.535095E-01  -3.266334E-01   1.936571E-01   0.000000E+00
  57    5.071306E-02   3.266334E-01  -1.886475E-01   2.330909E-01   0.000000E+00
  58   -3.006718E-02  -1.936571E-01   2.330909E-01   6.630043E-02   0.000000E+00
  59    0.000000E+00   0.000000E+00   0.000000E+00   0.000000E+00   2.044973E-01
  60    5.114686E-03   9.329643E-02  -6.620893E-02   1.012925E-01   0.000000E+00
   
             6              7              8              9             10
   6    1.000000E+00
   7    2.483624E-01   1.000000E+00
   8    0.000000E+00   0.000000E+00   1.000000E+00
   9    0.000000E+00   0.000000E+00   0.000000E+00   1.000000E+00
  10    0.000000E+00   0.000000E+00   0.000000E+00   0.000000E+00   1.000000E+00
  11    8.203868E-07   3.731501E-02  -5.463815E-02  -2.903092E-02   0.000000E+00
  12    3.731501E-02   3.635573E-01  -3.418464E-01  -1.816334E-01   0.000000E+00
  13    5.463815E-02   3.418464E-01  -2.089501E-01  -2.237633E-01   0.000000E+00
  14    2.903092E-02   1.816334E-01  -2.237633E-01   9.329531E-02   0.000000E+00
  15    0.000000E+00   0.000000E+00   0.000000E+00   0.000000E+00   2.121876E-01
  16    0.000000E+00   1.551477E-03  -3.637739E-03   9.977251E-05   0.000000E+00
  17    1.551477E-03   5.546960E-02  -8.251837E-02   2.263237E-03   0.000000E+00
  18    3.637739E-03   8.251837E-02  -1.120994E-01   3.704754E-03   0.000000E+00
  19   -9.977251E-05  -2.263237E-03   3.704754E-03   2.287559E-02   0.000000E+00
  20    0.000000E+00   0.000000E+00   0.000000E+00   0.000000E+00   2.297720E-02
  21    0.000000E+00   3.793948E-04  -8.624485E-04   5.364308E-04   0.000000E+00
  22    3.793948E-04   2.483225E-02  -3.406067E-02   2.118526E-02   0.000000E+00
  23    8.624485E-04   3.406067E-02  -4.077429E-02   3.129514E-02   0.000000E+00
  24   -5.364308E-04  -2.118526E-02   3.129514E-02  -9.924559E-03   0.000000E+00
  25    0.000000E+00   0.000000E+00   0.000000E+00   0.000000E+00   9.540576E-03
  26    6.117741E-02   4.863787E-01   3.912738E-01  -2.506009E-01   0.000000E+00
  27    5.267886E-03   9.529470E-02  -7.222754E-02  -9.989066E-02   0.000000E+00
  28    1.095187E-05   1.731322E-03  -2.650033E-03   1.661945E-03   0.000000E+00
  29    0.000000E+00   2.479443E-06  -8.838318E-06  -1.611676E-06   0.000000E+00
  30    2.479443E-06   1.573620E-03  -3.074727E-03  -5.606794E-04   0.000000E+00
  31    8.838318E-06   3.074727E-03  -5.653592E-03  -1.126528E-03   0.000000E+00
  32    1.611676E-06   5.606794E-04  -1.126528E-03   3.187874E-04   0.000000E+00
  33    0.000000E+00   0.000000E+00   0.000000E+00   0.000000E+00   5.242109E-04
  34    0.000000E+00   9.932773E-10  -4.689559E-09  -1.452065E-10   0.000000E+00
  35    9.932773E-10   2.474949E-05  -6.195869E-05  -1.918475E-06   0.000000E+00
  36    4.689559E-09   6.195869E-05  -1.479060E-04  -4.821819E-06   0.000000E+00
  37    1.452065E-10   1.918475E-06  -4.821819E-06   7.669139E-06   0.000000E+00
  38    0.000000E+00   0.000000E+00   0.000000E+00   0.000000E+00   7.818441E-06
  39    8.743370E-09   2.421346E-05  -5.451328E-05   9.769485E-06   0.000000E+00
  40    5.592794E-06   1.150633E-03  -1.915926E-03  -9.351464E-04   0.000000E+00
  41    8.276095E-11   1.748632E-06  -4.446792E-06  -5.982712E-07   0.000000E+00
  42    0.000000E+00   1.047835E-03   1.362356E-03   2.166022E-03   0.000000E+00
  43    1.047835E-03   4.424995E-02   3.594528E-02   5.714973E-02   0.000000E+00
  44   -1.362356E-03  -3.594528E-02  -1.399982E-02  -5.072782E-02   0.000000E+00
  45   -2.166022E-03  -5.714973E-02  -5.072782E-02  -6.274634E-02   0.000000E+00
  46    0.000000E+00   0.000000E+00   0.000000E+00   0.000000E+00   1.790629E-02
  47    6.482744E-05   5.180288E-03   3.128998E-03   8.137354E-03   0.000000E+00
  48    0.000000E+00   1.187795E-04   2.936423E-04   1.852962E-04   0.000000E+00
  49    1.187795E-04   1.296821E-02   1.873342E-02   1.182129E-02   0.000000E+00
  50   -2.936423E-04  -1.873342E-02  -2.400496E-02  -1.814624E-02   0.000000E+00
  51   -1.852962E-04  -1.182129E-02  -1.814624E-02  -6.699034E-03   0.000000E+00
  52    0.000000E+00   0.000000E+00   0.000000E+00   0.000000E+00   4.751726E-03
  53    7.479033E-04   2.483919E-02   3.637629E-02   7.329233E-03   0.000000E+00
  54    3.261309E-06   8.302793E-04   1.314208E-03   8.571785E-04   0.000000E+00
  55    0.000000E+00   1.721209E-03  -1.889496E-03   3.516943E-03   0.000000E+00
  56    1.721209E-03   5.890337E-02  -4.120094E-02   7.668784E-02   0.000000E+00
  57    1.889496E-03   4.120094E-02  -7.215677E-03   5.914449E-02   0.000000E+00
  58   -3.516943E-03  -7.668784E-02   5.914449E-02  -8.552639E-02   0.000000E+00
  59    0.000000E+00   0.000000E+00   0.000000E+00   0.000000E+00   2.456001E-02
  60    8.553213E-05   6.161210E-03  -3.347034E-03   9.684980E-03   0.000000E+00
   
            11             12             13             14             15
  11    1.000000E+00
  12    2.483624E-01   1.000000E+00
  13    0.000000E+00   0.000000E+00   1.000000E+00
  14    0.000000E+00   0.000000E+00   0.000000E+00   1.000000E+00
  15    0.000000E+00   0.000000E+00   0.000000E+00   0.000000E+00   1.000000E+00
  16    5.716404E-07   3.553606E-02  -5.071306E-02   3.006718E-02   0.000000E+00
  17    3.553606E-02   3.535095E-01  -3.266334E-01   1.936571E-01   0.000000E+00
  18    5.071306E-02   3.266334E-01  -1.886475E-01   2.330909E-01   0.000000E+00
  19   -3.006718E-02  -1.936571E-01   2.330909E-01   6.630043E-02   0.000000E+00
  20    0.000000E+00   0.000000E+00   0.000000E+00   0.000000E+00   2.044973E-01
  21    0.000000E+00   1.721209E-03  -1.889496E-03   3.516943E-03   0.000000E+00
  22    1.721209E-03   5.890337E-02  -4.120094E-02   7.668784E-02   0.000000E+00
  23    1.889496E-03   4.120094E-02  -7.215677E-03   5.914449E-02   0.000000E+00
  24   -3.516943E-03  -7.668784E-02   5.914449E-02  -8.552639E-02   0.000000E+00
  25    0.000000E+00   0.000000E+00   0.000000E+00   0.000000E+00   2.456001E-02
  26    5.315940E-03   9.591861E-02   1.239131E-01   3.777669E-03   0.000000E+00
  27    6.102870E-02   4.857813E-01  -1.333401E-02  -4.640930E-01   0.000000E+00
  28    8.409860E-05   6.096248E-03  -6.133118E-03   8.082945E-03   0.000000E+00
  29    0.000000E+00   1.257045E-03  -3.013836E-03  -3.243776E-05   0.000000E+00
  30    1.257045E-03   4.912941E-02  -7.411060E-02  -7.976485E-04   0.000000E+00
  31    3.013836E-03   7.411060E-02  -1.024456E-01  -1.318868E-03   0.000000E+00
  32    3.243776E-05   7.976485E-04  -1.318868E-03   2.007797E-02   0.000000E+00
  33    0.000000E+00   0.000000E+00   0.000000E+00   0.000000E+00   2.009216E-02
  34    0.000000E+00   2.969516E-06  -1.057736E-05   1.418425E-06   0.000000E+00
  35    2.969516E-06   1.733922E-03  -3.391797E-03   4.548404E-04   0.000000E+00
  36    1.057736E-05   3.391797E-03  -6.251224E-03   9.159679E-04   0.000000E+00
  37   -1.418425E-06  -4.548404E-04   9.159679E-04   4.564236E-04   0.000000E+00
  38    0.000000E+00   0.000000E+00   0.000000E+00   0.000000E+00   5.792550E-04
  39    2.326393E-06   6.772238E-04  -1.201564E-03   4.841529E-04   0.000000E+00
  40    1.326212E-03   3.644478E-02  -4.762268E-02  -2.218553E-02   0.000000E+00
  41    2.837745E-07   1.918596E-04  -3.942908E-04  -1.134793E-05   0.000000E+00
  42    0.000000E+00   2.117594E-06   5.232719E-06   5.685856E-06   0.000000E+00
  43    2.117594E-06   1.445719E-03   1.955124E-03   2.124431E-03   0.000000E+00
  44   -5.232719E-06  -1.955124E-03  -2.235736E-03  -2.951406E-03   0.000000E+00
  45   -5.685856E-06  -2.124431E-03  -2.951406E-03  -2.726532E-03   0.000000E+00
  46    0.000000E+00   0.000000E+00   0.000000E+00   0.000000E+00   4.804558E-04
  47    2.796078E-07   1.901728E-04   2.098243E-04   3.301402E-04   0.000000E+00
  48    0.000000E+00   4.068450E-08   1.480037E-07   8.863563E-08   0.000000E+00
  49    4.068450E-08   1.756811E-04   3.413519E-04   2.044270E-04   0.000000E+00
  50   -1.480037E-07  -3.413519E-04  -6.139119E-04  -4.013326E-04   0.000000E+00
  51   -8.863563E-08  -2.044270E-04  -4.013326E-04  -1.841151E-04   0.000000E+00
  52    0.000000E+00   0.000000E+00   0.000000E+00   0.000000E+00   5.623276E-05
  53    2.840718E-06   7.638924E-04   1.388415E-03   4.208547E-04   0.000000E+00
  54    1.191138E-09   7.487542E-06   1.535859E-05   9.531517E-06   0.000000E+00
  55    0.000000E+00   3.978994E-04   3.251625E-05   1.060497E-03   0.000000E+00
  56    3.978994E-04   2.550851E-02   1.259654E-03   4.108283E-02   0.000000E+00
  57   -3.251625E-05  -1.259654E-03   9.754879E-03  -2.186225E-03   0.000000E+00
  58   -1.060497E-03  -4.108283E-02  -2.186225E-03  -6.148045E-02   0.000000E+00
  59    0.000000E+00   0.000000E+00   0.000000E+00   0.000000E+00   9.821912E-03
  60    1.146536E-05   1.780393E-03   9.666819E-05   3.209650E-03   0.000000E+00
   
            16             17             18             19             20
  16    1.000000E+00
  17    2.483624E-01   1.000000E+00
  18    0.000000E+00   0.000000E+00   1.000000E+00
  19    0.000000E+00   0.000000E+00   0.000000E+00   1.000000E+00
  20    0.000000E+00   0.000000E+00   0.000000E+00   0.000000E+00   1.000000E+00
  21    5.850666E-07   3.564737E-02   2.965142E-03   5.906382E-02   0.000000E+00
  22    3.564737E-02   3.541460E-01   1.906289E-02   3.797211E-01   0.000000E+00
  23   -2.965142E-03  -1.906289E-02   2.036441E-01  -2.663556E-02   0.000000E+00
  24   -5.906382E-02  -3.797211E-01  -2.663556E-02  -3.255829E-01   0.000000E+00
  25    0.000000E+00   0.000000E+00   0.000000E+00   0.000000E+00   2.049812E-01
  26    7.942685E-05   5.881757E-03   9.632506E-03  -1.876115E-03   0.000000E+00
  27    5.114686E-03   9.329643E-02   6.620893E-02  -1.012925E-01   0.000000E+00
  28    5.035218E-03   9.225424E-02  -4.678803E-02   1.103200E-01   0.000000E+00
  29    1.431417E-07   2.956747E-02  -4.263861E-02  -2.478161E-02   0.000000E+00
  30    2.956747E-02   3.177157E-01  -3.043981E-01  -1.769166E-01   0.000000E+00
  31    4.263861E-02   3.043981E-01  -1.942025E-01  -2.163160E-01   0.000000E+00
  32    2.478161E-02   1.769166E-01  -2.163160E-01   5.226208E-02   0.000000E+00
  33    0.000000E+00   0.000000E+00   0.000000E+00   0.000000E+00   1.779852E-01
  34    0.000000E+00   1.158990E-03  -2.791195E-03  -2.450140E-04   0.000000E+00
  35    1.158990E-03   4.688726E-02  -7.082180E-02  -6.216812E-03   0.000000E+00
  36    2.791195E-03   7.082180E-02  -9.800540E-02  -1.027822E-02   0.000000E+00
  37    2.450140E-04   6.216812E-03  -1.027822E-02   1.818169E-02   0.000000E+00
  38    0.000000E+00   0.000000E+00   0.000000E+00   0.000000E+00   1.908392E-02
  39    7.335966E-04   2.452346E-02  -3.496098E-02   1.108765E-02   0.000000E+00
  40    4.907231E-03   9.056739E-02  -6.366048E-02  -9.925606E-02   0.000000E+00
  41    5.774994E-05   4.819993E-03  -7.906021E-03  -1.984856E-03   0.000000E+00
  42    0.000000E+00   8.313468E-08   3.015903E-07   1.658009E-07   0.000000E+00
  43    8.313468E-08   2.567472E-04   4.988409E-04   2.742405E-04   0.000000E+00
  44   -3.015903E-07  -4.988409E-04  -8.987438E-04  -5.394653E-04   0.000000E+00
  45   -1.658009E-07  -2.742405E-04  -5.394653E-04  -2.140356E-04   0.000000E+00
  46    0.000000E+00   0.000000E+00   0.000000E+00   0.000000E+00   8.253845E-05
  47    6.810945E-08   8.196952E-05   1.337015E-04   1.150496E-04   0.000000E+00
  48    0.000000E+00   7.706886E-11   3.662100E-10   1.138425E-10   0.000000E+00
  49    7.706886E-11   7.014075E-06   1.776461E-05   5.522427E-06   0.000000E+00
  50   -3.662100E-10  -1.776461E-05  -4.287917E-05  -1.401597E-05   0.000000E+00
  51   -1.138425E-10  -5.522427E-06  -1.401597E-05  -2.149536E-06   0.000000E+00
  52    0.000000E+00   0.000000E+00   0.000000E+00   0.000000E+00   2.207562E-06
  53    8.127326E-09   2.318633E-05   5.290947E-05   4.972612E-06   0.000000E+00
  54    0.000000E+00   3.035051E-07   7.796759E-07   2.894722E-07   0.000000E+00
  55    0.000000E+00   1.593342E-03   1.987345E-03   3.152566E-03   0.000000E+00
  56    1.593342E-03   5.633000E-02   4.462557E-02   7.079048E-02   0.000000E+00
  57   -1.987345E-03  -4.462557E-02  -1.554861E-02  -6.174136E-02   0.000000E+00
  58   -3.152566E-03  -7.079048E-02  -6.174136E-02  -7.456913E-02   0.000000E+00
  59    0.000000E+00   0.000000E+00   0.000000E+00   0.000000E+00   2.337249E-02
  60    8.028312E-05   5.921399E-03   3.841835E-03   9.097138E-03   0.000000E+00
   
            21             22             23             24             25
  21    1.000000E+00
  22    2.483624E-01   1.000000E+00
  23    0.000000E+00   0.000000E+00   1.000000E+00
  24    0.000000E+00   0.000000E+00   0.000000E+00   1.000000E+00
  25    0.000000E+00   0.000000E+00   0.000000E+00   0.000000E+00   1.000000E+00
  26    1.095187E-05   1.731322E-03   2.650033E-03  -1.661945E-03   0.000000E+00
  27    8.553213E-05   6.161210E-03   3.347034E-03  -9.684980E-03   0.000000E+00
  28    6.117741E-02   4.863787E-01  -3.912738E-01   2.506009E-01   0.000000E+00
  29    0.000000E+00   1.047835E-03  -1.362356E-03  -2.166022E-03   0.000000E+00
  30    1.047835E-03   4.424995E-02  -3.594528E-02  -5.714973E-02   0.000000E+00
  31    1.362356E-03   3.594528E-02  -1.399982E-02  -5.072782E-02   0.000000E+00
  32    2.166022E-03   5.714973E-02  -5.072782E-02  -6.274634E-02   0.000000E+00
  33    0.000000E+00   0.000000E+00   0.000000E+00   0.000000E+00   1.790629E-02
  34    0.000000E+00   1.187795E-04  -2.936423E-04  -1.852962E-04   0.000000E+00
  35    1.187795E-04   1.296821E-02  -1.873342E-02  -1.182129E-02   0.000000E+00
  36    2.936423E-04   1.873342E-02  -2.400496E-02  -1.814624E-02   0.000000E+00
  37    1.852962E-04   1.182129E-02  -1.814624E-02  -6.699034E-03   0.000000E+00
  38    0.000000E+00   0.000000E+00   0.000000E+00   0.000000E+00   4.751726E-03
  39    7.479033E-04   2.483919E-02  -3.637629E-02  -7.329233E-03   0.000000E+00
  40    6.482744E-05   5.180288E-03  -3.128998E-03  -8.137354E-03   0.000000E+00
  41    3.261309E-06   8.302793E-04  -1.314208E-03  -8.571785E-04   0.000000E+00
  42    0.000000E+00   2.479443E-06   8.838318E-06   1.611676E-06   0.000000E+00
  43    2.479443E-06   1.573620E-03   3.074727E-03   5.606794E-04   0.000000E+00
  44   -8.838318E-06  -3.074727E-03  -5.653592E-03  -1.126528E-03   0.000000E+00
  45   -1.611676E-06  -5.606794E-04  -1.126528E-03   3.187874E-04   0.000000E+00
  46    0.000000E+00   0.000000E+00   0.000000E+00   0.000000E+00   5.242109E-04
  47    5.592794E-06   1.150633E-03   1.915926E-03   9.351464E-04   0.000000E+00
  48    0.000000E+00   9.932773E-10   4.689559E-09   1.452065E-10   0.000000E+00
  49    9.932773E-10   2.474949E-05   6.195869E-05   1.918475E-06   0.000000E+00
  50   -4.689559E-09  -6.195869E-05  -1.479060E-04  -4.821819E-06   0.000000E+00
  51   -1.452065E-10  -1.918475E-06  -4.821819E-06   7.669139E-06   0.000000E+00
  52    0.000000E+00   0.000000E+00   0.000000E+00   0.000000E+00   7.818441E-06
  53    8.743370E-09   2.421346E-05   5.451328E-05  -9.769485E-06   0.000000E+00
  54    8.276095E-11   1.748632E-06   4.446792E-06   5.982712E-07   0.000000E+00
  55    8.203868E-07   3.731501E-02   5.463815E-02   2.903092E-02   0.000000E+00
  56    3.731501E-02   3.635573E-01   3.418464E-01   1.816334E-01   0.000000E+00
  57   -5.463815E-02  -3.418464E-01  -2.089501E-01  -2.237633E-01   0.000000E+00
  58   -2.903092E-02  -1.816334E-01  -2.237633E-01   9.329531E-02   0.000000E+00
  59    0.000000E+00   0.000000E+00   0.000000E+00   0.000000E+00   2.121876E-01
  60    5.267886E-03   9.529470E-02   7.222754E-02   9.989066E-02   0.000000E+00
   
            26             27             28             29             30
  26    1.000000E+00
  27    5.104386E-02   1.000000E+00
  28    1.044690E-04   7.105971E-04   1.000000E+00
  29    2.357492E-07   1.132165E-03   8.450300E-04   1.000000E+00
  30    1.717598E-04   3.275690E-02   2.693658E-02   2.483624E-01   1.000000E+00
  31    3.552115E-04   4.381781E-02   6.305321E-03   0.000000E+00   0.000000E+00
  32    7.059841E-06  -1.887295E-02   3.944937E-02   0.000000E+00   0.000000E+00
  33    0.000000E+00   0.000000E+00   0.000000E+00   0.000000E+00   0.000000E+00
  34    8.545443E-11   5.752357E-06   8.618489E-04   2.238238E-06   4.283234E-02
  35    1.782345E-06   1.170426E-03   2.729222E-02   4.283234E-02   3.931364E-01
  36    4.557444E-06   1.989974E-03   2.427500E-02   6.526599E-02   3.747199E-01
  37   -3.369679E-07  -8.562791E-04   3.233067E-02  -2.802885E-02  -1.609256E-01
  38    0.000000E+00   0.000000E+00   0.000000E+00   0.000000E+00   0.000000E+00
  39    1.349946E-06   2.381114E-04   8.737808E-02   5.582260E-03   9.935226E-02
  40    2.463726E-04   6.214084E-02   2.439700E-03   6.078063E-02   4.847823E-01
  41    1.666647E-07   2.529067E-04   2.569559E-03   5.786726E-03   1.019618E-01
  42    8.450300E-04   1.807478E-07   2.357492E-07   0.000000E+00   0.000000E+00
  43    2.693658E-02   1.465887E-04   1.717598E-04   0.000000E+00   5.759968E-07
  44   -6.305321E-03  -1.704183E-04  -3.552115E-04   0.000000E+00  -1.472965E-06
  45   -3.944937E-02  -2.539629E-04  -7.059841E-06   0.000000E+00  -8.214783E-07
  46    0.000000E+00   0.000000E+00   0.000000E+00   0.000000E+00   0.000000E+00
  47    2.439700E-03   1.446313E-05   2.463726E-04   0.000000E+00   2.652950E-07
  48    8.618489E-04   1.625072E-08   8.545443E-11   0.000000E+00   0.000000E+00
  49    2.729222E-02   3.497981E-05   1.782345E-06   0.000000E+00   6.160926E-09
  50   -2.427500E-02  -5.906642E-05  -4.557444E-06   0.000000E+00  -1.953816E-08
  51   -3.233067E-02  -5.184215E-05   3.369679E-07   0.000000E+00  -7.149431E-09
  52    0.000000E+00   0.000000E+00   0.000000E+00   0.000000E+00   0.000000E+00
  53    8.737808E-02   2.906497E-04   1.349946E-06   0.000000E+00   7.889238E-08
  54    2.569559E-03   1.566010E-06   1.666647E-07   0.000000E+00   2.277194E-10
  55    8.409860E-05   1.146536E-05   5.315940E-03   0.000000E+00   2.117594E-06
  56    6.096248E-03   1.780393E-03   9.591861E-02   2.117594E-06   1.445719E-03
  57    6.133118E-03  -9.666819E-05  -1.239131E-01  -5.232719E-06  -1.955124E-03
  58   -8.082945E-03  -3.209650E-03  -3.777669E-03  -5.685856E-06  -2.124431E-03
  59    0.000000E+00   0.000000E+00   0.000000E+00   0.000000E+00   0.000000E+00
  60    7.105971E-04   1.073879E-04   5.104386E-02   1.807478E-07   1.465887E-04
   
            31             32             33             34             35
  31    1.000000E+00
  32    0.000000E+00   1.000000E+00
  33    0.000000E+00   0.000000E+00   1.000000E+00
  34   -6.526599E-02   2.802885E-02   0.000000E+00   1.000000E+00
  35   -3.747199E-01   1.609256E-01   0.000000E+00   2.483624E-01   1.000000E+00
  36   -2.404894E-01   2.044048E-01   0.000000E+00   0.000000E+00   0.000000E+00
  37    2.044048E-01   1.476903E-01   0.000000E+00   0.000000E+00   0.000000E+00
  38    0.000000E+00   0.000000E+00   2.354730E-01   0.000000E+00   0.000000E+00
  39   -8.430973E-02   9.607847E-02   0.000000E+00   6.141061E-02   4.873131E-01
  40    4.630559E-02  -4.613603E-01   0.000000E+00   6.086937E-03   1.057536E-01
  41   -1.305750E-01  -6.543174E-03   0.000000E+00   6.137647E-02   4.871765E-01
  42    0.000000E+00   0.000000E+00   0.000000E+00   0.000000E+00   0.000000E+00
  43    1.472965E-06   8.214783E-07   0.000000E+00   0.000000E+00   6.160926E-09
  44   -3.588218E-06  -2.101964E-06   0.000000E+00   0.000000E+00  -1.953816E-08
  45   -2.101964E-06  -9.915293E-07   0.000000E+00   0.000000E+00  -7.149431E-09
  46    0.000000E+00   0.000000E+00   1.807441E-07   0.000000E+00   0.000000E+00
  47    5.736179E-07   4.522137E-07   0.000000E+00   0.000000E+00   8.614158E-09
  48    0.000000E+00   0.000000E+00   0.000000E+00   0.000000E+00   0.000000E+00
  49    1.953816E-08   7.149431E-09   0.000000E+00   0.000000E+00   0.000000E+00
  50   -6.003037E-08  -2.267300E-08   0.000000E+00   0.000000E+00   0.000000E+00
  51   -2.267300E-08  -6.365530E-09   0.000000E+00   0.000000E+00   0.000000E+00
  52    0.000000E+00   0.000000E+00   1.931009E-09   0.000000E+00   0.000000E+00
  53    2.223102E-07   4.234758E-08   0.000000E+00   0.000000E+00   2.636463E-10
  54    7.110011E-10   2.906320E-10   0.000000E+00   0.000000E+00   0.000000E+00
  55    5.232719E-06   5.685856E-06   0.000000E+00   0.000000E+00   4.068450E-08
  56    1.955124E-03   2.124431E-03   0.000000E+00   4.068450E-08   1.756811E-04
  57   -2.235736E-03  -2.951406E-03   0.000000E+00  -1.480037E-07  -3.413519E-04
  58   -2.951406E-03  -2.726532E-03   0.000000E+00  -8.863563E-08  -2.044270E-04
  59    0.000000E+00   0.000000E+00   4.804558E-04   0.000000E+00   0.000000E+00
  60    1.704183E-04   2.539629E-04   0.000000E+00   1.625072E-08   3.497981E-05
   
            36             37             38             39             40
  36    1.000000E+00
  37    0.000000E+00   1.000000E+00
  38    0.000000E+00   0.000000E+00   1.000000E+00
  39   -7.602612E-02   4.589563E-01   0.000000E+00   1.000000E+00
  40    8.603791E-02  -1.039666E-01   0.000000E+00   1.455418E-02   1.000000E+00
  41   -3.785249E-01  -2.703018E-01   0.000000E+00   1.492778E-01   5.478315E-02
  42    0.000000E+00   0.000000E+00   0.000000E+00   0.000000E+00   0.000000E+00
  43    1.953816E-08   7.149431E-09   0.000000E+00   7.889238E-08   2.652950E-07
  44   -6.003037E-08  -2.267300E-08   0.000000E+00  -2.223102E-07  -5.736179E-07
  45   -2.267300E-08  -6.365530E-09   0.000000E+00  -4.234758E-08  -4.522137E-07
  46    0.000000E+00   0.000000E+00   1.931009E-09   0.000000E+00   0.000000E+00
  47    2.317848E-08   1.269254E-08   0.000000E+00   1.480886E-07   6.509444E-08
  48    0.000000E+00   0.000000E+00   0.000000E+00   0.000000E+00   0.000000E+00
  49    0.000000E+00   0.000000E+00   0.000000E+00   2.636463E-10   8.614158E-09
  50    0.000000E+00   0.000000E+00   0.000000E+00  -8.824629E-10  -2.317848E-08
  51    0.000000E+00   0.000000E+00   0.000000E+00  -8.115519E-11  -1.269254E-08
  52    0.000000E+00   0.000000E+00   0.000000E+00   0.000000E+00   0.000000E+00
  53    8.824629E-10   8.115519E-11   0.000000E+00   1.000463E-09   1.480886E-07
  54    0.000000E+00   0.000000E+00   0.000000E+00   0.000000E+00   2.910896E-10
  55    1.480037E-07   8.863563E-08   0.000000E+00   2.840718E-06   2.796078E-07
  56    3.413519E-04   2.044270E-04   0.000000E+00   7.638924E-04   1.901728E-04
  57   -6.139119E-04  -4.013326E-04   0.000000E+00  -1.388415E-03  -2.098243E-04
  58   -4.013326E-04  -1.841151E-04   0.000000E+00  -4.208547E-04  -3.301402E-04
  59    0.000000E+00   0.000000E+00   5.623276E-05   0.000000E+00   0.000000E+00
  60    5.906642E-05   5.184215E-05   0.000000E+00   2.906497E-04   1.446313E-05
   
            41             42             43             44             45
  41    1.000000E+00
  42    0.000000E+00   1.000000E+00
  43    2.277194E-10   2.483624E-01   1.000000E+00
  44   -7.110011E-10   0.000000E+00   0.000000E+00   1.000000E+00
  45   -2.906320E-10   0.000000E+00   0.000000E+00   0.000000E+00   1.000000E+00
  46    0.000000E+00   0.000000E+00   0.000000E+00   0.000000E+00   0.000000E+00
  47    2.910896E-10   6.078063E-02   4.847823E-01  -4.630559E-02   4.613603E-01
  48    0.000000E+00   2.238238E-06   4.283234E-02   6.526599E-02  -2.802885E-02
  49    0.000000E+00   4.283234E-02   3.931364E-01   3.747199E-01  -1.609256E-01
  50    0.000000E+00  -6.526599E-02  -3.747199E-01  -2.404894E-01   2.044048E-01
  51    0.000000E+00   2.802885E-02   1.609256E-01   2.044048E-01   1.476903E-01
  52    0.000000E+00   0.000000E+00   0.000000E+00   0.000000E+00   0.000000E+00
  53    0.000000E+00   5.582260E-03   9.935226E-02   8.430973E-02  -9.607847E-02
  54    0.000000E+00   5.786726E-03   1.019618E-01   1.305750E-01   6.543174E-03
  55    1.191138E-09   0.000000E+00   1.257045E-03  -3.013836E-03  -3.243776E-05
  56    7.487542E-06   1.257045E-03   4.912941E-02  -7.411060E-02  -7.976485E-04
  57   -1.535859E-05   3.013836E-03   7.411060E-02  -1.024456E-01  -1.318868E-03
  58   -9.531517E-06   3.243776E-05   7.976485E-04  -1.318868E-03   2.007797E-02
  59    0.000000E+00   0.000000E+00   0.000000E+00   0.000000E+00   0.000000E+00
  60    1.566010E-06   1.132165E-03   3.275690E-02  -4.381781E-02   1.887295E-02
   
            46             47             48             49             50
  46    1.000000E+00
  47    0.000000E+00   1.000000E+00
  48    0.000000E+00   6.086937E-03   1.000000E+00
  49    0.000000E+00   1.057536E-01   2.483624E-01   1.000000E+00
  50    0.000000E+00  -8.603791E-02   0.000000E+00   0.000000E+00   1.000000E+00
  51    0.000000E+00   1.039666E-01   0.000000E+00   0.000000E+00   0.000000E+00
  52    2.354730E-01   0.000000E+00   0.000000E+00   0.000000E+00   0.000000E+00
  53    0.000000E+00   1.455418E-02   6.141061E-02   4.873131E-01   7.602612E-02
  54    0.000000E+00   5.478315E-02   6.137647E-02   4.871765E-01   3.785249E-01
  55    0.000000E+00   1.326212E-03   0.000000E+00   2.969516E-06  -1.057736E-05
  56    0.000000E+00   3.644478E-02   2.969516E-06   1.733922E-03  -3.391797E-03
  57    0.000000E+00   4.762268E-02   1.057736E-05   3.391797E-03  -6.251224E-03
  58    0.000000E+00   2.218553E-02  -1.418425E-06  -4.548404E-04   9.159679E-04
  59    2.009216E-02   0.000000E+00   0.000000E+00   0.000000E+00   0.000000E+00
  60    0.000000E+00   6.214084E-02   5.752357E-06   1.170426E-03  -1.989974E-03
   
            51             52             53             54             55
  51    1.000000E+00
  52    0.000000E+00   1.000000E+00
  53   -4.589563E-01   0.000000E+00   1.000000E+00
  54    2.703018E-01   0.000000E+00   1.492778E-01   1.000000E+00
  55    1.418425E-06   0.000000E+00   2.326393E-06   2.837745E-07   1.000000E+00
  56    4.548404E-04   0.000000E+00   6.772238E-04   1.918596E-04   2.483624E-01
  57    9.159679E-04   0.000000E+00   1.201564E-03   3.942908E-04   0.000000E+00
  58    4.564236E-04   0.000000E+00  -4.841529E-04   1.134793E-05   0.000000E+00
  59    0.000000E+00   5.792550E-04   0.000000E+00   0.000000E+00   0.000000E+00
  60    8.562791E-04   0.000000E+00   2.381114E-04   2.529067E-04   6.102870E-02
   
            56             57             58             59             60
  56    1.000000E+00
  57    0.000000E+00   1.000000E+00
  58    0.000000E+00   0.000000E+00   1.000000E+00
  59    0.000000E+00   0.000000E+00   0.000000E+00   1.000000E+00
  60    4.857813E-01   1.333401E-02   4.640930E-01   0.000000E+00   1.000000E+00
   
  smallest eigenvalue of S:    1.814E-01
  number of canonical orbitals.....           60
  Peak memory usage:    621 Mb
  
  end of program onee
   
 Time(onee)  user:        0.0  user+sys:        0.0  wallclock:        0.1
  
  start of program hfig
  
  initial wavefunction generated automatically from atomic wavefunctions
 
  Irreducible     Total no   No of occupied orbitals 
  representation  orbitals   Shell_1  Shell_2    ...
  Ag                25         15
  Bg                 5          3
  Au                 5          2
  Bu                25         15
  ------------------------
  Orbital occupation/shell    1.000
 
  Peak memory usage:    561 Mb
  
  end of program hfig
   
 Time(hfig)  user:        0.0  user+sys:        0.0  wallclock:        0.3
  
  start of program probe
  
  Peak memory usage:    560 Mb
  
  end of program probe
   
 Time(probe)  user:        0.0  user+sys:        0.0  wallclock:        0.1
  
  start of program grid
  
  
   grid     grid set  grid #  grid sym
  ------    --------  ------  --------
  coarse        0        0        1
  medium        0        0        1
  fine          0        0        1
  ultrafine     0        0        1
  charge        0        0        1
  gradient      0        0        1
  density       0        0        1
  DFT-fine    -11        1        4
  DFT-med.    -10        2        4
  DFT-grad    -12        3        4
  DFT-der2      0        0        1
  DFT-cphf      0        0        1
  LMP2-enrg     0        0        1
  LMP2-grad     0        0        1
  DFT-cphf2     0        0        1
  PBF-dens      0        0        1
  plotting      0        0        1
  
   
  number of gridpoints: 
     atom        C1       C2       C3       C4       C5       H6       H7
  grid # 1     2430     2430        0        0        0     2430        0
  grid # 2      756      756        0        0        0      756        0
  grid # 3     3001     3001        0        0        0     3001        0
   
  number of gridpoints: 
     atom        H8       C9      C10      H11      H12      H13      C14
  grid # 1        0        0        0        0        0        0     2430
  grid # 2        0        0        0        0        0        0      756
  grid # 3        0        0        0        0        0        0     3001
   
  number of gridpoints: 
     atom       H15      C16      H17      H18      C19      H20    total
  grid # 1     2430     2430     2430     2430     2430     2430    24300
  grid # 2      756      756      756      756      756      756     7560
  grid # 3     3001     3001     3001     3001     3001     3001    30010
   
  Peak memory usage:    602 Mb
  
  end of program grid
   
 Time(grid)  user:        0.0  user+sys:        0.0  wallclock:        0.5
  
  start of program scf
  
 number of electrons..........         70
 number of alpha electrons....         35
 number of beta electrons.....         35
 number of orbitals, total....         60
 number of doubly-occ'd orbs..         35
 number of open shell orbs....          0
 number of occupied orbitals..         35
 number of virtual orbitals...         25
 number of hamiltonians.......          1
 number of shells.............          1
 SCF type: DFT=Becke_3_Parameter/HF+Slater+Becke88+VWN+LYP (B3LYP)
  
       i  u  d  i  g                   
       t  p  i  c  r                                 RMS    maximum
       e  d  i  u  i                       energy  density   DIIS  
       r  t  s  t  d       total energy    change  change    error 
  
etot    1  N  N  0  N    -382.08751565837           2.3E-03  1.4E-01
etot    2  Y  Y  0  N    -382.27485685964  1.9E-01  1.4E-03  5.7E-02
etot    3  N  Y  0  N    -382.30454636303  3.0E-02  4.8E-04  1.1E-02
etot    4  Y  Y  0  N    -382.30787805501  3.3E-03  1.3E-04  5.1E-03
etot    5  Y  Y  0  N    -382.30829300063  4.1E-04  1.2E-05  2.3E-04
etot    6  N  N  0  N    -382.30825829250 -3.5E-05  0.0E+00  0.0E+00
  
  
 Energy components, in hartrees:
   (A)  Nuclear repulsion............     445.89932156785
   (E)  Total one-electron terms.....   -1400.56549060511
   (I)  Total two-electron terms.....     572.35791074475
   (J)    Coulomb....................     630.20156680673
   (K)    Exchange+Correlation.......     -57.84365606198
   (L)  Electronic energy............    -828.20757986035  (E+I)
   (N)  Total energy.................    -382.30825829250  (A+L)
  
 SCFE: SCF energy: DFT(b3lyp)      -382.30825829250 hartrees   iterations:   6
  
 
 HOMO energy:    -0.15309
 LUMO energy:     0.03741
 
  Orbital energies (hartrees)/symmetry label: 
   -10.02042 Bu        -10.02037 Ag        -10.00819 Bu        -10.00819 Ag     
   -10.00685 Ag        -10.00684 Bu        -10.00622 Bu        -10.00608 Ag     
    -9.99195 Bu         -9.99195 Ag         -0.80962 Ag         -0.75401 Bu     
    -0.71792 Ag         -0.69986 Bu         -0.66751 Bu         -0.58872 Ag     
    -0.55899 Ag         -0.53165 Bu         -0.51022 Ag         -0.45745 Ag     
    -0.43936 Bu         -0.41063 Bu         -0.39799 Bu         -0.39601 Ag     
    -0.37402 Bu         -0.35116 Bu         -0.34726 Ag         -0.32460 Au     
    -0.31126 Bu         -0.29284 Ag         -0.28753 Ag         -0.26357 Bg     
    -0.21240 Au         -0.19514 Bg         -0.15309 Bg          0.03741 Au     
     0.09028 Au          0.11066 Bg          0.18218 Au          0.27243 Bg     
     0.33220 Ag          0.34072 Bu          0.37930 Bu          0.38146 Ag     
     0.41097 Ag          0.41195 Bu          0.42676 Bu          0.43958 Ag     
     0.45278 Bu          0.47826 Ag          0.52619 Ag          0.54578 Bu     
     0.57595 Ag          0.59938 Bu          0.62498 Bu          0.63972 Ag     
     0.68280 Ag          0.71728 Bu          0.77949 Ag          0.79447 Bu     
 
  Peak memory usage:    654 Mb
  
  end of program scf
   
 Time(scf)  user:        2.0  user+sys:        2.0  wallclock:        2.6
  
  start of program ch
  
  Atomic charges from Mulliken population analysis: 
   
 Atom       C1           C2           C3           C4           C5      
 Charge   -0.00424     -0.07660     -0.07703     -0.00424     -0.07660
   
 Atom       H6           H7           H8           C9           C10     
 Charge    0.07906      0.07769      0.07906     -0.07617     -0.15566
   
 Atom       H11          H12          H13          C14          H15     
 Charge    0.07651      0.07694      0.07949     -0.07617      0.07694
   
 Atom       C16          H17          H18          C19          H20     
 Charge   -0.15566      0.07651      0.07949     -0.07703      0.07769
  
  sum of atomic charges:     0.000000
   
  Peak memory usage:    515 Mb
  
  end of program ch
   
 Time(ch)  user:        0.0  user+sys:        0.0  wallclock:        0.1
  
  start of program post
  
  
 ***************************************** 
 
 occupied + virtual orbitals: final wave function
 
 ***************************************** 
   
   
                              1         2         3         4         5
  eigenvalues-            -10.02042 -10.02037 -10.00819 -10.00819 -10.00685
  occupations-              2.00000   2.00000   2.00000   2.00000   2.00000
    1 C1               S    0.69927   0.69926  -0.02896  -0.02917   0.00028
    2 C1               S    0.03157   0.03136   0.00411   0.00405   0.00000
    3 C1               X   -0.00085  -0.00061   0.00371   0.00369   0.00250
    4 C1               Y   -0.00032  -0.00018   0.00196   0.00194  -0.00467
    5 C1               Z    0.00000   0.00000   0.00000   0.00000   0.00000
    6 C2               S   -0.01877  -0.01901   0.00559   0.00780  -0.49503
    7 C2               S   -0.00770  -0.00686   0.00035   0.00032  -0.02644
    8 C2               X    0.00007  -0.00037  -0.00011  -0.00008   0.00333
    9 C2               Y   -0.00438  -0.00441   0.00011   0.00020   0.00127
   10 C2               Z    0.00000   0.00000   0.00000   0.00000   0.00000
   11 C3               S    0.01875  -0.01925  -0.00785   0.01138   0.49489
   12 C3               S    0.00773  -0.00692  -0.00048   0.00058   0.02642
   13 C3               X   -0.00362   0.00390   0.00005  -0.00011   0.00290
   14 C3               Y    0.00250  -0.00218  -0.00012   0.00017   0.00202
   15 C3               Z    0.00000   0.00000   0.00000   0.00000   0.00000
   16 C4               S   -0.69927   0.69926   0.02896  -0.02917   0.00028
   17 C4               S   -0.03157   0.03136  -0.00411   0.00405   0.00000
   18 C4               X   -0.00085   0.00061   0.00371  -0.00369  -0.00250
   19 C4               Y   -0.00032   0.00018   0.00196  -0.00194   0.00467
   20 C4               Z    0.00000   0.00000   0.00000   0.00000   0.00000
   21 C5               S    0.01877  -0.01901  -0.00559   0.00780  -0.49503
   22 C5               S    0.00770  -0.00686  -0.00035   0.00032  -0.02644
   23 C5               X    0.00007   0.00037  -0.00011   0.00008  -0.00333
   24 C5               Y   -0.00438   0.00441   0.00011  -0.00020  -0.00127
   25 C5               Z    0.00000   0.00000   0.00000   0.00000   0.00000
   26 H6               S    0.00033   0.00022   0.00008   0.00008   0.00458
   27 H7               S   -0.00033   0.00022   0.00007  -0.00008  -0.00457
   28 H8               S   -0.00033   0.00022  -0.00008   0.00008   0.00458
   29 C9               S    0.02827  -0.02864   0.69982  -0.69975   0.00254
   30 C9               S    0.00676  -0.00683   0.03077  -0.03076   0.00011
   31 C9               X    0.00347  -0.00350  -0.00126   0.00127   0.00005
   32 C9               Y    0.00213  -0.00215   0.00036  -0.00035  -0.00010
   33 C9               Z    0.00000   0.00000   0.00000   0.00000   0.00000
   34 C10              S   -0.00018   0.00020  -0.00783   0.00782   0.00018
   35 C10              S   -0.00048   0.00049  -0.00760   0.00760   0.00002
   36 C10              X   -0.00027   0.00028  -0.00423   0.00423  -0.00002
   37 C10              Y   -0.00009   0.00009   0.00178  -0.00178   0.00003
   38 C10              Z    0.00000   0.00000   0.00000   0.00000   0.00000
   39 H11              S    0.00015  -0.00014   0.00018  -0.00018  -0.00014
   40 H12              S   -0.00033   0.00034  -0.00642   0.00642  -0.00002
   41 H13              S    0.00003  -0.00003   0.00021  -0.00021   0.00000
   42 C14              S   -0.02827  -0.02864  -0.69982  -0.69975   0.00254
   43 C14              S   -0.00676  -0.00683  -0.03077  -0.03076   0.00011
   44 C14              X    0.00347   0.00350  -0.00126  -0.00127  -0.00005
   45 C14              Y    0.00213   0.00215   0.00036   0.00035   0.00010
   46 C14              Z    0.00000   0.00000   0.00000   0.00000   0.00000
   47 H15              S    0.00033   0.00034   0.00642   0.00642  -0.00002
   48 C16              S    0.00018   0.00020   0.00783   0.00782   0.00018
   49 C16              S    0.00048   0.00049   0.00760   0.00760   0.00002
   50 C16              X   -0.00027  -0.00028  -0.00423  -0.00423   0.00002
   51 C16              Y   -0.00009  -0.00009   0.00178   0.00178  -0.00003
   52 C16              Z    0.00000   0.00000   0.00000   0.00000   0.00000
   53 H17              S   -0.00015  -0.00014  -0.00018  -0.00018  -0.00014
   54 H18              S   -0.00003  -0.00003  -0.00021  -0.00021   0.00000
   55 C19              S   -0.01875  -0.01925   0.00785   0.01138   0.49489
   56 C19              S   -0.00773  -0.00692   0.00048   0.00058   0.02642
   57 C19              X   -0.00362  -0.00390   0.00005   0.00011  -0.00290
   58 C19              Y    0.00250   0.00218  -0.00012  -0.00017  -0.00202
   59 C19              Z    0.00000   0.00000   0.00000   0.00000   0.00000
   60 H20              S    0.00033   0.00022  -0.00007  -0.00008  -0.00457
   
                              6         7         8         9        10
  eigenvalues-            -10.00684 -10.00622 -10.00608  -9.99195  -9.99195
  occupations-              2.00000   2.00000   2.00000   2.00000   2.00000
    1 C1               S   -0.02833  -0.00006  -0.02904   0.00017   0.00018
    2 C1               S    0.00822   0.00004   0.00753   0.00016   0.00016
    3 C1               X   -0.00292   0.00243  -0.00270   0.00006   0.00006
    4 C1               Y   -0.00156  -0.00458  -0.00147   0.00000  -0.00001
    5 C1               Z    0.00000   0.00000   0.00000   0.00000   0.00000
    6 C2               S   -0.49265  -0.49753  -0.49519   0.00083   0.00090
    7 C2               S   -0.02655  -0.01733  -0.01714  -0.00001  -0.00003
    8 C2               X    0.00353  -0.00208  -0.00229  -0.00010  -0.00008
    9 C2               Y    0.00122  -0.00170  -0.00146  -0.00004  -0.00003
   10 C2               Z    0.00000   0.00000   0.00000   0.00000   0.00000
   11 C3               S    0.49645  -0.49371  -0.49526  -0.00029   0.00060
   12 C3               S    0.02667  -0.01710  -0.01710   0.00000  -0.00006
   13 C3               X    0.00295   0.00261   0.00251  -0.00008   0.00003
   14 C3               Y    0.00222   0.00080   0.00112  -0.00002  -0.00001
   15 C3               Z    0.00000   0.00000   0.00000   0.00000   0.00000
   16 C4               S    0.02833   0.00006  -0.02904  -0.00017   0.00018
   17 C4               S   -0.00822  -0.00004   0.00753  -0.00016   0.00016
   18 C4               X   -0.00292   0.00243   0.00270   0.00006  -0.00006
   19 C4               Y   -0.00156  -0.00458   0.00147   0.00000   0.00001
   20 C4               Z    0.00000   0.00000   0.00000   0.00000   0.00000
   21 C5               S    0.49265   0.49753  -0.49519  -0.00083   0.00090
   22 C5               S    0.02655   0.01733  -0.01714   0.00001  -0.00003
   23 C5               X    0.00353  -0.00208   0.00229  -0.00010   0.00008
   24 C5               Y    0.00122  -0.00170   0.00146  -0.00004   0.00003
   25 C5               Z    0.00000   0.00000   0.00000   0.00000   0.00000
   26 H6               S    0.00459   0.00437   0.00453   0.00010   0.00010
   27 H7               S   -0.00461   0.00432   0.00451   0.00001  -0.00002
   28 H8               S   -0.00459  -0.00437   0.00453  -0.00010   0.00010
   29 C9               S    0.00843  -0.00158  -0.01247  -0.00872   0.00872
   30 C9               S    0.00050  -0.00008  -0.00054   0.00690  -0.00690
   31 C9               X   -0.00006   0.00001   0.00018  -0.00419   0.00419
   32 C9               Y    0.00003   0.00002   0.00003   0.00184  -0.00184
   33 C9               Z    0.00000   0.00000   0.00000   0.00000   0.00000
   34 C10              S   -0.00087  -0.00036   0.00117  -0.70048   0.70048
   35 C10              S   -0.00022  -0.00001   0.00028  -0.03086   0.03086
   36 C10              X   -0.00011   0.00001   0.00016  -0.00116   0.00116
   37 C10              Y   -0.00003  -0.00005   0.00002   0.00055  -0.00055
   38 C10              Z    0.00000   0.00000   0.00000   0.00000   0.00000
   39 H11              S    0.00013   0.00011  -0.00011   0.00636  -0.00636
   40 H12              S   -0.00013   0.00003   0.00021  -0.00005   0.00005
   41 H13              S   -0.00001  -0.00001   0.00001   0.00637  -0.00637
   42 C14              S   -0.00843   0.00158  -0.01247   0.00872   0.00872
   43 C14              S   -0.00050   0.00008  -0.00054  -0.00690  -0.00690
   44 C14              X   -0.00006   0.00001  -0.00018  -0.00419  -0.00419
   45 C14              Y    0.00003   0.00002  -0.00003   0.00184   0.00184
   46 C14              Z    0.00000   0.00000   0.00000   0.00000   0.00000
   47 H15              S    0.00013  -0.00003   0.00021   0.00005   0.00005
   48 C16              S    0.00087   0.00036   0.00117   0.70048   0.70048
   49 C16              S    0.00022   0.00001   0.00028   0.03086   0.03086
   50 C16              X   -0.00011   0.00001  -0.00016  -0.00116  -0.00116
   51 C16              Y   -0.00003  -0.00005  -0.00002   0.00055   0.00055
   52 C16              Z    0.00000   0.00000   0.00000   0.00000   0.00000
   53 H17              S   -0.00013  -0.00011  -0.00011  -0.00636  -0.00636
   54 H18              S    0.00001   0.00001   0.00001  -0.00637  -0.00637
   55 C19              S   -0.49645   0.49371  -0.49526   0.00029   0.00060
   56 C19              S   -0.02667   0.01710  -0.01710   0.00000  -0.00006
   57 C19              X    0.00295   0.00261  -0.00251  -0.00008  -0.00003
   58 C19              Y    0.00222   0.00080  -0.00112  -0.00002   0.00001
   59 C19              Z    0.00000   0.00000   0.00000   0.00000   0.00000
   60 H20              S    0.00461  -0.00432   0.00451  -0.00001  -0.00002
   
                             11        12        13        14        15
  eigenvalues-             -0.80962  -0.75401  -0.71792  -0.69986  -0.66751
  occupations-              2.00000   2.00000   2.00000   2.00000   2.00000
    1 C1               S   -0.10783   0.10345   0.00452  -0.01229  -0.09980
    2 C1               S    0.27461  -0.27344  -0.01478   0.03328   0.27438
    3 C1               X   -0.03691  -0.02976  -0.08768  -0.06132  -0.04790
    4 C1               Y   -0.01833  -0.01474  -0.04078   0.11109  -0.03465
    5 C1               Z    0.00000   0.00000   0.00000   0.00000   0.00000
    6 C2               S   -0.09757   0.04277  -0.04182   0.12027  -0.07300
    7 C2               S    0.24661  -0.11241   0.10911  -0.32438   0.20129
    8 C2               X   -0.04451  -0.02970  -0.04540   0.05126   0.02712
    9 C2               Y    0.03336  -0.05710  -0.01310   0.05386   0.06648
   10 C2               Z    0.00000   0.00000   0.00000   0.00000   0.00000
   11 C3               S   -0.09787  -0.03889  -0.04628   0.13221   0.04112
   12 C3               S    0.24701   0.10177   0.12134  -0.35683  -0.11364
   13 C3               X   -0.00329  -0.06462   0.02996  -0.05481   0.09878
   14 C3               Y    0.05499   0.00694   0.02708  -0.01413  -0.00655
   15 C3               Z    0.00000   0.00000   0.00000   0.00000   0.00000
   16 C4               S   -0.10783  -0.10345   0.00452   0.01229   0.09980
   17 C4               S    0.27461   0.27344  -0.01478  -0.03328  -0.27438
   18 C4               X    0.03691  -0.02976   0.08768  -0.06132  -0.04790
   19 C4               Y    0.01833  -0.01474   0.04078   0.11109  -0.03465
   20 C4               Z    0.00000   0.00000   0.00000   0.00000   0.00000
   21 C5               S   -0.09757  -0.04277  -0.04182  -0.12027   0.07300
   22 C5               S    0.24661   0.11241   0.10911   0.32438  -0.20129
   23 C5               X    0.04451  -0.02970   0.04540   0.05126   0.02712
   24 C5               Y   -0.03336  -0.05710   0.01310   0.05386   0.06648
   25 C5               Z    0.00000   0.00000   0.00000   0.00000   0.00000
   26 H6               S    0.04510  -0.03049   0.01684  -0.09015   0.05299
   27 H7               S    0.04499   0.02681   0.02330  -0.09840  -0.03254
   28 H8               S    0.04510   0.03049   0.01684   0.09015  -0.05299
   29 C9               S   -0.04978  -0.11392   0.11922   0.00044  -0.05139
   30 C9               S    0.12799   0.29745  -0.31472  -0.00188   0.13618
   31 C9               X    0.02283  -0.00296   0.06892  -0.02464  -0.13485
   32 C9               Y    0.02129   0.03499  -0.02444   0.01583  -0.00413
   33 C9               Z    0.00000   0.00000   0.00000   0.00000   0.00000
   34 C10              S   -0.02471  -0.08086   0.11749  -0.01423  -0.11027
   35 C10              S    0.06281   0.20972  -0.30988   0.03721   0.29952
   36 C10              X    0.02327   0.05921  -0.06561   0.00536   0.02636
   37 C10              Y   -0.00527  -0.01946   0.02968   0.00356  -0.02744
   38 C10              Z    0.00000   0.00000   0.00000   0.00000   0.00000
   39 H11              S    0.01411   0.04857  -0.07413   0.01456   0.07745
   40 H12              S    0.02571   0.06720  -0.07654  -0.01009   0.03725
   41 H13              S    0.01062   0.04384  -0.07495   0.00878   0.09005
   42 C14              S   -0.04978   0.11392   0.11922  -0.00044   0.05139
   43 C14              S    0.12799  -0.29745  -0.31472   0.00188  -0.13618
   44 C14              X   -0.02283  -0.00296  -0.06892  -0.02464  -0.13485
   45 C14              Y   -0.02129   0.03499   0.02444   0.01583  -0.00413
   46 C14              Z    0.00000   0.00000   0.00000   0.00000   0.00000
   47 H15              S    0.02571  -0.06720  -0.07654   0.01009  -0.03725
   48 C16              S   -0.02471   0.08086   0.11749   0.01423   0.11027
   49 C16              S    0.06281  -0.20972  -0.30988  -0.03721  -0.29952
   50 C16              X   -0.02327   0.05921   0.06561   0.00536   0.02636
   51 C16              Y    0.00527  -0.01946  -0.02968   0.00356  -0.02744
   52 C16              Z    0.00000   0.00000   0.00000   0.00000   0.00000
   53 H17              S    0.01411  -0.04857  -0.07413  -0.01456  -0.07745
   54 H18              S    0.01062  -0.04384  -0.07495  -0.00878  -0.09005
   55 C19              S   -0.09787   0.03889  -0.04628  -0.13221  -0.04112
   56 C19              S    0.24701  -0.10177   0.12134   0.35683   0.11364
   57 C19              X    0.00329  -0.06462  -0.02996  -0.05481   0.09878
   58 C19              Y   -0.05499   0.00694  -0.02708  -0.01413  -0.00655
   59 C19              Z    0.00000   0.00000   0.00000   0.00000   0.00000
   60 H20              S    0.04499  -0.02681   0.02330   0.09840   0.03254
   
                             16        17        18        19        20
  eigenvalues-             -0.58872  -0.55899  -0.53165  -0.51022  -0.45745
  occupations-              2.00000   2.00000   2.00000   2.00000   2.00000
    1 C1               S   -0.07119  -0.05395  -0.01334   0.05468   0.03226
    2 C1               S    0.20687   0.15966   0.03807  -0.16248  -0.10632
    3 C1               X    0.03072   0.11927  -0.11109   0.14113  -0.10967
    4 C1               Y    0.13659  -0.15603  -0.09409   0.02645  -0.09083
    5 C1               Z    0.00000   0.00000   0.00000   0.00000   0.00000
    6 C2               S    0.08128  -0.05806  -0.03040  -0.05257  -0.01943
    7 C2               S   -0.23186   0.17240   0.09205   0.16698   0.05498
    8 C2               X    0.00227   0.13345   0.06216   0.09903  -0.15604
    9 C2               Y    0.07011   0.13611   0.05939  -0.17986   0.03768
   10 C2               Z    0.00000   0.00000   0.00000   0.00000   0.00000
   11 C3               S   -0.00217   0.11045   0.05070  -0.00659   0.01315
   12 C3               S    0.00763  -0.32612  -0.15452   0.02425  -0.05088
   13 C3               X   -0.16073   0.00990   0.00694   0.14312   0.08939
   14 C3               Y   -0.02259   0.08984  -0.00339  -0.14559   0.17529
   15 C3               Z    0.00000   0.00000   0.00000   0.00000   0.00000
   16 C4               S   -0.07119  -0.05395   0.01334   0.05468   0.03226
   17 C4               S    0.20687   0.15966  -0.03807  -0.16248  -0.10632
   18 C4               X   -0.03072  -0.11927  -0.11109  -0.14113   0.10967
   19 C4               Y   -0.13659   0.15603  -0.09409  -0.02645   0.09083
   20 C4               Z    0.00000   0.00000   0.00000   0.00000   0.00000
   21 C5               S    0.08128  -0.05806   0.03040  -0.05257  -0.01943
   22 C5               S   -0.23186   0.17240  -0.09205   0.16698   0.05498
   23 C5               X   -0.00227  -0.13345   0.06216  -0.09903   0.15604
   24 C5               Y   -0.07011  -0.13611   0.05939   0.17986  -0.03768
   25 C5               Z    0.00000   0.00000   0.00000   0.00000   0.00000
   26 H6               S   -0.10527   0.08375   0.05475   0.16965  -0.09078
   27 H7               S    0.01843  -0.16979  -0.05024   0.09816  -0.13600
   28 H8               S   -0.10527   0.08375  -0.05475   0.16965  -0.09078
   29 C9               S   -0.05320  -0.00724  -0.09888  -0.05919  -0.03994
   30 C9               S    0.16000   0.02349   0.30271   0.18089   0.12690
   31 C9               X    0.14916   0.05735   0.07621   0.01870  -0.13835
   32 C9               Y   -0.03533   0.06968  -0.09666  -0.06170  -0.16793
   33 C9               Z    0.00000   0.00000   0.00000   0.00000   0.00000
   34 C10              S    0.08420   0.03701   0.08074   0.05136   0.01672
   35 C10              S   -0.24286  -0.11101  -0.24914  -0.16289  -0.06287
   36 C10              X    0.04827   0.04217   0.12636   0.10303   0.05956
   37 C10              Y   -0.02111   0.02917  -0.08701  -0.04912  -0.20480
   38 C10              Z    0.00000   0.00000   0.00000   0.00000   0.00000
   39 H11              S   -0.10381  -0.02196  -0.16037  -0.09501  -0.17909
   40 H12              S    0.08032  -0.03296   0.17058   0.11260   0.15244
   41 H13              S   -0.09855  -0.06699  -0.12488  -0.09690   0.02201
   42 C14              S   -0.05320  -0.00724   0.09888  -0.05919  -0.03994
   43 C14              S    0.16000   0.02349  -0.30271   0.18089   0.12690
   44 C14              X   -0.14916  -0.05735   0.07621  -0.01870   0.13835
   45 C14              Y    0.03533  -0.06968  -0.09666   0.06170   0.16793
   46 C14              Z    0.00000   0.00000   0.00000   0.00000   0.00000
   47 H15              S    0.08032  -0.03296  -0.17058   0.11260   0.15244
   48 C16              S    0.08420   0.03701  -0.08074   0.05136   0.01672
   49 C16              S   -0.24286  -0.11101   0.24914  -0.16289  -0.06287
   50 C16              X   -0.04827  -0.04217   0.12636  -0.10303  -0.05956
   51 C16              Y    0.02111  -0.02917  -0.08701   0.04912   0.20480
   52 C16              Z    0.00000   0.00000   0.00000   0.00000   0.00000
   53 H17              S   -0.10381  -0.02196   0.16037  -0.09501  -0.17909
   54 H18              S   -0.09855  -0.06699   0.12488  -0.09690   0.02201
   55 C19              S   -0.00217   0.11045  -0.05070  -0.00659   0.01315
   56 C19              S    0.00763  -0.32612   0.15452   0.02425  -0.05088
   57 C19              X    0.16073  -0.00990   0.00694  -0.14312  -0.08939
   58 C19              Y    0.02259  -0.08984  -0.00339   0.14559  -0.17529
   59 C19              Z    0.00000   0.00000   0.00000   0.00000   0.00000
   60 H20              S    0.01843  -0.16979   0.05024   0.09816  -0.13600
   
                             21        22        23        24        25
  eigenvalues-             -0.43936  -0.41063  -0.39799  -0.39601  -0.37402
  occupations-              2.00000   2.00000   2.00000   2.00000   2.00000
    1 C1               S    0.02296   0.06915   0.02292   0.02165  -0.00315
    2 C1               S   -0.07869  -0.23432  -0.07791  -0.07149   0.01108
    3 C1               X   -0.16779   0.05660   0.06666  -0.00495  -0.10125
    4 C1               Y    0.07549  -0.08774   0.25348  -0.01788   0.05675
    5 C1               Z    0.00000   0.00000   0.00000   0.00000   0.00000
    6 C2               S   -0.04233  -0.04422   0.01153   0.01838   0.02012
    7 C2               S    0.13805   0.15359  -0.03577  -0.06845  -0.06368
    8 C2               X   -0.06494   0.20526   0.02746  -0.14077   0.27325
    9 C2               Y   -0.12450  -0.05060  -0.25528  -0.00813  -0.10703
   10 C2               Z    0.00000   0.00000   0.00000   0.00000   0.00000
   11 C3               S    0.02214   0.04769  -0.00110  -0.02535   0.02861
   12 C3               S   -0.07455  -0.16400   0.00087   0.08470  -0.09115
   13 C3               X    0.16899  -0.12874   0.11118   0.07489  -0.03867
   14 C3               Y    0.07627   0.18895   0.04303   0.03179  -0.33884
   15 C3               Z    0.00000   0.00000   0.00000   0.00000   0.00000
   16 C4               S   -0.02296  -0.06915  -0.02292   0.02165   0.00315
[...]
   54 H18              S    0.00000   0.00000   0.00000   0.00000   0.00000
   55 C19              S    0.00000   0.00000   0.00000   0.00000   0.00000
   56 C19              S    0.00000   0.00000   0.00000   0.00000   0.00000
   57 C19              X    0.00000   0.00000   0.00000   0.00000   0.00000
   58 C19              Y    0.00000   0.00000   0.00000   0.00000   0.00000
   59 C19              Z   -0.23267  -0.58266  -0.24071   0.16623   0.46405
   60 H20              S    0.00000   0.00000   0.00000   0.00000   0.00000
   
                             41        42        43        44        45
  eigenvalues-              0.33220   0.34072   0.37930   0.38146   0.41097
  occupations-              0.00000   0.00000   0.00000   0.00000   0.00000
    1 C1               S    0.06829   0.03445   0.05778   0.02324  -0.05158
    2 C1               S   -0.40198  -0.20225  -0.33524  -0.14014   0.31147
    3 C1               X   -0.22969  -0.03818  -0.46809   0.10434   0.23056
    4 C1               Y   -0.17121  -0.31309  -0.05385  -0.07139  -0.19935
    5 C1               Z    0.00000   0.00000   0.00000   0.00000   0.00000
    6 C2               S    0.04640  -0.01587  -0.00442  -0.02112   0.10136
    7 C2               S   -0.28022   0.09633   0.01934   0.13463  -0.61951
    8 C2               X   -0.18180   0.08362  -0.39301   0.25422   0.02549
    9 C2               Y    0.15238  -0.27015   0.15228  -0.09923  -0.03351
   10 C2               Z    0.00000   0.00000   0.00000   0.00000   0.00000
   11 C3               S    0.02806   0.00630   0.02501  -0.06451  -0.07362
   12 C3               S   -0.17278  -0.03079  -0.15231   0.39398   0.45036
   13 C3               X   -0.04820   0.10454  -0.26188  -0.11792   0.16773
   14 C3               Y    0.30598  -0.34003   0.05333  -0.04334   0.00858
   15 C3               Z    0.00000   0.00000   0.00000   0.00000   0.00000
   16 C4               S    0.06829  -0.03445  -0.05778   0.02324  -0.05158
   17 C4               S   -0.40198   0.20225   0.33524  -0.14014   0.31147
   18 C4               X    0.22969  -0.03818  -0.46809  -0.10434  -0.23056
   19 C4               Y    0.17121  -0.31309  -0.05385   0.07139   0.19935
   20 C4               Z    0.00000   0.00000   0.00000   0.00000   0.00000
   21 C5               S    0.04640   0.01587   0.00442  -0.02112   0.10136
   22 C5               S   -0.28022  -0.09633  -0.01934   0.13463  -0.61951
   23 C5               X    0.18180   0.08362  -0.39301  -0.25422  -0.02549
   24 C5               Y   -0.15238  -0.27015   0.15228   0.09923   0.03351
   25 C5               Z    0.00000   0.00000   0.00000   0.00000   0.00000
   26 H6               S    0.42328  -0.26859   0.41167  -0.30066   0.22162
   27 H7               S    0.41345  -0.31989   0.11826  -0.29354  -0.22866
   28 H8               S    0.42328   0.26859  -0.41167  -0.30066   0.22162
   29 C9               S   -0.04924  -0.00770   0.09280   0.06352   0.02416
   30 C9               S    0.27759   0.04725  -0.54232  -0.38201  -0.15392
   31 C9               X    0.24219  -0.09683  -0.29657  -0.03771  -0.26638
   32 C9               Y    0.34243  -0.39709  -0.16197   0.33992   0.06029
   33 C9               Z    0.00000   0.00000   0.00000   0.00000   0.00000
   34 C10              S    0.03975  -0.00253  -0.04958  -0.02101   0.10386
   35 C10              S   -0.23007   0.01911   0.28954   0.11754  -0.65032
   36 C10              X    0.09495  -0.06175  -0.09970   0.12677   0.14925
   37 C10              Y    0.18148  -0.34047  -0.14208   0.36399  -0.19565
   38 C10              Z    0.00000   0.00000   0.00000   0.00000   0.00000
   39 H11              S   -0.11352   0.32376   0.01490  -0.39418   0.51065
   40 H12              S    0.14883  -0.43476   0.15709   0.57599   0.17201
   41 H13              S    0.35607  -0.28570  -0.34614   0.24870   0.32487
   42 C14              S   -0.04924   0.00770  -0.09280   0.06352   0.02416
   43 C14              S    0.27759  -0.04725   0.54232  -0.38201  -0.15392
   44 C14              X   -0.24219  -0.09683  -0.29657   0.03771   0.26638
   45 C14              Y   -0.34243  -0.39709  -0.16197  -0.33992  -0.06029
   46 C14              Z    0.00000   0.00000   0.00000   0.00000   0.00000
   47 H15              S    0.14883   0.43476  -0.15709   0.57599   0.17201
   48 C16              S    0.03975   0.00253   0.04958  -0.02101   0.10386
   49 C16              S   -0.23007  -0.01911  -0.28954   0.11754  -0.65032
   50 C16              X   -0.09495  -0.06175  -0.09970  -0.12677  -0.14925
   51 C16              Y   -0.18148  -0.34047  -0.14208  -0.36399   0.19565
   52 C16              Z    0.00000   0.00000   0.00000   0.00000   0.00000
   53 H17              S   -0.11352  -0.32376  -0.01490  -0.39418   0.51065
   54 H18              S    0.35607   0.28570   0.34614   0.24870   0.32487
   55 C19              S    0.02806  -0.00630  -0.02501  -0.06451  -0.07362
   56 C19              S   -0.17278   0.03079   0.15231   0.39398   0.45036
   57 C19              X    0.04820   0.10454  -0.26188   0.11792  -0.16773
   58 C19              Y   -0.30598  -0.34003   0.05333   0.04334  -0.00858
   59 C19              Z    0.00000   0.00000   0.00000   0.00000   0.00000
   60 H20              S    0.41345   0.31989  -0.11826  -0.29354  -0.22866
   
                             46        47        48        49        50
  eigenvalues-              0.41195   0.42676   0.43958   0.45278   0.47826
  occupations-              0.00000   0.00000   0.00000   0.00000   0.00000
    1 C1               S    0.08164   0.01993   0.12919  -0.06159  -0.03768
    2 C1               S   -0.47934  -0.12523  -0.78399   0.36616   0.23539
    3 C1               X   -0.05014   0.19356   0.02095  -0.14837  -0.16071
    4 C1               Y    0.10783   0.18464   0.03017   0.09911   0.31361
    5 C1               Z    0.00000   0.00000   0.00000   0.00000   0.00000
    6 C2               S   -0.10178  -0.00540  -0.06654   0.06643  -0.09696
    7 C2               S    0.61550   0.02122   0.41566  -0.40717   0.61491
    8 C2               X    0.13071   0.03645   0.15975  -0.18681  -0.12798
    9 C2               Y    0.04124   0.23414   0.30172   0.11418  -0.18930
   10 C2               Z    0.00000   0.00000   0.00000   0.00000   0.00000
   11 C3               S    0.07467   0.05747  -0.07879  -0.05879   0.11198
   12 C3               S   -0.44398  -0.35653   0.49188   0.35600  -0.70776
   13 C3               X   -0.04973   0.19527  -0.26153  -0.16909  -0.07771
   14 C3               Y    0.09328   0.40277  -0.10365   0.09472  -0.12592
   15 C3               Z    0.00000   0.00000   0.00000   0.00000   0.00000
   16 C4               S   -0.08164  -0.01993   0.12919   0.06159  -0.03768
   17 C4               S    0.47934   0.12523  -0.78399  -0.36616   0.23539
   18 C4               X   -0.05014   0.19356  -0.02095  -0.14837   0.16071
   19 C4               Y    0.10783   0.18464  -0.03017   0.09911  -0.31361
   20 C4               Z    0.00000   0.00000   0.00000   0.00000   0.00000
   21 C5               S    0.10178   0.00540  -0.06654  -0.06643  -0.09696
   22 C5               S   -0.61550  -0.02122   0.41566   0.40717   0.61491
   23 C5               X    0.13071   0.03645  -0.15975  -0.18681   0.12798
   24 C5               Y    0.04124   0.23414  -0.30172   0.11418   0.18930
   25 C5               Z    0.00000   0.00000   0.00000   0.00000   0.00000
   26 H6               S   -0.35623   0.05315  -0.19686   0.47147  -0.33044
   27 H7               S    0.32990   0.59883  -0.31561  -0.08302   0.22002
   28 H8               S    0.35623  -0.05315  -0.19686  -0.47147  -0.33044
   29 C9               S    0.03968  -0.07276  -0.09330  -0.07106   0.03092
   30 C9               S   -0.25045   0.45654   0.56359   0.42984  -0.21581
   31 C9               X   -0.21496   0.12270   0.11999  -0.09076  -0.07976
   32 C9               Y    0.09575  -0.19610  -0.08144  -0.09197   0.00815
   33 C9               Z    0.00000   0.00000   0.00000   0.00000   0.00000
   34 C10              S    0.08541  -0.02016   0.06783   0.11393   0.06460
   35 C10              S   -0.53703   0.13513  -0.41202  -0.71317  -0.41512
   36 C10              X    0.20482  -0.26733   0.04692   0.07398   0.40608
   37 C10              Y   -0.19466  -0.14182   0.01691  -0.12864  -0.00324
   38 C10              Z    0.00000   0.00000   0.00000   0.00000   0.00000
   39 H11              S    0.44730   0.04917   0.21244   0.52620   0.29457
   40 H12              S    0.20625  -0.44158  -0.36765  -0.29622   0.07546
   41 H13              S    0.31241  -0.33930   0.25953   0.33075   0.47611
   42 C14              S   -0.03968   0.07276  -0.09330   0.07106   0.03092
   43 C14              S    0.25045  -0.45654   0.56359  -0.42984  -0.21581
   44 C14              X   -0.21496   0.12270  -0.11999  -0.09076   0.07976
   45 C14              Y    0.09575  -0.19610   0.08144  -0.09197  -0.00815
   46 C14              Z    0.00000   0.00000   0.00000   0.00000   0.00000
   47 H15              S   -0.20625   0.44158  -0.36765   0.29622   0.07546
   48 C16              S   -0.08541   0.02016   0.06783  -0.11393   0.06460
   49 C16              S    0.53703  -0.13513  -0.41202   0.71317  -0.41512
   50 C16              X    0.20482  -0.26733  -0.04692   0.07398  -0.40608
   51 C16              Y   -0.19466  -0.14182  -0.01691  -0.12864   0.00324
   52 C16              Z    0.00000   0.00000   0.00000   0.00000   0.00000
   53 H17              S   -0.44730  -0.04917   0.21244  -0.52620   0.29457
   54 H18              S   -0.31241   0.33930   0.25953  -0.33075   0.47611
   55 C19              S   -0.07467  -0.05747  -0.07879   0.05879   0.11198
   56 C19              S    0.44398   0.35653   0.49188  -0.35600  -0.70776
   57 C19              X   -0.04973   0.19527   0.26153  -0.16909   0.07771
   58 C19              Y    0.09328   0.40277   0.10365   0.09472   0.12592
   59 C19              Z    0.00000   0.00000   0.00000   0.00000   0.00000
   60 H20              S   -0.32990  -0.59883  -0.31561   0.08302   0.22002
   
                             51        52        53        54        55
  eigenvalues-              0.52619   0.54578   0.57595   0.59938   0.62498
  occupations-              0.00000   0.00000   0.00000   0.00000   0.00000
    1 C1               S   -0.06728  -0.00380  -0.00188   0.05710  -0.09047
    2 C1               S    0.44902   0.01523   0.01891  -0.39474   0.61290
    3 C1               X   -0.52990  -0.24147   0.01109   0.07453   0.11822
    4 C1               Y   -0.31036   0.51257  -0.21492  -0.23708  -0.17988
    5 C1               Z    0.00000   0.00000   0.00000   0.00000   0.00000
    6 C2               S    0.04921  -0.03562   0.00342   0.08767   0.03302
    7 C2               S   -0.31891   0.24848  -0.02955  -0.60266  -0.21762
    8 C2               X    0.11463   0.38967   0.54638   0.27037  -0.06556
    9 C2               Y   -0.29175   0.33244  -0.37747   0.43761  -0.41407
   10 C2               Z    0.00000   0.00000   0.00000   0.00000   0.00000
   11 C3               S    0.01207  -0.09703  -0.00249  -0.03730   0.00829
   12 C3               S   -0.07913   0.65032   0.02208   0.25372  -0.07038
   13 C3               X    0.29222  -0.10216   0.02579   0.75037  -0.17693
   14 C3               Y   -0.38949  -0.05454   0.56569   0.03271   0.20512
   15 C3               Z    0.00000   0.00000   0.00000   0.00000   0.00000
   16 C4               S   -0.06728   0.00380  -0.00188  -0.05710   0.09047
   17 C4               S    0.44902  -0.01523   0.01891   0.39474  -0.61290
   18 C4               X    0.52990  -0.24147  -0.01109   0.07453   0.11822
   19 C4               Y    0.31036   0.51257   0.21492  -0.23708  -0.17988
   20 C4               Z    0.00000   0.00000   0.00000   0.00000   0.00000
   21 C5               S    0.04921   0.03562   0.00342  -0.08767  -0.03302
   22 C5               S   -0.31891  -0.24848  -0.02955   0.60266   0.21762
   23 C5               X   -0.11463   0.38967  -0.54638   0.27037  -0.06556
   24 C5               Y    0.29175   0.33244   0.37747   0.43761  -0.41407
   25 C5               Z    0.00000   0.00000   0.00000   0.00000   0.00000
   26 H6               S   -0.04421  -0.20921  -0.51887   0.25990  -0.00512
   27 H7               S   -0.26102  -0.30825   0.44808  -0.07606   0.13956
   28 H8               S   -0.04421   0.20921  -0.51887  -0.25990   0.00512
   29 C9               S   -0.07439  -0.02680  -0.05205   0.06081   0.02227
   30 C9               S    0.48626   0.19387   0.35569  -0.41780  -0.17208
   31 C9               X    0.04346  -0.12750  -0.18275   0.04444   0.35380
   32 C9               Y   -0.14778   0.23525   0.06141   0.09118   0.44809
   33 C9               Z    0.00000   0.00000   0.00000   0.00000   0.00000
   34 C10              S    0.01885   0.00868   0.04218  -0.00733  -0.01839
   35 C10              S   -0.11686  -0.06748  -0.28670   0.04598   0.13056
   36 C10              X    0.01106  -0.45034  -0.27794   0.18231  -0.05878
   37 C10              Y    0.36591  -0.17404  -0.00005  -0.22499  -0.57435
   38 C10              Z    0.00000   0.00000   0.00000   0.00000   0.00000
   39 H11              S   -0.23498   0.09677   0.13167   0.21031   0.36020
   40 H12              S   -0.30519   0.14753  -0.09583   0.24499   0.34762
   41 H13              S    0.24824  -0.35578  -0.06122  -0.01324  -0.34031
   42 C14              S   -0.07439   0.02680  -0.05205  -0.06081  -0.02227
   43 C14              S    0.48626  -0.19387   0.35569   0.41780   0.17208
   44 C14              X   -0.04346  -0.12750   0.18275   0.04444   0.35380
   45 C14              Y    0.14778   0.23525  -0.06141   0.09118   0.44809
   46 C14              Z    0.00000   0.00000   0.00000   0.00000   0.00000
   47 H15              S   -0.30519  -0.14753  -0.09583  -0.24499  -0.34762
   48 C16              S    0.01885  -0.00868   0.04218   0.00733   0.01839
   49 C16              S   -0.11686   0.06748  -0.28670  -0.04598  -0.13056
   50 C16              X   -0.01106  -0.45034   0.27794   0.18231  -0.05878
   51 C16              Y   -0.36591  -0.17404   0.00005  -0.22499  -0.57435
   52 C16              Z    0.00000   0.00000   0.00000   0.00000   0.00000
   53 H17              S   -0.23498  -0.09677   0.13167  -0.21031  -0.36020
   54 H18              S    0.24824   0.35578  -0.06122   0.01324   0.34031
   55 C19              S    0.01207   0.09703  -0.00249   0.03730  -0.00829
   56 C19              S   -0.07913  -0.65032   0.02208  -0.25372   0.07038
   57 C19              X   -0.29222  -0.10216  -0.02579   0.75037  -0.17693
   58 C19              Y    0.38949  -0.05454  -0.56569   0.03271   0.20512
   59 C19              Z    0.00000   0.00000   0.00000   0.00000   0.00000
   60 H20              S   -0.26102   0.30825   0.44808   0.07606  -0.13956
   
                             56        57        58        59        60
  eigenvalues-              0.63972   0.68280   0.71728   0.77949   0.79447
  occupations-              0.00000   0.00000   0.00000   0.00000   0.00000
    1 C1               S   -0.01520  -0.01608  -0.02071  -0.00501   0.04437
    2 C1               S    0.09134   0.10256   0.14598   0.03316  -0.33015
    3 C1               X    0.30833   0.40488  -0.27913  -0.27070   0.56857
    4 C1               Y    0.22794  -0.00211   0.38193   0.64895   0.37209
    5 C1               Z    0.00000   0.00000   0.00000   0.00000   0.00000
    6 C2               S    0.03183  -0.01749  -0.02007  -0.00707  -0.05726
    7 C2               S   -0.21870   0.12652   0.15024   0.04803   0.41794
    8 C2               X    0.23183  -0.43179   0.19106   0.25174  -0.52880
    9 C2               Y    0.25943  -0.12285   0.10695   0.54553   0.35067
   10 C2               Z    0.00000   0.00000   0.00000   0.00000   0.00000
   11 C3               S   -0.02712   0.01916  -0.04638   0.00710   0.05133
   12 C3               S    0.19039  -0.13816   0.33530  -0.04909  -0.37219
   13 C3               X    0.27946  -0.41075  -0.18455   0.58356  -0.04724
   14 C3               Y    0.36234  -0.01933   0.14833  -0.05379  -0.61342
   15 C3               Z    0.00000   0.00000   0.00000   0.00000   0.00000
   16 C4               S   -0.01520  -0.01608   0.02071  -0.00501  -0.04437
   17 C4               S    0.09134   0.10256  -0.14598   0.03316   0.33015
   18 C4               X   -0.30833  -0.40488  -0.27913   0.27070   0.56857
   19 C4               Y   -0.22794   0.00211   0.38193  -0.64895   0.37209
   20 C4               Z    0.00000   0.00000   0.00000   0.00000   0.00000
   21 C5               S    0.03183  -0.01749   0.02007  -0.00707   0.05726
   22 C5               S   -0.21870   0.12652  -0.15024   0.04803  -0.41794
   23 C5               X   -0.23183   0.43179   0.19106  -0.25174  -0.52880
   24 C5               Y   -0.25943   0.12285   0.10695  -0.54553   0.35067
   25 C5               Z    0.00000   0.00000   0.00000   0.00000   0.00000
   26 H6               S    0.05855   0.19118  -0.10573   0.04180   0.27556
   27 H7               S    0.20937   0.04177  -0.01802  -0.00660  -0.26973
   28 H8               S    0.05855   0.19118   0.10573   0.04180  -0.27556
   29 C9               S    0.04091  -0.04179   0.06146  -0.02713  -0.01251
   30 C9               S   -0.28390   0.32759  -0.46595   0.21579   0.07661
   31 C9               X    0.01290  -0.66357   0.63341  -0.44123   0.33884
   32 C9               Y   -0.57759  -0.10529  -0.42885   0.30405   0.13199
   33 C9               Z    0.00000   0.00000   0.00000   0.00000   0.00000
   34 C10              S   -0.03112   0.04916  -0.07105   0.04153  -0.01014
   35 C10              S    0.22573  -0.36767   0.53623  -0.32482   0.08609
   36 C10              X    0.45194  -0.37605   0.63832  -0.38414   0.07603
   37 C10              Y    0.33343   0.48485  -0.19990   0.14007  -0.20718
   38 C10              Z    0.00000   0.00000   0.00000   0.00000   0.00000
   39 H11              S   -0.28871  -0.26178   0.01143  -0.03409   0.13579
   40 H12              S   -0.31747  -0.14497  -0.17356   0.15833   0.04556
   41 H13              S    0.33226   0.11577   0.09368  -0.04724  -0.06425
   42 C14              S    0.04091  -0.04179  -0.06146  -0.02713   0.01251
   43 C14              S   -0.28390   0.32759   0.46595   0.21579  -0.07661
   44 C14              X   -0.01290   0.66357   0.63341   0.44123   0.33884
   45 C14              Y    0.57759   0.10529  -0.42885  -0.30405   0.13199
   46 C14              Z    0.00000   0.00000   0.00000   0.00000   0.00000
   47 H15              S   -0.31747  -0.14497   0.17356   0.15833  -0.04556
   48 C16              S   -0.03112   0.04916   0.07105   0.04153   0.01014
   49 C16              S    0.22573  -0.36767  -0.53623  -0.32482  -0.08609
   50 C16              X   -0.45194   0.37605   0.63832   0.38414   0.07603
   51 C16              Y   -0.33343  -0.48485  -0.19990  -0.14007  -0.20718
   52 C16              Z    0.00000   0.00000   0.00000   0.00000   0.00000
   53 H17              S   -0.28871  -0.26178  -0.01143  -0.03409  -0.13579
   54 H18              S    0.33226   0.11577  -0.09368  -0.04724   0.06425
   55 C19              S   -0.02712   0.01916   0.04638   0.00710  -0.05133
   56 C19              S    0.19039  -0.13816  -0.33530  -0.04909   0.37219
   57 C19              X   -0.27946   0.41075  -0.18455  -0.58356  -0.04724
   58 C19              Y   -0.36234   0.01933   0.14833   0.05379  -0.61342
   59 C19              Z    0.00000   0.00000   0.00000   0.00000   0.00000
   60 H20              S    0.20937   0.04177   0.01802  -0.00660   0.26973
   
  
  Peak memory usage:    515 Mb
  
  end of program post
   
 Time(post)  user:        0.0  user+sys:        0.0  wallclock:        0.1

 Total cpu seconds     user:       2.000   user+sys:       2.000
  
 Total elapsed time:    5 seconds

Job dvb_sp_ks completed on silenziosa at Fri Apr 11 07:49:11 2014
