Job dvb_sp_hf started on silenziosa at Tue Apr  8 22:24:42 2014
jobid: silenziosa-0-5344af6a

  +--------------------------------------------------------------------+
  |  Jaguar version 8.3, release  13                                   |
  |                                                                    |
  |  Copyright Schrodinger, Inc.                                       |
  |  All Rights Reserved.                                              |
  |                                                                    |
  |  The following have contributed to Jaguar (listed alphabetically): |
  |  Mike Beachy, Art Bochevarov, Dale Braden, Yixiang Cao,            |
  |  Chris Cortis, Rich Friesner, Bill Goddard, Hod Greeley,           |
  |  Tom Hughes, Jean-Marc Langlois, Daniel Mainz, Rob Murphy,         |
  |  Dean Philipp, Tom Pollard, Murco Ringnalda.                       |
  |                                                                    |
  |  Use of this program should be acknowledged in publications as:    |
  |                                                                    |
  |  Jaguar, version 8.3, Schrodinger, Inc., New York, NY, 2014.       |
  |                                                                    |
  |  A. D. Bochevarov, E. Harder, T. F. Hughes, J. R. Greenwood,       |
  |  D. A. Braden, D. M. Philipp, D. Rinaldo, M. D. Halls,             |
  |  J. Zhang, R. A. Friesner, "Jaguar: A High-Performance Quantum     |
  |  Chemistry Software Program with Strengths in Life and Materials   |
  |  Sciences", Int. J. Quantum Chem., 2013, 113(18), 2110-2142.       |
  +--------------------------------------------------------------------+
  
  start of program pre
  
  Job name: dvb_sp_hf
  Executables used: /usr/local/lib/schrodinger2014-1/jaguar-v83013/bin/Linux-x86_64
  Temporary files : /home/kml/dvb_sp_hf
  
  
  basis set:             sto-3g          
  net molecular charge:    0
  multiplicity:            1
  
  number of basis functions....           60
  
  Basis set name for each atom
  
  Atom     Basis 
  C1       sto-3g          
  C2       sto-3g          
  C3       sto-3g          
  C4       sto-3g          
  C5       sto-3g          
  H6       sto-3g          
  H7       sto-3g          
  H8       sto-3g          
  C9       sto-3g          
  C10      sto-3g          
  H11      sto-3g          
  H12      sto-3g          
  H13      sto-3g          
  C14      sto-3g          
  H15      sto-3g          
  C16      sto-3g          
  H17      sto-3g          
  H18      sto-3g          
  C19      sto-3g          
  H20      sto-3g          
  
  Gaussian basis set information
  
                                                        renorm    mfac*renorm
   atom    fn   prim  L        z            coef         coef         coef
 -------- ----- ---- --- -------------  -----------  -----------  -----------
 C1           1    1   S  7.161684E+01   1.5433E-01   2.7078E+00   2.7078E+00
 C1           1    2   S  1.304510E+01   5.3533E-01   2.6189E+00   2.6189E+00
 C1           1    3   S  3.530512E+00   4.4463E-01   8.1619E-01   8.1619E-01
 C1           2    4   S  2.941249E+00  -2.9565E-01  -4.7324E-01  -4.7324E-01
 C1           2    5   S  6.834831E-01   1.1815E+00   6.3299E-01   6.3299E-01
 C1           3    6   X  2.941249E+00   2.2135E-01   1.2153E+00   1.2153E+00
              4        Y                                           1.2153E+00
              5        Z                                           1.2153E+00
 C1           3    7   X  6.834831E-01   8.6271E-01   7.6421E-01   7.6421E-01
              4        Y                                           7.6421E-01
              5        Z                                           7.6421E-01
 C1           2    8   S  2.222899E-01   1.0000E+00   2.3073E-01   2.3073E-01
 C1           3    9   X  2.222899E-01   1.0000E+00   2.1757E-01   2.1757E-01
              4        Y                                           2.1757E-01
              5        Z                                           2.1757E-01
 C2           6    1   S  7.161684E+01   1.5433E-01   2.7078E+00   2.7078E+00
 C2           6    2   S  1.304510E+01   5.3533E-01   2.6189E+00   2.6189E+00
 C2           6    3   S  3.530512E+00   4.4463E-01   8.1619E-01   8.1619E-01
 C2           7    4   S  2.941249E+00  -2.9565E-01  -4.7324E-01  -4.7324E-01
 C2           7    5   S  6.834831E-01   1.1815E+00   6.3299E-01   6.3299E-01
 C2           8    6   X  2.941249E+00   2.2135E-01   1.2153E+00   1.2153E+00
              9        Y                                           1.2153E+00
             10        Z                                           1.2153E+00
 C2           8    7   X  6.834831E-01   8.6271E-01   7.6421E-01   7.6421E-01
              9        Y                                           7.6421E-01
             10        Z                                           7.6421E-01
 C2           7    8   S  2.222899E-01   1.0000E+00   2.3073E-01   2.3073E-01
 C2           8    9   X  2.222899E-01   1.0000E+00   2.1757E-01   2.1757E-01
              9        Y                                           2.1757E-01
             10        Z                                           2.1757E-01
 C3          11    1   S  7.161684E+01   1.5433E-01   2.7078E+00   2.7078E+00
 C3          11    2   S  1.304510E+01   5.3533E-01   2.6189E+00   2.6189E+00
 C3          11    3   S  3.530512E+00   4.4463E-01   8.1619E-01   8.1619E-01
 C3          12    4   S  2.941249E+00  -2.9565E-01  -4.7324E-01  -4.7324E-01
 C3          12    5   S  6.834831E-01   1.1815E+00   6.3299E-01   6.3299E-01
 C3          13    6   X  2.941249E+00   2.2135E-01   1.2153E+00   1.2153E+00
             14        Y                                           1.2153E+00
             15        Z                                           1.2153E+00
 C3          13    7   X  6.834831E-01   8.6271E-01   7.6421E-01   7.6421E-01
             14        Y                                           7.6421E-01
             15        Z                                           7.6421E-01
 C3          12    8   S  2.222899E-01   1.0000E+00   2.3073E-01   2.3073E-01
 C3          13    9   X  2.222899E-01   1.0000E+00   2.1757E-01   2.1757E-01
             14        Y                                           2.1757E-01
             15        Z                                           2.1757E-01
 C4          16    1   S  7.161684E+01   1.5433E-01   2.7078E+00   2.7078E+00
 C4          16    2   S  1.304510E+01   5.3533E-01   2.6189E+00   2.6189E+00
 C4          16    3   S  3.530512E+00   4.4463E-01   8.1619E-01   8.1619E-01
 C4          17    4   S  2.941249E+00  -2.9565E-01  -4.7324E-01  -4.7324E-01
 C4          17    5   S  6.834831E-01   1.1815E+00   6.3299E-01   6.3299E-01
 C4          18    6   X  2.941249E+00   2.2135E-01   1.2153E+00   1.2153E+00
             19        Y                                           1.2153E+00
             20        Z                                           1.2153E+00
 C4          18    7   X  6.834831E-01   8.6271E-01   7.6421E-01   7.6421E-01
             19        Y                                           7.6421E-01
             20        Z                                           7.6421E-01
 C4          17    8   S  2.222899E-01   1.0000E+00   2.3073E-01   2.3073E-01
 C4          18    9   X  2.222899E-01   1.0000E+00   2.1757E-01   2.1757E-01
             19        Y                                           2.1757E-01
             20        Z                                           2.1757E-01
 C5          21    1   S  7.161684E+01   1.5433E-01   2.7078E+00   2.7078E+00
 C5          21    2   S  1.304510E+01   5.3533E-01   2.6189E+00   2.6189E+00
 C5          21    3   S  3.530512E+00   4.4463E-01   8.1619E-01   8.1619E-01
 C5          22    4   S  2.941249E+00  -2.9565E-01  -4.7324E-01  -4.7324E-01
 C5          22    5   S  6.834831E-01   1.1815E+00   6.3299E-01   6.3299E-01
 C5          23    6   X  2.941249E+00   2.2135E-01   1.2153E+00   1.2153E+00
             24        Y                                           1.2153E+00
             25        Z                                           1.2153E+00
 C5          23    7   X  6.834831E-01   8.6271E-01   7.6421E-01   7.6421E-01
             24        Y                                           7.6421E-01
             25        Z                                           7.6421E-01
 C5          22    8   S  2.222899E-01   1.0000E+00   2.3073E-01   2.3073E-01
 C5          23    9   X  2.222899E-01   1.0000E+00   2.1757E-01   2.1757E-01
             24        Y                                           2.1757E-01
             25        Z                                           2.1757E-01
 H6          26    1   S  3.425251E+00   2.4050E-01   4.3157E-01   4.3157E-01
 H6          26    2   S  6.239137E-01   8.3424E-01   4.1739E-01   4.1739E-01
 H6          26    3   S  1.688554E-01   1.0000E+00   1.8774E-01   1.8774E-01
 H7          27    1   S  3.425251E+00   2.4050E-01   4.3157E-01   4.3157E-01
 H7          27    2   S  6.239137E-01   8.3424E-01   4.1739E-01   4.1739E-01
 H7          27    3   S  1.688554E-01   1.0000E+00   1.8774E-01   1.8774E-01
 H8          28    1   S  3.425251E+00   2.4050E-01   4.3157E-01   4.3157E-01
 H8          28    2   S  6.239137E-01   8.3424E-01   4.1739E-01   4.1739E-01
 H8          28    3   S  1.688554E-01   1.0000E+00   1.8774E-01   1.8774E-01
 C9          29    1   S  7.161684E+01   1.5433E-01   2.7078E+00   2.7078E+00
 C9          29    2   S  1.304510E+01   5.3533E-01   2.6189E+00   2.6189E+00
 C9          29    3   S  3.530512E+00   4.4463E-01   8.1619E-01   8.1619E-01
 C9          30    4   S  2.941249E+00  -2.9565E-01  -4.7324E-01  -4.7324E-01
 C9          30    5   S  6.834831E-01   1.1815E+00   6.3299E-01   6.3299E-01
 C9          31    6   X  2.941249E+00   2.2135E-01   1.2153E+00   1.2153E+00
             32        Y                                           1.2153E+00
             33        Z                                           1.2153E+00
 C9          31    7   X  6.834831E-01   8.6271E-01   7.6421E-01   7.6421E-01
             32        Y                                           7.6421E-01
             33        Z                                           7.6421E-01
 C9          30    8   S  2.222899E-01   1.0000E+00   2.3073E-01   2.3073E-01
 C9          31    9   X  2.222899E-01   1.0000E+00   2.1757E-01   2.1757E-01
             32        Y                                           2.1757E-01
             33        Z                                           2.1757E-01
 C10         34    1   S  7.161684E+01   1.5433E-01   2.7078E+00   2.7078E+00
 C10         34    2   S  1.304510E+01   5.3533E-01   2.6189E+00   2.6189E+00
 C10         34    3   S  3.530512E+00   4.4463E-01   8.1619E-01   8.1619E-01
 C10         35    4   S  2.941249E+00  -2.9565E-01  -4.7324E-01  -4.7324E-01
 C10         35    5   S  6.834831E-01   1.1815E+00   6.3299E-01   6.3299E-01
 C10         36    6   X  2.941249E+00   2.2135E-01   1.2153E+00   1.2153E+00
             37        Y                                           1.2153E+00
             38        Z                                           1.2153E+00
 C10         36    7   X  6.834831E-01   8.6271E-01   7.6421E-01   7.6421E-01
             37        Y                                           7.6421E-01
             38        Z                                           7.6421E-01
 C10         35    8   S  2.222899E-01   1.0000E+00   2.3073E-01   2.3073E-01
 C10         36    9   X  2.222899E-01   1.0000E+00   2.1757E-01   2.1757E-01
             37        Y                                           2.1757E-01
             38        Z                                           2.1757E-01
 H11         39    1   S  3.425251E+00   2.4050E-01   4.3157E-01   4.3157E-01
 H11         39    2   S  6.239137E-01   8.3424E-01   4.1739E-01   4.1739E-01
 H11         39    3   S  1.688554E-01   1.0000E+00   1.8774E-01   1.8774E-01
 H12         40    1   S  3.425251E+00   2.4050E-01   4.3157E-01   4.3157E-01
 H12         40    2   S  6.239137E-01   8.3424E-01   4.1739E-01   4.1739E-01
 H12         40    3   S  1.688554E-01   1.0000E+00   1.8774E-01   1.8774E-01
 H13         41    1   S  3.425251E+00   2.4050E-01   4.3157E-01   4.3157E-01
 H13         41    2   S  6.239137E-01   8.3424E-01   4.1739E-01   4.1739E-01
 H13         41    3   S  1.688554E-01   1.0000E+00   1.8774E-01   1.8774E-01
 C14         42    1   S  7.161684E+01   1.5433E-01   2.7078E+00   2.7078E+00
 C14         42    2   S  1.304510E+01   5.3533E-01   2.6189E+00   2.6189E+00
 C14         42    3   S  3.530512E+00   4.4463E-01   8.1619E-01   8.1619E-01
 C14         43    4   S  2.941249E+00  -2.9565E-01  -4.7324E-01  -4.7324E-01
 C14         43    5   S  6.834831E-01   1.1815E+00   6.3299E-01   6.3299E-01
 C14         44    6   X  2.941249E+00   2.2135E-01   1.2153E+00   1.2153E+00
             45        Y                                           1.2153E+00
             46        Z                                           1.2153E+00
 C14         44    7   X  6.834831E-01   8.6271E-01   7.6421E-01   7.6421E-01
             45        Y                                           7.6421E-01
             46        Z                                           7.6421E-01
 C14         43    8   S  2.222899E-01   1.0000E+00   2.3073E-01   2.3073E-01
 C14         44    9   X  2.222899E-01   1.0000E+00   2.1757E-01   2.1757E-01
             45        Y                                           2.1757E-01
             46        Z                                           2.1757E-01
 H15         47    1   S  3.425251E+00   2.4050E-01   4.3157E-01   4.3157E-01
 H15         47    2   S  6.239137E-01   8.3424E-01   4.1739E-01   4.1739E-01
 H15         47    3   S  1.688554E-01   1.0000E+00   1.8774E-01   1.8774E-01
 C16         48    1   S  7.161684E+01   1.5433E-01   2.7078E+00   2.7078E+00
 C16         48    2   S  1.304510E+01   5.3533E-01   2.6189E+00   2.6189E+00
 C16         48    3   S  3.530512E+00   4.4463E-01   8.1619E-01   8.1619E-01
 C16         49    4   S  2.941249E+00  -2.9565E-01  -4.7324E-01  -4.7324E-01
 C16         49    5   S  6.834831E-01   1.1815E+00   6.3299E-01   6.3299E-01
 C16         50    6   X  2.941249E+00   2.2135E-01   1.2153E+00   1.2153E+00
             51        Y                                           1.2153E+00
             52        Z                                           1.2153E+00
 C16         50    7   X  6.834831E-01   8.6271E-01   7.6421E-01   7.6421E-01
             51        Y                                           7.6421E-01
             52        Z                                           7.6421E-01
 C16         49    8   S  2.222899E-01   1.0000E+00   2.3073E-01   2.3073E-01
 C16         50    9   X  2.222899E-01   1.0000E+00   2.1757E-01   2.1757E-01
             51        Y                                           2.1757E-01
             52        Z                                           2.1757E-01
 H17         53    1   S  3.425251E+00   2.4050E-01   4.3157E-01   4.3157E-01
 H17         53    2   S  6.239137E-01   8.3424E-01   4.1739E-01   4.1739E-01
 H17         53    3   S  1.688554E-01   1.0000E+00   1.8774E-01   1.8774E-01
 H18         54    1   S  3.425251E+00   2.4050E-01   4.3157E-01   4.3157E-01
 H18         54    2   S  6.239137E-01   8.3424E-01   4.1739E-01   4.1739E-01
 H18         54    3   S  1.688554E-01   1.0000E+00   1.8774E-01   1.8774E-01
 C19         55    1   S  7.161684E+01   1.5433E-01   2.7078E+00   2.7078E+00
 C19         55    2   S  1.304510E+01   5.3533E-01   2.6189E+00   2.6189E+00
 C19         55    3   S  3.530512E+00   4.4463E-01   8.1619E-01   8.1619E-01
 C19         56    4   S  2.941249E+00  -2.9565E-01  -4.7324E-01  -4.7324E-01
 C19         56    5   S  6.834831E-01   1.1815E+00   6.3299E-01   6.3299E-01
 C19         57    6   X  2.941249E+00   2.2135E-01   1.2153E+00   1.2153E+00
             58        Y                                           1.2153E+00
             59        Z                                           1.2153E+00
 C19         57    7   X  6.834831E-01   8.6271E-01   7.6421E-01   7.6421E-01
             58        Y                                           7.6421E-01
             59        Z                                           7.6421E-01
 C19         56    8   S  2.222899E-01   1.0000E+00   2.3073E-01   2.3073E-01
 C19         57    9   X  2.222899E-01   1.0000E+00   2.1757E-01   2.1757E-01
             58        Y                                           2.1757E-01
             59        Z                                           2.1757E-01
 H20         60    1   S  3.425251E+00   2.4050E-01   4.3157E-01   4.3157E-01
 H20         60    2   S  6.239137E-01   8.3424E-01   4.1739E-01   4.1739E-01
 H20         60    3   S  1.688554E-01   1.0000E+00   1.8774E-01   1.8774E-01
  
  Effective Core Potential 
  
  Atom      Electrons represented by ECP
 C1                     0
 C2                     0
 C3                     0
 C4                     0
 C5                     0
 H6                     0
 H7                     0
 H8                     0
 C9                     0
 C10                    0
 H11                    0
 H12                    0
 H13                    0
 C14                    0
 H15                    0
 C16                    0
 H17                    0
 H18                    0
 C19                    0
 H20                    0
  
  no dealiasing set available for atom            1
  switch to all-analytic calculation
  
 Input geometry:
                                   angstroms
  atom               x                 y                 z
  C1            0.2694810000     -1.4100870000      0.0000000000 
  C2           -1.0647520000     -0.9207000000      0.0000000000 
  C3           -1.3254340000      0.4570290000      0.0000000000 
  C4           -0.2694810000      1.4100870000      0.0000000000 
  C5            1.0647520000      0.9207000000      0.0000000000 
  H6           -1.9044340000     -1.6275960000      0.0000000000 
  H7           -2.3647720000      0.8131670000      0.0000000000 
  H8            1.9044340000      1.6275960000      0.0000000000 
  C9           -0.6037320000      2.8699170000      0.0000000000 
  C10           0.2694810000      3.8919520000      0.0000000000 
  H11           1.3551660000      3.7420140000      0.0000000000 
  H12          -1.6819040000      3.0900050000      0.0000000000 
  H13          -0.0740290000      4.9329690000      0.0000000000 
  C14           0.6037320000     -2.8699170000      0.0000000000 
  H15           1.6819040000     -3.0900050000      0.0000000000 
  C16          -0.2694810000     -3.8919520000      0.0000000000 
  H17          -1.3551660000     -3.7420140000      0.0000000000 
  H18           0.0740290000     -4.9329690000      0.0000000000 
  C19           1.3254340000     -0.4570290000      0.0000000000 
  H20           2.3647720000     -0.8131670000      0.0000000000 
   
  principal moments of inertia:
        amu*angstrom^2:      109.23594      737.84464      847.08058
                g*cm^2: 1.81390525E-38 1.22521969E-37 1.40661022E-37
   
  rotational constants:
               cm^(-1):      0.15432310      0.02284713      0.01990086
                   GHz:      4.62649016      0.68493959      0.59661267
   
  Molecular weight:     130.08 amu
   
  Stoichiometry: C10H10
  Molecular Point Group: C2h     
	Molecule translated to center of mass 
	Molecule reoriented along symmetry axes
  Point Group used: C2h
  
  
 Symmetrized geometry:
                                   angstroms
  atom               x                 y                 z
  C1            0.2694810000     -1.4100870000      0.0000000000 
  C2           -1.0647520000     -0.9207000000      0.0000000000 
  C3           -1.3254340000      0.4570290000      0.0000000000 
  C4           -0.2694810000      1.4100870000      0.0000000000 
  C5            1.0647520000      0.9207000000      0.0000000000 
  H6           -1.9044340000     -1.6275960000      0.0000000000 
  H7           -2.3647720000      0.8131670000      0.0000000000 
  H8            1.9044340000      1.6275960000      0.0000000000 
  C9           -0.6037320000      2.8699170000      0.0000000000 
  C10           0.2694810000      3.8919520000      0.0000000000 
  H11           1.3551660000      3.7420140000      0.0000000000 
  H12          -1.6819040000      3.0900050000      0.0000000000 
  H13          -0.0740290000      4.9329690000      0.0000000000 
  C14           0.6037320000     -2.8699170000      0.0000000000 
  H15           1.6819040000     -3.0900050000      0.0000000000 
  C16          -0.2694810000     -3.8919520000      0.0000000000 
  H17          -1.3551660000     -3.7420140000      0.0000000000 
  H18           0.0740290000     -4.9329690000      0.0000000000 
  C19           1.3254340000     -0.4570290000      0.0000000000 
  H20           2.3647720000     -0.8131670000      0.0000000000 
   
  nuclear repulsion energy.......     445.899315474 hartrees
 
 Non-default options chosen:
   Include all virtuals in output
   Mulliken populations computed by atom
  
 Non-default print settings:
      1=  2 102=  8
  
 Temporary integer options set:
     73=  2
  
  Peak memory usage:    479 Mb
  
  end of program pre
   
 Time(pre)  user:        0.0  user+sys:        0.0  wallclock:        0.1
  
  start of program onee
  
  smallest eigenvalue of S:    1.814E-01
  number of canonical orbitals.....           60
  Peak memory usage:    621 Mb
  
  end of program onee
   
 Time(onee)  user:        0.0  user+sys:        0.0  wallclock:        0.1
  
  start of program hfig
  
  initial wavefunction generated automatically from atomic wavefunctions
 
  Irreducible     Total no   No of occupied orbitals 
  representation  orbitals   Shell_1  Shell_2    ...
  Ag                25         15
  Bg                 5          3
  Au                 5          2
  Bu                25         15
  ------------------------
  Orbital occupation/shell    1.000
 
  Peak memory usage:    561 Mb
  
  end of program hfig
   
 Time(hfig)  user:        0.0  user+sys:        0.0  wallclock:        0.3
  
  start of program probe
  
  Peak memory usage:    560 Mb
  
  end of program probe
   
 Time(probe)  user:        0.0  user+sys:        0.0  wallclock:        0.1
  
  start of program scf
  
 number of electrons..........         70
 number of alpha electrons....         35
 number of beta electrons.....         35
 number of orbitals, total....         60
 number of doubly-occ'd orbs..         35
 number of open shell orbs....          0
 number of occupied orbitals..         35
 number of virtual orbitals...         25
 number of hamiltonians.......          1
 number of shells.............          1
 SCF type: HF
  
       i  u  d  i  g                   
       t  p  i  c  r                                 RMS    maximum
       e  d  i  u  i                       energy  density   DIIS  
       r  t  s  t  d       total energy    change  change    error 
  
etot    1  N  N  0  N    -379.56013095453           2.9E-03  1.1E-01
etot    2  Y  Y  0  N    -379.75998244123  2.0E-01  7.2E-04  1.8E-02
etot    3  N  Y  0  N    -379.76876516161  8.8E-03  1.7E-04  3.4E-03
etot    4  Y  Y  0  N    -379.76908258339  3.2E-04  4.3E-05  1.8E-03
etot    5  N  N  0  N    -379.76910565435  2.3E-05  0.0E+00  0.0E+00
  
  
 Energy components, in hartrees:
   (A)  Nuclear repulsion............     445.89931547414
   (E)  Total one-electron terms.....   -1400.14401560234
   (I)  Total two-electron terms.....     574.47559447386
   (L)  Electronic energy............    -825.66842112849  (E+I)
   (N)  Total energy.................    -379.76910565435  (A+L)
  
 SCFE: SCF energy: HF      -379.76910565435 hartrees   iterations:   5
  
 
 HOMO energy:    -0.22221
 LUMO energy:     0.19878
 
  Orbital energies (hartrees)/symmetry label: 
   -11.04064 Bu        -11.04058 Ag        -11.03196 Bu        -11.03196 Ag     
   -11.02881 Bu        -11.02870 Ag        -11.02839 Bu        -11.02835 Ag     
   -11.01751 Bu        -11.01751 Ag         -1.09038 Ag         -1.02034 Bu     
    -0.97505 Ag         -0.95015 Bu         -0.90986 Bu         -0.80012 Ag     
    -0.76257 Ag         -0.72793 Bu         -0.69708 Ag         -0.62787 Ag     
    -0.60591 Bu         -0.57247 Bu         -0.55390 Bu         -0.55333 Ag     
    -0.52485 Bu         -0.49696 Bu         -0.49286 Ag         -0.46381 Au     
    -0.44668 Bu         -0.42142 Ag         -0.41565 Ag         -0.37711 Bg     
    -0.31523 Au         -0.27828 Bg         -0.22221 Bg          0.19878 Au     
     0.26885 Au          0.30867 Bg          0.39708 Au          0.52202 Bg     
     0.56470 Ag          0.57564 Bu          0.62171 Ag          0.62558 Bu     
     0.65890 Ag          0.66022 Bu          0.67828 Bu          0.69448 Ag     
     0.70559 Bu          0.74009 Ag          0.80296 Ag          0.82501 Bu     
     0.86016 Ag          0.88880 Bu          0.92117 Bu          0.93977 Ag     
     0.99024 Ag          1.02714 Bu          1.10827 Ag          1.12527 Bu     
 
  Peak memory usage:    653 Mb
  
  end of program scf
   
 Time(scf)  user:        1.0  user+sys:        1.0  wallclock:        1.8
  
  start of program ch
  
  Atomic charges from Mulliken population analysis: 
   
 Atom       C1           C2           C3           C4           C5      
 Charge    0.00177     -0.06075     -0.05956      0.00177     -0.06075
   
 Atom       H6           H7           H8           C9           C10     
 Charge    0.06061      0.05843      0.06061     -0.05490     -0.12417
   
 Atom       H11          H12          H13          C14          H15     
 Charge    0.05923      0.05784      0.06149     -0.05490      0.05784
   
 Atom       C16          H17          H18          C19          H20     
 Charge   -0.12417      0.05923      0.06149     -0.05956      0.05843
  
  sum of atomic charges:     0.000000
   
  Peak memory usage:    515 Mb
  
  end of program ch
   
 Time(ch)  user:        0.0  user+sys:        0.0  wallclock:        0.1
  
  start of program post
  
  
 ***************************************** 
 
 occupied + virtual orbitals: final wave function
 
 ***************************************** 
   
   
                              1         2         3         4         5
  eigenvalues-            -11.04064 -11.04058 -11.03196 -11.03196 -11.02881
  occupations-              2.00000   2.00000   2.00000   2.00000   2.00000
    1 C1               S    0.70148   0.70154  -0.00959  -0.00991   0.00401
    2 C1               S    0.02527   0.02518   0.00380   0.00374   0.00371
    3 C1               X   -0.00003   0.00002   0.00054   0.00054  -0.00333
    4 C1               Y    0.00067   0.00046  -0.00293  -0.00292   0.00055
    5 C1               Z    0.00000   0.00000   0.00000   0.00000   0.00000
    6 C2               S    0.00614   0.00362   0.00274   0.00583  -0.67842
    7 C2               S   -0.00473  -0.00455   0.00000   0.00011  -0.02331
    8 C2               X   -0.00294  -0.00295   0.00002   0.00006  -0.00073
    9 C2               Y    0.00103   0.00107   0.00000   0.00002   0.00015
   10 C2               Z    0.00000   0.00000   0.00000   0.00000   0.00000
   11 C3               S   -0.00584   0.00326  -0.00349   0.00613  -0.17925
   12 C3               S    0.00476  -0.00461  -0.00007   0.00018  -0.00151
   13 C3               X    0.00236  -0.00238   0.00000   0.00006   0.00043
   14 C3               Y    0.00207  -0.00209  -0.00002   0.00001  -0.00283
   15 C3               Z    0.00000   0.00000   0.00000   0.00000   0.00000
   16 C4               S   -0.70148   0.70154   0.00959  -0.00991  -0.00401
   17 C4               S   -0.02527   0.02518  -0.00380   0.00374  -0.00371
   18 C4               X   -0.00003  -0.00002   0.00054  -0.00054  -0.00333
   19 C4               Y    0.00067  -0.00046  -0.00293   0.00292   0.00055
   20 C4               Z    0.00000   0.00000   0.00000   0.00000   0.00000
   21 C5               S   -0.00614   0.00362  -0.00274   0.00583   0.67842
   22 C5               S    0.00473  -0.00455   0.00000   0.00011   0.02331
   23 C5               X   -0.00294   0.00295   0.00002  -0.00006  -0.00073
   24 C5               Y    0.00103  -0.00107   0.00000  -0.00002   0.00015
   25 C5               Z    0.00000   0.00000   0.00000   0.00000   0.00000
   26 H6               S    0.00005  -0.00003   0.00009   0.00008   0.00452
   27 H7               S   -0.00006  -0.00002   0.00001  -0.00001   0.00108
   28 H8               S   -0.00005  -0.00003  -0.00009   0.00008  -0.00452
   29 C9               S    0.00884  -0.00916   0.70134  -0.70130   0.00185
   30 C9               S    0.00448  -0.00455   0.02500  -0.02499   0.00022
   31 C9               X    0.00071  -0.00072   0.00049  -0.00048  -0.00001
   32 C9               Y   -0.00287   0.00291   0.00064  -0.00065  -0.00008
   33 C9               Z    0.00000   0.00000   0.00000   0.00000   0.00000
   34 C10              S    0.00053  -0.00050   0.01862  -0.01863  -0.00091
   35 C10              S   -0.00018   0.00018  -0.00471   0.00471  -0.00008
   36 C10              X   -0.00004   0.00004   0.00204  -0.00204  -0.00004
   37 C10              Y    0.00010  -0.00010   0.00244  -0.00244   0.00005
   38 C10              Z    0.00000   0.00000   0.00000   0.00000   0.00000
   39 H11              S    0.00010  -0.00010  -0.00006   0.00006   0.00010
   40 H12              S   -0.00008   0.00009  -0.00478   0.00478  -0.00003
   41 H13              S    0.00002  -0.00002  -0.00005   0.00005  -0.00001
   42 C14              S   -0.00884  -0.00916  -0.70134  -0.70130  -0.00185
   43 C14              S   -0.00448  -0.00455  -0.02500  -0.02499  -0.00022
   44 C14              X    0.00071   0.00072   0.00049   0.00048  -0.00001
   45 C14              Y   -0.00287  -0.00291   0.00064   0.00065  -0.00008
   46 C14              Z    0.00000   0.00000   0.00000   0.00000   0.00000
   47 H15              S    0.00008   0.00009   0.00478   0.00478   0.00003
   48 C16              S   -0.00053  -0.00050  -0.01862  -0.01863   0.00091
   49 C16              S    0.00018   0.00018   0.00471   0.00471   0.00008
   50 C16              X   -0.00004  -0.00004   0.00204   0.00204  -0.00004
   51 C16              Y    0.00010   0.00010   0.00244   0.00244   0.00005
   52 C16              Z    0.00000   0.00000   0.00000   0.00000   0.00000
   53 H17              S   -0.00010  -0.00010   0.00006   0.00006  -0.00010
   54 H18              S   -0.00002  -0.00002   0.00005   0.00005   0.00001
   55 C19              S    0.00584   0.00326   0.00349   0.00613   0.17925
   56 C19              S   -0.00476  -0.00461   0.00007   0.00018   0.00151
   57 C19              X    0.00236   0.00238   0.00000  -0.00006   0.00043
   58 C19              Y    0.00207   0.00209  -0.00002  -0.00001  -0.00283
   59 C19              Z    0.00000   0.00000   0.00000   0.00000   0.00000
   60 H20              S    0.00006  -0.00002  -0.00001  -0.00001  -0.00108
   
                              6         7         8         9        10
  eigenvalues-            -11.02870 -11.02839 -11.02835 -11.01751 -11.01751
  occupations-              2.00000   2.00000   2.00000   2.00000   2.00000
    1 C1               S    0.00327   0.00646  -0.00205   0.00028   0.00024
    2 C1               S    0.00547   0.00632  -0.00393   0.00027   0.00027
    3 C1               X   -0.00253   0.00142  -0.00274   0.00006   0.00006
    4 C1               Y    0.00142   0.00233  -0.00192  -0.00012  -0.00012
    5 C1               Z    0.00000   0.00000   0.00000   0.00000   0.00000
    6 C2               S   -0.69273  -0.17868  -0.11125   0.00108   0.00109
    7 C2               S   -0.02422  -0.01147  -0.00875   0.00000  -0.00001
    8 C2               X   -0.00045   0.00032   0.00046  -0.00001   0.00000
    9 C2               Y    0.00004  -0.00311  -0.00322   0.00009   0.00008
   10 C2               Z    0.00000   0.00000   0.00000   0.00000   0.00000
   11 C3               S   -0.11179   0.67827   0.69264  -0.00028   0.00044
   12 C3               S    0.00072   0.02592   0.02571   0.00001  -0.00007
   13 C3               X    0.00059   0.00094   0.00059   0.00001  -0.00002
   14 C3               Y   -0.00308  -0.00112  -0.00078   0.00006  -0.00002
   15 C3               Z    0.00000   0.00000   0.00000   0.00000   0.00000
   16 C4               S    0.00327  -0.00646  -0.00205  -0.00028   0.00024
   17 C4               S    0.00547  -0.00632  -0.00393  -0.00027   0.00027
   18 C4               X    0.00253   0.00142   0.00274   0.00006  -0.00006
   19 C4               Y   -0.00142   0.00233   0.00192  -0.00012   0.00012
   20 C4               Z    0.00000   0.00000   0.00000   0.00000   0.00000
   21 C5               S   -0.69273   0.17868  -0.11125  -0.00108   0.00109
   22 C5               S   -0.02422   0.01147  -0.00875   0.00000  -0.00001
   23 C5               X    0.00045   0.00032  -0.00046  -0.00001   0.00000
   24 C5               Y   -0.00004  -0.00311   0.00322   0.00009  -0.00008
   25 C5               Z    0.00000   0.00000   0.00000   0.00000   0.00000
   26 H6               S    0.00474   0.00132   0.00075   0.00005   0.00005
   27 H7               S    0.00077  -0.00458  -0.00473   0.00000  -0.00001
   28 H8               S    0.00474  -0.00132   0.00075  -0.00005   0.00005
   29 C9               S   -0.00684   0.00420   0.00519   0.01818  -0.01818
   30 C9               S   -0.00037   0.00042   0.00028   0.00606  -0.00606
   31 C9               X   -0.00004   0.00008   0.00002   0.00212  -0.00212
   32 C9               Y   -0.00001  -0.00007   0.00003   0.00244  -0.00244
   33 C9               Z    0.00000   0.00000   0.00000   0.00000   0.00000
   34 C10              S    0.00094  -0.00043  -0.00011  -0.70141   0.70141
   35 C10              S    0.00016  -0.00012  -0.00009  -0.02536   0.02536
   36 C10              X    0.00002   0.00001   0.00003   0.00075  -0.00075
   37 C10              Y   -0.00010   0.00007   0.00006   0.00083  -0.00083
   38 C10              Z    0.00000   0.00000   0.00000   0.00000   0.00000
   39 H11              S   -0.00011   0.00004  -0.00003   0.00473  -0.00473
   40 H12              S    0.00011  -0.00009  -0.00009  -0.00018   0.00018
   41 H13              S    0.00001   0.00000   0.00000   0.00475  -0.00475
   42 C14              S   -0.00684  -0.00420   0.00519  -0.01818  -0.01818
   43 C14              S   -0.00037  -0.00042   0.00028  -0.00606  -0.00606
   44 C14              X    0.00004   0.00008  -0.00002   0.00212   0.00212
   45 C14              Y    0.00001  -0.00007  -0.00003   0.00244   0.00244
   46 C14              Z    0.00000   0.00000   0.00000   0.00000   0.00000
   47 H15              S    0.00011   0.00009  -0.00009   0.00018   0.00018
   48 C16              S    0.00094   0.00043  -0.00011   0.70141   0.70141
   49 C16              S    0.00016   0.00012  -0.00009   0.02536   0.02536
   50 C16              X   -0.00002   0.00001  -0.00003   0.00075   0.00075
   51 C16              Y    0.00010   0.00007  -0.00006   0.00083   0.00083
   52 C16              Z    0.00000   0.00000   0.00000   0.00000   0.00000
   53 H17              S   -0.00011  -0.00004  -0.00003  -0.00473  -0.00473
   54 H18              S    0.00001   0.00000   0.00000  -0.00475  -0.00475
   55 C19              S   -0.11179  -0.67827   0.69264   0.00028   0.00044
   56 C19              S    0.00072  -0.02592   0.02571  -0.00001  -0.00007
   57 C19              X   -0.00059   0.00094  -0.00059   0.00001   0.00002
   58 C19              Y    0.00308  -0.00112   0.00078   0.00006   0.00002
   59 C19              Z    0.00000   0.00000   0.00000   0.00000   0.00000
   60 H20              S    0.00077   0.00458  -0.00473   0.00000  -0.00001
   
                             11        12        13        14        15
  eigenvalues-             -1.09038  -1.02034  -0.97505  -0.95015  -0.90986
  occupations-              2.00000   2.00000   2.00000   2.00000   2.00000
    1 C1               S   -0.10667   0.10141   0.00320   0.01157  -0.10023
    2 C1               S    0.27528  -0.27115  -0.01081  -0.03171   0.27890
    3 C1               X   -0.00637  -0.00465  -0.01319  -0.12448  -0.01948
    4 C1               Y    0.03837   0.03145   0.09318  -0.02581   0.05894
    5 C1               Z    0.00000   0.00000   0.00000   0.00000   0.00000
    6 C2               S   -0.09655   0.04187  -0.04176  -0.11957  -0.07147
    7 C2               S    0.24733  -0.11156   0.11040   0.32607   0.19875
    8 C2               X    0.04409  -0.04646   0.00078  -0.03183   0.05916
    9 C2               Y    0.03223   0.04278   0.04440   0.06892  -0.04711
   10 C2               Z    0.00000   0.00000   0.00000   0.00000   0.00000
   11 C3               S   -0.09670  -0.03761  -0.04583  -0.13072   0.04292
   12 C3               S    0.24731   0.09971   0.12200   0.35660  -0.11974
   13 C3               X    0.05246   0.02721   0.01630   0.00301  -0.03751
   14 C3               Y   -0.01335   0.05765  -0.03476  -0.05957  -0.09259
   15 C3               Z    0.00000   0.00000   0.00000   0.00000   0.00000
   16 C4               S   -0.10667  -0.10141   0.00320  -0.01157   0.10023
   17 C4               S    0.27528   0.27115  -0.01081   0.03171  -0.27890
   18 C4               X    0.00637  -0.00465   0.01319  -0.12448  -0.01948
   19 C4               Y   -0.03837   0.03145  -0.09318  -0.02581   0.05894
   20 C4               Z    0.00000   0.00000   0.00000   0.00000   0.00000
   21 C5               S   -0.09655  -0.04187  -0.04176   0.11957   0.07147
   22 C5               S    0.24733   0.11156   0.11040  -0.32607  -0.19875
   23 C5               X   -0.04409  -0.04646  -0.00078  -0.03183   0.05916
   24 C5               Y   -0.03223   0.04278  -0.04440   0.06892  -0.04711
   25 C5               Z    0.00000   0.00000   0.00000   0.00000   0.00000
   26 H6               S    0.04426  -0.02937   0.01822   0.09004   0.05364
   27 H7               S    0.04411   0.02573   0.02368   0.09791  -0.03457
   28 H8               S    0.04426   0.02937   0.01822  -0.09004  -0.05364
   29 C9               S   -0.04956  -0.11303   0.11774  -0.00074  -0.05089
   30 C9               S    0.12843   0.29861  -0.31470   0.00248   0.13656
   31 C9               X    0.01489   0.03774  -0.04705  -0.01896   0.03718
   32 C9               Y   -0.02699  -0.00556  -0.05958  -0.01671   0.12901
   33 C9               Z    0.00000   0.00000   0.00000   0.00000   0.00000
   34 C10              S   -0.02506  -0.08131   0.11633   0.01212  -0.10687
   35 C10              S    0.06454   0.21340  -0.31003  -0.03223   0.29253
   36 C10              X   -0.01277  -0.03796   0.04937  -0.00115  -0.03466
   37 C10              Y   -0.02064  -0.05204   0.05683   0.00558  -0.02205
   38 C10              Z    0.00000   0.00000   0.00000   0.00000   0.00000
   39 H11              S    0.01391   0.04877  -0.07425  -0.01224   0.07696
   40 H12              S    0.02532   0.06663  -0.07616   0.00936   0.03769
   41 H13              S    0.01078   0.04441  -0.07479  -0.00740   0.08814
   42 C14              S   -0.04956   0.11303   0.11774   0.00074   0.05089
   43 C14              S    0.12843  -0.29861  -0.31470  -0.00248  -0.13656
   44 C14              X   -0.01489   0.03774   0.04705  -0.01896   0.03718
   45 C14              Y    0.02699  -0.00556   0.05958  -0.01671   0.12901
   46 C14              Z    0.00000   0.00000   0.00000   0.00000   0.00000
   47 H15              S    0.02532  -0.06663  -0.07616  -0.00936  -0.03769
   48 C16              S   -0.02506   0.08131   0.11633  -0.01212   0.10687
   49 C16              S    0.06454  -0.21340  -0.31003   0.03223  -0.29253
   50 C16              X    0.01277  -0.03796  -0.04937  -0.00115  -0.03466
   51 C16              Y    0.02064  -0.05204  -0.05683   0.00558  -0.02205
   52 C16              Z    0.00000   0.00000   0.00000   0.00000   0.00000
   53 H17              S    0.01391  -0.04877  -0.07425   0.01224  -0.07696
   54 H18              S    0.01078  -0.04441  -0.07479   0.00740  -0.08814
   55 C19              S   -0.09670   0.03761  -0.04583   0.13072  -0.04292
   56 C19              S    0.24731  -0.09971   0.12200  -0.35660   0.11974
   57 C19              X   -0.05246   0.02721  -0.01630   0.00301  -0.03751
   58 C19              Y    0.01335   0.05765   0.03476  -0.05957  -0.09259
   59 C19              Z    0.00000   0.00000   0.00000   0.00000   0.00000
   60 H20              S    0.04411  -0.02573   0.02368  -0.09791   0.03457
   
                             16        17        18        19        20
  eigenvalues-             -0.80012  -0.76257  -0.72793  -0.69708  -0.62787
  occupations-              2.00000   2.00000   2.00000   2.00000   2.00000
    1 C1               S   -0.07260  -0.05018  -0.01143   0.05624   0.02878
    2 C1               S    0.21364   0.15053   0.03297  -0.17037  -0.09614
    3 C1               X    0.11464  -0.18934  -0.05421  -0.01599  -0.05261
    4 C1               Y   -0.07128  -0.06728   0.13785  -0.13574   0.13527
    5 C1               Z    0.00000   0.00000   0.00000   0.00000   0.00000
    6 C2               S    0.07891  -0.06067  -0.03028  -0.05006  -0.01658
    7 C2               S   -0.22806   0.18199   0.09224   0.15870   0.04698
    8 C2               X    0.06920   0.08715   0.03650  -0.19431   0.08998
    9 C2               Y   -0.03001  -0.16752  -0.07507  -0.02750   0.14081
   10 C2               Z    0.00000   0.00000   0.00000   0.00000   0.00000
   11 C3               S    0.00126   0.10906   0.04828  -0.00710   0.01155
   12 C3               S   -0.00201  -0.32494  -0.14794   0.02444  -0.04426
   13 C3               X    0.03080   0.07581  -0.00497  -0.17134   0.14655
   14 C3               Y    0.15982  -0.04144  -0.00928  -0.10081  -0.13323
   15 C3               Z    0.00000   0.00000   0.00000   0.00000   0.00000
   16 C4               S   -0.07260  -0.05018   0.01143   0.05624   0.02878
   17 C4               S    0.21364   0.15053  -0.03297  -0.17037  -0.09614
   18 C4               X   -0.11464   0.18934  -0.05421   0.01599   0.05261
   19 C4               Y    0.07128   0.06728   0.13785   0.13574  -0.13527
   20 C4               Z    0.00000   0.00000   0.00000   0.00000   0.00000
   21 C5               S    0.07891  -0.06067   0.03028  -0.05006  -0.01658
   22 C5               S   -0.22806   0.18199  -0.09224   0.15870   0.04698
   23 C5               X   -0.06920  -0.08715   0.03650   0.19431  -0.08998
   24 C5               Y    0.03001   0.16752  -0.07507   0.02750  -0.14081
   25 C5               Z    0.00000   0.00000   0.00000   0.00000   0.00000
   26 H6               S   -0.10540   0.09250   0.05494   0.16917  -0.10393
   27 H7               S    0.01318  -0.17389  -0.05168   0.09785  -0.14678
   28 H8               S   -0.10540   0.09250  -0.05494   0.16917  -0.10393
   29 C9               S   -0.05245  -0.00662  -0.09653  -0.06072  -0.03502
   30 C9               S    0.15915   0.02191   0.29736   0.18745   0.11048
   31 C9               X   -0.07314   0.04479  -0.11147  -0.07131  -0.11449
   32 C9               Y   -0.13538  -0.07215  -0.04867   0.00806   0.18052
   33 C9               Z    0.00000   0.00000   0.00000   0.00000   0.00000
   34 C10              S    0.08283   0.03399   0.08038   0.05074   0.01417
   35 C10              S   -0.24085  -0.10189  -0.24831  -0.16128  -0.05378
   36 C10              X   -0.03221   0.01310  -0.11576  -0.08436  -0.20522
   37 C10              Y   -0.03916  -0.04362  -0.09570  -0.08419   0.00671
   38 C10              Z    0.00000   0.00000   0.00000   0.00000   0.00000
   39 H11              S   -0.10488  -0.02186  -0.16365  -0.10629  -0.17892
   40 H12              S    0.08102  -0.03219   0.17478   0.12506   0.15243
   41 H13              S   -0.10191  -0.06449  -0.13101  -0.09997   0.02909
   42 C14              S   -0.05245  -0.00662   0.09653  -0.06072  -0.03502
   43 C14              S    0.15915   0.02191  -0.29736   0.18745   0.11048
   44 C14              X    0.07314  -0.04479  -0.11147   0.07131   0.11449
   45 C14              Y    0.13538   0.07215  -0.04867  -0.00806  -0.18052
   46 C14              Z    0.00000   0.00000   0.00000   0.00000   0.00000
   47 H15              S    0.08102  -0.03219  -0.17478   0.12506   0.15243
   48 C16              S    0.08283   0.03399  -0.08038   0.05074   0.01417
   49 C16              S   -0.24085  -0.10189   0.24831  -0.16128  -0.05378
   50 C16              X    0.03221  -0.01310  -0.11576   0.08436   0.20522
   51 C16              Y    0.03916   0.04362  -0.09570   0.08419  -0.00671
   52 C16              Z    0.00000   0.00000   0.00000   0.00000   0.00000
   53 H17              S   -0.10488  -0.02186   0.16365  -0.10629  -0.17892
   54 H18              S   -0.10191  -0.06449   0.13101  -0.09997   0.02909
   55 C19              S    0.00126   0.10906  -0.04828  -0.00710   0.01155
   56 C19              S   -0.00201  -0.32494   0.14794   0.02444  -0.04426
   57 C19              X   -0.03080  -0.07581  -0.00497   0.17134  -0.14655
   58 C19              Y   -0.15982   0.04144  -0.00928   0.10081   0.13323
   59 C19              Z    0.00000   0.00000   0.00000   0.00000   0.00000
   60 H20              S    0.01318  -0.17389   0.05168   0.09785  -0.14678
   
                             21        22        23        24        25
  eigenvalues-             -0.60591  -0.57247  -0.55390  -0.55333  -0.52485
  occupations-              2.00000   2.00000   2.00000   2.00000   2.00000
    1 C1               S    0.02585   0.06571   0.01962   0.01984  -0.00319
    2 C1               S   -0.08921  -0.22264  -0.06630  -0.06491   0.01106
    3 C1               X    0.11600  -0.09978   0.22384  -0.01351   0.08217
    4 C1               Y    0.13536  -0.03175  -0.13499   0.00744   0.07491
    5 C1               Z    0.00000   0.00000   0.00000   0.00000   0.00000
    6 C2               S   -0.04145  -0.04097   0.01133   0.01631   0.01880
    7 C2               S    0.13537   0.14168  -0.03565  -0.05984  -0.06050
    8 C2               X   -0.10708  -0.11213  -0.25016   0.03580  -0.17355
    9 C2               Y    0.09139  -0.18296   0.05418   0.13459  -0.23601
   10 C2               Z    0.00000   0.00000   0.00000   0.00000   0.00000
   11 C3               S    0.02326   0.04536  -0.00163  -0.02327   0.02565
   12 C3               S   -0.07840  -0.15491   0.00280   0.07743  -0.08246
   13 C3               X    0.03221   0.21719   0.00144   0.00794  -0.30404
   14 C3               Y   -0.18159   0.07361  -0.11592  -0.07988   0.14661
   15 C3               Z    0.00000   0.00000   0.00000   0.00000   0.00000
   16 C4               S   -0.02585  -0.06571  -0.01962   0.01984   0.00319
   17 C4               S    0.08921   0.22264   0.06630  -0.06491  -0.01106
   18 C4               X    0.11600  -0.09978   0.22384   0.01351   0.08217
   19 C4               Y    0.13536  -0.03175  -0.13499  -0.00744   0.07491
   20 C4               Z    0.00000   0.00000   0.00000   0.00000   0.00000
   21 C5               S    0.04145   0.04097  -0.01133   0.01631  -0.01880
   22 C5               S   -0.13537  -0.14168   0.03565  -0.05984   0.06050
   23 C5               X   -0.10708  -0.11213  -0.25016  -0.03580  -0.17355
   24 C5               Y    0.09139  -0.18296   0.05418  -0.13459  -0.23601
   25 C5               Z    0.00000   0.00000   0.00000   0.00000   0.00000
   26 H6               S    0.07210   0.23577   0.13014  -0.11630   0.22253
   27 H7               S   -0.11097  -0.22461  -0.03211   0.00406   0.25981
   28 H8               S   -0.07210  -0.23577  -0.13014  -0.11630  -0.22253
   29 C9               S   -0.01401   0.01546   0.00238  -0.02549   0.00149
   30 C9               S    0.04384  -0.04342  -0.01455   0.07443  -0.00338
   31 C9               X    0.21777  -0.04528   0.04080   0.24749   0.02440
   32 C9               Y   -0.09701  -0.12188   0.18068   0.09268  -0.05671
   33 C9               Z    0.00000   0.00000   0.00000   0.00000   0.00000
   34 C10              S    0.00662  -0.01140  -0.00113  -0.00366  -0.00421
   35 C10              S   -0.02489   0.04663  -0.00634  -0.00090   0.01632
   36 C10              X    0.09508   0.06480  -0.25420  -0.00710   0.07152
   37 C10              Y   -0.19889   0.14608   0.02956  -0.33639  -0.01357
   38 C10              Z    0.00000   0.00000   0.00000   0.00000   0.00000
   39 H11              S    0.07926   0.04058  -0.22305   0.02496   0.05683
   40 H12              S   -0.16535  -0.01639  -0.01325  -0.15208  -0.02096
   41 H13              S   -0.17846   0.11735   0.09076  -0.26793  -0.02375
   42 C14              S    0.01401  -0.01546  -0.00238  -0.02549  -0.00149
   43 C14              S   -0.04384   0.04342   0.01455   0.07443   0.00338
   44 C14              X    0.21777  -0.04528   0.04080  -0.24749   0.02440
   45 C14              Y   -0.09701  -0.12188   0.18068  -0.09268  -0.05671
   46 C14              Z    0.00000   0.00000   0.00000   0.00000   0.00000
   47 H15              S    0.16535   0.01639   0.01325  -0.15208   0.02096
   48 C16              S   -0.00662   0.01140   0.00113  -0.00366   0.00421
   49 C16              S    0.02489  -0.04663   0.00634  -0.00090  -0.01632
   50 C16              X    0.09508   0.06480  -0.25420   0.00710   0.07152
   51 C16              Y   -0.19889   0.14608   0.02956   0.33639  -0.01357
   52 C16              Z    0.00000   0.00000   0.00000   0.00000   0.00000
   53 H17              S   -0.07926  -0.04058   0.22305   0.02496  -0.05683
   54 H18              S    0.17846  -0.11735  -0.09076  -0.26793   0.02375
   55 C19              S   -0.02326  -0.04536   0.00163  -0.02327  -0.02565
   56 C19              S    0.07840   0.15491  -0.00280   0.07743   0.08246
   57 C19              X    0.03221   0.21719   0.00144  -0.00794  -0.30404
   58 C19              Y   -0.18159   0.07361  -0.11592   0.07988   0.14661
   59 C19              Z    0.00000   0.00000   0.00000   0.00000   0.00000
   60 H20              S    0.11097   0.22461   0.03211   0.00406  -0.25981
   
                             26        27        28        29        30
  eigenvalues-             -0.49696  -0.49286  -0.46381  -0.44668  -0.42142
  occupations-              2.00000   2.00000   2.00000   2.00000   2.00000
    1 C1               S    0.00246   0.02334   0.00000   0.01018  -0.00226
    2 C1               S   -0.00888  -0.08363   0.00000  -0.04435   0.01693
    3 C1               X    0.17301   0.08277   0.00000  -0.09896  -0.15247
    4 C1               Y    0.18035  -0.00316   0.00000   0.24157  -0.26624
    5 C1               Z    0.00000   0.00000   0.33149   0.00000   0.00000
    6 C2               S   -0.00556  -0.00715   0.00000  -0.01375  -0.00939
    7 C2               S    0.01516   0.02420   0.00000   0.04738   0.02742
    8 C2               X   -0.08241  -0.06417   0.00000   0.14269   0.10866
    9 C2               Y    0.18373   0.13668   0.00000  -0.00855   0.22743
   10 C2               Z    0.00000   0.00000   0.30194   0.00000   0.00000
   11 C3               S    0.01686   0.00426   0.00000   0.00761   0.00367
   12 C3               S   -0.06057  -0.02157   0.00000  -0.02404  -0.01186
   13 C3               X   -0.10687   0.12902   0.00000  -0.06842  -0.14937
   14 C3               Y   -0.22569  -0.13059   0.00000   0.03351  -0.27280
   15 C3               Z    0.00000   0.00000   0.30269   0.00000   0.00000
   16 C4               S   -0.00246   0.02334   0.00000  -0.01018  -0.00226
   17 C4               S    0.00888  -0.08363   0.00000   0.04435   0.01693
   18 C4               X    0.17301  -0.08277   0.00000  -0.09896   0.15247
   19 C4               Y    0.18035   0.00316   0.00000   0.24157   0.26624
   20 C4               Z    0.00000   0.00000   0.33149   0.00000   0.00000
   21 C5               S    0.00556  -0.00715   0.00000   0.01375  -0.00939
   22 C5               S   -0.01516   0.02420   0.00000  -0.04738   0.02742
   23 C5               X   -0.08241   0.06417   0.00000   0.14269  -0.10866
   24 C5               Y    0.18373  -0.13668   0.00000  -0.00855  -0.22743
   25 C5               Z    0.00000   0.00000   0.30194   0.00000   0.00000
   26 H6               S   -0.04012  -0.00179   0.00000  -0.05801  -0.25205
   27 H7               S    0.00361  -0.15661   0.00000   0.04962   0.04949
   28 H8               S    0.04012  -0.00179   0.00000   0.05801  -0.25205
   29 C9               S    0.00096  -0.01527   0.00000  -0.00330  -0.01757
   30 C9               S    0.01181   0.06370   0.00000   0.01052   0.07395
   31 C9               X   -0.19740  -0.20637   0.00000   0.21869   0.03530
   32 C9               Y   -0.19245  -0.08617   0.00000  -0.17427  -0.23388
   33 C9               Z    0.00000   0.00000   0.16568   0.00000   0.00000
   34 C10              S    0.01885   0.00984   0.00000  -0.00265   0.00869
   35 C10              S   -0.05187  -0.02580   0.00000   0.01214  -0.02340
   36 C10              X    0.11912   0.29745   0.00000  -0.19774   0.02949
   37 C10              Y    0.24171  -0.04305   0.00000   0.13725   0.14012
   38 C10              Z    0.00000   0.00000   0.09899   0.00000   0.00000
   39 H11              S    0.05826   0.27306   0.00000  -0.22605  -0.03560
   40 H12              S    0.14891   0.20241   0.00000  -0.25710  -0.05048
   41 H13              S    0.15325  -0.14616   0.00000   0.21268   0.12393
   42 C14              S   -0.00096  -0.01527   0.00000   0.00330  -0.01757
   43 C14              S   -0.01181   0.06370   0.00000  -0.01052   0.07395
   44 C14              X   -0.19740   0.20637   0.00000   0.21869  -0.03530
   45 C14              Y   -0.19245   0.08617   0.00000  -0.17427   0.23388
   46 C14              Z    0.00000   0.00000   0.16568   0.00000   0.00000
   47 H15              S   -0.14891   0.20241   0.00000   0.25710  -0.05048
   48 C16              S   -0.01885   0.00984   0.00000   0.00265   0.00869
   49 C16              S    0.05187  -0.02580   0.00000  -0.01214  -0.02340
   50 C16              X    0.11912  -0.29745   0.00000  -0.19774  -0.02949
   51 C16              Y    0.24171   0.04305   0.00000   0.13725  -0.14012
   52 C16              Z    0.00000   0.00000   0.09899   0.00000   0.00000
   53 H17              S   -0.05826   0.27306   0.00000   0.22605  -0.03560
   54 H18              S   -0.15325  -0.14616   0.00000  -0.21268   0.12393
   55 C19              S   -0.01686   0.00426   0.00000  -0.00761   0.00367
   56 C19              S    0.06057  -0.02157   0.00000   0.02404  -0.01186
   57 C19              X   -0.10687  -0.12902   0.00000  -0.06842   0.14937
   58 C19              Y   -0.22569   0.13059   0.00000   0.03351   0.27280
   59 C19              Z    0.00000   0.00000   0.30269   0.00000   0.00000
   60 H20              S   -0.00361  -0.15661   0.00000  -0.04962   0.04949
   
                             31        32        33        34        35
  eigenvalues-             -0.41565  -0.37711  -0.31523  -0.27828  -0.22221
  occupations-              2.00000   2.00000   2.00000   2.00000   2.00000
    1 C1               S   -0.00649   0.00000   0.00000   0.00000   0.00000
    2 C1               S    0.03247   0.00000   0.00000   0.00000   0.00000
    3 C1               X    0.28462   0.00000   0.00000   0.00000   0.00000
    4 C1               Y   -0.11818   0.00000   0.00000   0.00000   0.00000
    5 C1               Z    0.00000  -0.31909   0.03910  -0.00371   0.41767
    6 C2               S    0.00701   0.00000   0.00000   0.00000   0.00000
    7 C2               S   -0.02137   0.00000   0.00000   0.00000   0.00000
    8 C2               X   -0.27310   0.00000   0.00000   0.00000   0.00000
    9 C2               Y    0.11408   0.00000   0.00000   0.00000   0.00000
   10 C2               Z    0.00000  -0.12003   0.16523  -0.46229   0.22958
   11 C3               S   -0.01147   0.00000   0.00000   0.00000   0.00000
   12 C3               S    0.03501   0.00000   0.00000   0.00000   0.00000
   13 C3               X    0.21531   0.00000   0.00000   0.00000   0.00000
   14 C3               Y   -0.07525   0.00000   0.00000   0.00000   0.00000
   15 C3               Z    0.00000   0.12355   0.16463  -0.45906  -0.23394
   16 C4               S   -0.00649   0.00000   0.00000   0.00000   0.00000
   17 C4               S    0.03247   0.00000   0.00000   0.00000   0.00000
   18 C4               X   -0.28462   0.00000   0.00000   0.00000   0.00000
   19 C4               Y    0.11818   0.00000   0.00000   0.00000   0.00000
   20 C4               Z    0.00000   0.31909   0.03910   0.00371  -0.41767
   21 C5               S    0.00701   0.00000   0.00000   0.00000   0.00000
   22 C5               S   -0.02137   0.00000   0.00000   0.00000   0.00000
   23 C5               X    0.27310   0.00000   0.00000   0.00000   0.00000
   24 C5               Y   -0.11408   0.00000   0.00000   0.00000   0.00000
   25 C5               Z    0.00000   0.12003   0.16523   0.46229  -0.22958
   26 H6               S    0.12763   0.00000   0.00000   0.00000   0.00000
   27 H7               S   -0.25290   0.00000   0.00000   0.00000   0.00000
   28 H8               S    0.12763   0.00000   0.00000   0.00000   0.00000
   29 C9               S   -0.01270   0.00000   0.00000   0.00000   0.00000
   30 C9               S    0.04576   0.00000   0.00000   0.00000   0.00000
   31 C9               X    0.14395   0.00000   0.00000   0.00000   0.00000
   32 C9               Y   -0.13615   0.00000   0.00000   0.00000   0.00000
   33 C9               Z    0.00000   0.38315  -0.41505  -0.00150   0.21820
   34 C10              S   -0.00316   0.00000   0.00000   0.00000   0.00000
   35 C10              S    0.01414   0.00000   0.00000   0.00000   0.00000
   36 C10              X   -0.10267   0.00000   0.00000   0.00000   0.00000
   37 C10              Y    0.05115   0.00000   0.00000   0.00000   0.00000
   38 C10              Z    0.00000   0.30631  -0.42626   0.00049   0.35878
   39 H11              S   -0.11632   0.00000   0.00000   0.00000   0.00000
   40 H12              S   -0.18278   0.00000   0.00000   0.00000   0.00000
   41 H13              S    0.10050   0.00000   0.00000   0.00000   0.00000
   42 C14              S   -0.01270   0.00000   0.00000   0.00000   0.00000
   43 C14              S    0.04576   0.00000   0.00000   0.00000   0.00000
   44 C14              X   -0.14395   0.00000   0.00000   0.00000   0.00000
   45 C14              Y    0.13615   0.00000   0.00000   0.00000   0.00000
   46 C14              Z    0.00000  -0.38315  -0.41505   0.00150  -0.21820
   47 H15              S   -0.18278   0.00000   0.00000   0.00000   0.00000
   48 C16              S   -0.00316   0.00000   0.00000   0.00000   0.00000
   49 C16              S    0.01414   0.00000   0.00000   0.00000   0.00000
   50 C16              X    0.10267   0.00000   0.00000   0.00000   0.00000
   51 C16              Y   -0.05115   0.00000   0.00000   0.00000   0.00000
   52 C16              Z    0.00000  -0.30631  -0.42626  -0.00049  -0.35878
   53 H17              S   -0.11632   0.00000   0.00000   0.00000   0.00000
   54 H18              S    0.10050   0.00000   0.00000   0.00000   0.00000
   55 C19              S   -0.01147   0.00000   0.00000   0.00000   0.00000
   56 C19              S    0.03501   0.00000   0.00000   0.00000   0.00000
   57 C19              X   -0.21531   0.00000   0.00000   0.00000   0.00000
   58 C19              Y    0.07525   0.00000   0.00000   0.00000   0.00000
   59 C19              Z    0.00000  -0.12355   0.16463   0.45906   0.23394
   60 H20              S   -0.25290   0.00000   0.00000   0.00000   0.00000
   
                             36        37        38        39        40
  eigenvalues-              0.19878   0.26885   0.30867   0.39708   0.52202
  occupations-              0.00000   0.00000   0.00000   0.00000   0.00000
    1 C1               S    0.00000   0.00000   0.00000   0.00000   0.00000
    2 C1               S    0.00000   0.00000   0.00000   0.00000   0.00000
    3 C1               X    0.00000   0.00000   0.00000   0.00000   0.00000
    4 C1               Y    0.00000   0.00000   0.00000   0.00000   0.00000
    5 C1               Z    0.47134  -0.02172  -0.03738   0.47384  -0.53878
    6 C2               S    0.00000   0.00000   0.00000   0.00000   0.00000
    7 C2               S    0.00000   0.00000   0.00000   0.00000   0.00000
    8 C2               X    0.00000   0.00000   0.00000   0.00000   0.00000
    9 C2               Y    0.00000   0.00000   0.00000   0.00000   0.00000
   10 C2               Z   -0.27746  -0.55846   0.22051  -0.18729   0.47180
   11 C3               S    0.00000   0.00000   0.00000   0.00000   0.00000
   12 C3               S    0.00000   0.00000   0.00000   0.00000   0.00000
   13 C3               X    0.00000   0.00000   0.00000   0.00000   0.00000
   14 C3               Y    0.00000   0.00000   0.00000   0.00000   0.00000
   15 C3               Z   -0.25076   0.57838  -0.22561  -0.16128  -0.46941
   16 C4               S    0.00000   0.00000   0.00000   0.00000   0.00000
   17 C4               S    0.00000   0.00000   0.00000   0.00000   0.00000
   18 C4               X    0.00000   0.00000   0.00000   0.00000   0.00000
   19 C4               Y    0.00000   0.00000   0.00000   0.00000   0.00000
   20 C4               Z    0.47134  -0.02172   0.03738   0.47384   0.53878
   21 C5               S    0.00000   0.00000   0.00000   0.00000   0.00000
   22 C5               S    0.00000   0.00000   0.00000   0.00000   0.00000
   23 C5               X    0.00000   0.00000   0.00000   0.00000   0.00000
   24 C5               Y    0.00000   0.00000   0.00000   0.00000   0.00000
   25 C5               Z   -0.27746  -0.55846  -0.22051  -0.18729  -0.47180
   26 H6               S    0.00000   0.00000   0.00000   0.00000   0.00000
   27 H7               S    0.00000   0.00000   0.00000   0.00000   0.00000
   28 H8               S    0.00000   0.00000   0.00000   0.00000   0.00000
   29 C9               S    0.00000   0.00000   0.00000   0.00000   0.00000
   30 C9               S    0.00000   0.00000   0.00000   0.00000   0.00000
   31 C9               X    0.00000   0.00000   0.00000   0.00000   0.00000
   32 C9               Y    0.00000   0.00000   0.00000   0.00000   0.00000
   33 C9               Z    0.24686   0.00417   0.52448  -0.53518  -0.27881
   34 C10              S    0.00000   0.00000   0.00000   0.00000   0.00000
   35 C10              S    0.00000   0.00000   0.00000   0.00000   0.00000
   36 C10              X    0.00000   0.00000   0.00000   0.00000   0.00000
   37 C10              Y    0.00000   0.00000   0.00000   0.00000   0.00000
   38 C10              Z   -0.41541   0.00295  -0.53113   0.40694   0.15817
   39 H11              S    0.00000   0.00000   0.00000   0.00000   0.00000
   40 H12              S    0.00000   0.00000   0.00000   0.00000   0.00000
   41 H13              S    0.00000   0.00000   0.00000   0.00000   0.00000
   42 C14              S    0.00000   0.00000   0.00000   0.00000   0.00000
   43 C14              S    0.00000   0.00000   0.00000   0.00000   0.00000
   44 C14              X    0.00000   0.00000   0.00000   0.00000   0.00000
   45 C14              Y    0.00000   0.00000   0.00000   0.00000   0.00000
   46 C14              Z    0.24686   0.00417  -0.52448  -0.53518   0.27881
   47 H15              S    0.00000   0.00000   0.00000   0.00000   0.00000
   48 C16              S    0.00000   0.00000   0.00000   0.00000   0.00000
   49 C16              S    0.00000   0.00000   0.00000   0.00000   0.00000
   50 C16              X    0.00000   0.00000   0.00000   0.00000   0.00000
   51 C16              Y    0.00000   0.00000   0.00000   0.00000   0.00000
   52 C16              Z   -0.41541   0.00295   0.53113   0.40694  -0.15817
   53 H17              S    0.00000   0.00000   0.00000   0.00000   0.00000
   54 H18              S    0.00000   0.00000   0.00000   0.00000   0.00000
   55 C19              S    0.00000   0.00000   0.00000   0.00000   0.00000
   56 C19              S    0.00000   0.00000   0.00000   0.00000   0.00000
   57 C19              X    0.00000   0.00000   0.00000   0.00000   0.00000
   58 C19              Y    0.00000   0.00000   0.00000   0.00000   0.00000
   59 C19              Z   -0.25076   0.57838   0.22561  -0.16128   0.46941
   60 H20              S    0.00000   0.00000   0.00000   0.00000   0.00000
   
                             41        42        43        44        45
  eigenvalues-              0.56470   0.57564   0.62171   0.62558   0.65890
  occupations-              0.00000   0.00000   0.00000   0.00000   0.00000
    1 C1               S    0.06352   0.03027  -0.02057   0.05479  -0.04401
    2 C1               S   -0.38051  -0.18082   0.12581  -0.32275   0.27012
    3 C1               X   -0.09643  -0.28531   0.10829   0.07075  -0.24666
    4 C1               Y    0.26446   0.10560   0.08120   0.45494  -0.15553
    5 C1               Z    0.00000   0.00000   0.00000   0.00000   0.00000
    6 C2               S    0.04825  -0.01440   0.01596  -0.00045   0.09361
    7 C2               S   -0.29726   0.08902  -0.10436  -0.00379  -0.58060
    8 C2               X    0.20429  -0.28769   0.16727   0.25648  -0.02492
    9 C2               Y    0.14001  -0.01197   0.20708   0.33605  -0.02763
   10 C2               Z    0.00000   0.00000   0.00000   0.00000   0.00000
   11 C3               S    0.02906   0.00465   0.06411   0.02336  -0.07449
   12 C3               S   -0.18219  -0.02232  -0.39805  -0.14558   0.46357
   13 C3               X    0.31149  -0.35541   0.00871   0.11557  -0.05388
   14 C3               Y   -0.05634  -0.00814  -0.11462   0.22466  -0.14449
   15 C3               Z    0.00000   0.00000   0.00000   0.00000   0.00000
   16 C4               S    0.06352  -0.03027  -0.02057  -0.05479  -0.04401
   17 C4               S   -0.38051   0.18082   0.12581   0.32275   0.27012
   18 C4               X    0.09643  -0.28531  -0.10829   0.07075   0.24666
   19 C4               Y   -0.26446   0.10560  -0.08120   0.45494   0.15553
   20 C4               Z    0.00000   0.00000   0.00000   0.00000   0.00000
   21 C5               S    0.04825   0.01440   0.01596   0.00045   0.09361
   22 C5               S   -0.29726  -0.08902  -0.10436   0.00379  -0.58060
   23 C5               X   -0.20429  -0.28769  -0.16727   0.25648   0.02492
   24 C5               Y   -0.14001  -0.01197  -0.20708   0.33605   0.02763
   25 C5               Z    0.00000   0.00000   0.00000   0.00000   0.00000
   26 H6               S    0.43388  -0.27416   0.28041   0.41460   0.20353
   27 H7               S    0.42056  -0.31684   0.28869   0.10426  -0.24528
   28 H8               S    0.43388   0.27416   0.28041  -0.41460   0.20353
   29 C9               S   -0.04744  -0.01376  -0.06464   0.08877   0.01554
   30 C9               S    0.27185   0.08398   0.39512  -0.52672  -0.10342
   31 C9               X    0.25021  -0.35643  -0.34817  -0.08546   0.12188
   32 C9               Y   -0.31900   0.19252   0.06606   0.31743   0.23690
   33 C9               Z    0.00000   0.00000   0.00000   0.00000   0.00000
   34 C10              S    0.03997  -0.00132   0.01895  -0.05495   0.10828
   35 C10              S   -0.23574   0.01337  -0.10627   0.32875  -0.68827
   36 C10              X    0.14561  -0.30596  -0.30559  -0.11758  -0.24244
   37 C10              Y   -0.14682   0.16609   0.23553   0.16071  -0.08262
   38 C10              Z    0.00000   0.00000   0.00000   0.00000   0.00000
   39 H11              S   -0.10473   0.32236   0.38454   0.00698   0.53977
   40 H12              S    0.14526  -0.44982  -0.58631   0.12961   0.12872
   41 H13              S    0.35175  -0.28129  -0.25787  -0.38323   0.33637
   42 C14              S   -0.04744   0.01376  -0.06464  -0.08877   0.01554
   43 C14              S    0.27185  -0.08398   0.39512   0.52672  -0.10342
   44 C14              X   -0.25021  -0.35643   0.34817  -0.08546  -0.12188
   45 C14              Y    0.31900   0.19252  -0.06606   0.31743  -0.23690
   46 C14              Z    0.00000   0.00000   0.00000   0.00000   0.00000
   47 H15              S    0.14526   0.44982  -0.58631  -0.12961   0.12872
   48 C16              S    0.03997   0.00132   0.01895   0.05495   0.10828
   49 C16              S   -0.23574  -0.01337  -0.10627  -0.32875  -0.68827
   50 C16              X   -0.14561  -0.30596   0.30559  -0.11758   0.24244
   51 C16              Y    0.14682   0.16609  -0.23553   0.16071   0.08262
   52 C16              Z    0.00000   0.00000   0.00000   0.00000   0.00000
   53 H17              S   -0.10473  -0.32236   0.38454  -0.00698   0.53977
   54 H18              S    0.35175   0.28129  -0.25787   0.38323   0.33637
   55 C19              S    0.02906  -0.00465   0.06411  -0.02336  -0.07449
   56 C19              S   -0.18219   0.02232  -0.39805   0.14558   0.46357
   57 C19              X   -0.31149  -0.35541  -0.00871   0.11557   0.05388
   58 C19              Y    0.05634  -0.00814   0.11462   0.22466   0.14449
   59 C19              Z    0.00000   0.00000   0.00000   0.00000   0.00000
   60 H20              S    0.42056   0.31684   0.28869  -0.10426  -0.24528
   
                             46        47        48        49        50
  eigenvalues-              0.66022   0.67828   0.69448   0.70559   0.74009
  occupations-              0.00000   0.00000   0.00000   0.00000   0.00000
    1 C1               S    0.08272  -0.01570   0.12971   0.06126   0.04069
    2 C1               S   -0.49303   0.10178  -0.79826  -0.36882  -0.25715
    3 C1               X    0.11875  -0.11480   0.04709  -0.13252  -0.34407
    4 C1               Y    0.03064   0.25404  -0.00744  -0.11465  -0.05885
    5 C1               Z    0.00000   0.00000   0.00000   0.00000   0.00000
    6 C2               S   -0.09967   0.00280  -0.07489  -0.06851   0.09488
    7 C2               S    0.61163  -0.00564   0.47479   0.42654  -0.61052
    8 C2               X    0.01431  -0.20761   0.22778  -0.17359   0.16273
    9 C2               Y   -0.11421   0.10423  -0.23636  -0.15142  -0.17758
   10 C2               Z    0.00000   0.00000   0.00000   0.00000   0.00000
   11 C3               S    0.07648  -0.05552  -0.06856   0.05874  -0.11386
   12 C3               S   -0.46311   0.34984   0.43490  -0.36068   0.72992
   13 C3               X    0.11614  -0.33256  -0.01654  -0.14014   0.08021
   14 C3               Y    0.02556   0.31012   0.29408  -0.12647  -0.10207
   15 C3               Z    0.00000   0.00000   0.00000   0.00000   0.00000
   16 C4               S   -0.08272   0.01570   0.12971  -0.06126   0.04069
   17 C4               S    0.49303  -0.10178  -0.79826   0.36882  -0.25715
   18 C4               X    0.11875  -0.11480  -0.04709  -0.13252   0.34407
   19 C4               Y    0.03064   0.25404   0.00744  -0.11465   0.05885
   20 C4               Z    0.00000   0.00000   0.00000   0.00000   0.00000
   21 C5               S    0.09967  -0.00280  -0.07489   0.06851   0.09488
   22 C5               S   -0.61163   0.00564   0.47479  -0.42654  -0.61052
   23 C5               X    0.01431  -0.20761  -0.22778  -0.17359  -0.16273
   24 C5               Y   -0.11421   0.10423   0.23636  -0.15142   0.17758
   25 C5               Z    0.00000   0.00000   0.00000   0.00000   0.00000
   26 H6               S   -0.32864  -0.05721  -0.22485  -0.48354   0.33632
   27 H7               S    0.34451  -0.59460  -0.28669   0.08355  -0.24433
   28 H8               S    0.32864   0.05721  -0.22485   0.48354   0.33632
   29 C9               S    0.03940   0.07474  -0.09401   0.07036  -0.03334
   30 C9               S   -0.25195  -0.47595   0.57659  -0.43227   0.23392
   31 C9               X    0.14199   0.22194  -0.11214   0.05780  -0.03751
   32 C9               Y    0.19369   0.06978  -0.10402  -0.11823  -0.07415
   33 C9               Z    0.00000   0.00000   0.00000   0.00000   0.00000
   34 C10              S    0.08354   0.02075   0.06341  -0.11127  -0.06076
   35 C10              S   -0.53399  -0.14104  -0.39068   0.70742   0.39618
   36 C10              X   -0.25924   0.03592   0.03219   0.13883   0.12573
   37 C10              Y   -0.12297  -0.29302  -0.06329   0.02684   0.37674
   38 C10              Z    0.00000   0.00000   0.00000   0.00000   0.00000
   39 H11              S    0.46120  -0.02570   0.17241  -0.51407  -0.28495
   40 H12              S    0.19042   0.44149  -0.36768   0.29277  -0.09069
   41 H13              S    0.29001   0.32980   0.26698  -0.32303  -0.45686
   42 C14              S   -0.03940  -0.07474  -0.09401  -0.07036  -0.03334
   43 C14              S    0.25195   0.47595   0.57659   0.43227   0.23392
   44 C14              X    0.14199   0.22194   0.11214   0.05780   0.03751
   45 C14              Y    0.19369   0.06978   0.10402  -0.11823   0.07415
   46 C14              Z    0.00000   0.00000   0.00000   0.00000   0.00000
   47 H15              S   -0.19042  -0.44149  -0.36768  -0.29277  -0.09069
   48 C16              S   -0.08354  -0.02075   0.06341   0.11127  -0.06076
   49 C16              S    0.53399   0.14104  -0.39068  -0.70742   0.39618
   50 C16              X   -0.25924   0.03592  -0.03219   0.13883  -0.12573
   51 C16              Y   -0.12297  -0.29302   0.06329   0.02684  -0.37674
   52 C16              Z    0.00000   0.00000   0.00000   0.00000   0.00000
   53 H17              S   -0.46120   0.02570   0.17241   0.51407  -0.28495
   54 H18              S   -0.29001  -0.32980   0.26698   0.32303  -0.45686
   55 C19              S   -0.07648   0.05552  -0.06856  -0.05874  -0.11386
   56 C19              S    0.46311  -0.34984   0.43490   0.36068   0.72992
   57 C19              X    0.11614  -0.33256   0.01654  -0.14014  -0.08021
   58 C19              Y    0.02556   0.31012  -0.29408  -0.12647   0.10207
   59 C19              Z    0.00000   0.00000   0.00000   0.00000   0.00000
   60 H20              S   -0.34451   0.59460  -0.28669  -0.08355  -0.24433
   
                             51        52        53        54        55
  eigenvalues-              0.80296   0.82501   0.86016   0.88880   0.92117
  occupations-              0.00000   0.00000   0.00000   0.00000   0.00000
    1 C1               S   -0.06841   0.00335   0.00199   0.04956  -0.09509
    2 C1               S    0.46342  -0.01232  -0.02012  -0.34856   0.65318
    3 C1               X   -0.13199  -0.55574   0.21550  -0.26166  -0.18414
    4 C1               Y    0.58285  -0.07469  -0.05426  -0.01169  -0.06165
    5 C1               Z    0.00000   0.00000   0.00000   0.00000   0.00000
    6 C2               S    0.04800   0.03454  -0.00442   0.08792   0.02666
    7 C2               S   -0.31644  -0.24396   0.03762  -0.61284  -0.17572
    8 C2               X   -0.31297  -0.20328   0.51923   0.30465  -0.40429
    9 C2               Y   -0.01113   0.47188   0.40453  -0.37586   0.20846
   10 C2               Z    0.00000   0.00000   0.00000   0.00000   0.00000
   11 C3               S    0.01409   0.09474   0.00298  -0.03519   0.00986
   12 C3               S   -0.09417  -0.64476  -0.02654   0.24241  -0.08250
   13 C3               X   -0.45325   0.01656  -0.52650  -0.16978   0.26712
   14 C3               Y   -0.16727  -0.10440   0.19161  -0.71821   0.16041
   15 C3               Z    0.00000   0.00000   0.00000   0.00000   0.00000
   16 C4               S   -0.06841  -0.00335   0.00199  -0.04956   0.09509
   17 C4               S    0.46342   0.01232  -0.02012   0.34856  -0.65318
   18 C4               X    0.13199  -0.55574  -0.21550  -0.26166  -0.18414
   19 C4               Y   -0.58285  -0.07469   0.05426  -0.01169  -0.06165
   20 C4               Z    0.00000   0.00000   0.00000   0.00000   0.00000
   21 C5               S    0.04800  -0.03454  -0.00442  -0.08792  -0.02666
   22 C5               S   -0.31644   0.24396   0.03762   0.61284   0.17572
   23 C5               X    0.31297  -0.20328  -0.51923   0.30465  -0.40429
   24 C5               Y    0.01113   0.47188  -0.40453  -0.37586   0.20846
   25 C5               Z    0.00000   0.00000   0.00000   0.00000   0.00000
   26 H6               S   -0.04058   0.20809   0.50944   0.25220  -0.02977
   27 H7               S   -0.24963   0.29964  -0.44103  -0.05931   0.14841
   28 H8               S   -0.04058  -0.20809   0.50944  -0.25220   0.02977
   29 C9               S   -0.07216   0.02681   0.05272   0.06229   0.01653
   30 C9               S    0.47967  -0.19815  -0.36790  -0.43593  -0.13619
   31 C9               X   -0.15882  -0.27286  -0.13304   0.08820   0.30908
   32 C9               Y    0.01698  -0.05841  -0.16600  -0.11252  -0.47240
   33 C9               Z    0.00000   0.00000   0.00000   0.00000   0.00000
   34 C10              S    0.01828  -0.00972  -0.04126  -0.00985  -0.01753
   35 C10              S   -0.11557   0.07728   0.28734   0.06555   0.12825
   36 C10              X    0.36219   0.03222  -0.09613  -0.31470  -0.50810
   37 C10              Y   -0.12716  -0.48886  -0.29027  -0.09819   0.22477
   38 C10              Z    0.00000   0.00000   0.00000   0.00000   0.00000
   39 H11              S   -0.24960  -0.10227  -0.11950   0.23515   0.34145
   40 H12              S   -0.30862  -0.15093   0.08471   0.26637   0.32363
   41 H13              S    0.25617   0.35640   0.07668  -0.03796  -0.33136
   42 C14              S   -0.07216  -0.02681   0.05272  -0.06229  -0.01653
   43 C14              S    0.47967   0.19815  -0.36790   0.43593   0.13619
   44 C14              X    0.15882  -0.27286   0.13304   0.08820   0.30908
   45 C14              Y   -0.01698  -0.05841   0.16600  -0.11252  -0.47240
   46 C14              Z    0.00000   0.00000   0.00000   0.00000   0.00000
   47 H15              S   -0.30862   0.15093   0.08471  -0.26637  -0.32363
   48 C16              S    0.01828   0.00972  -0.04126   0.00985   0.01753
   49 C16              S   -0.11557  -0.07728   0.28734  -0.06555  -0.12825
   50 C16              X   -0.36219   0.03222   0.09613  -0.31470  -0.50810
   51 C16              Y    0.12716  -0.48886   0.29027  -0.09819   0.22477
   52 C16              Z    0.00000   0.00000   0.00000   0.00000   0.00000
   53 H17              S   -0.24960   0.10227  -0.11950  -0.23515  -0.34145
   54 H18              S    0.25617  -0.35640   0.07668   0.03796   0.33136
   55 C19              S    0.01409  -0.09474   0.00298   0.03519  -0.00986
   56 C19              S   -0.09417   0.64476  -0.02654  -0.24241   0.08250
   57 C19              X    0.45325   0.01656   0.52650  -0.16978   0.26712
   58 C19              Y    0.16727  -0.10440  -0.19161  -0.71821   0.16041
   59 C19              Z    0.00000   0.00000   0.00000   0.00000   0.00000
   60 H20              S   -0.24963  -0.29964  -0.44103   0.05931  -0.14841
   
                             56        57        58        59        60
  eigenvalues-              0.93977   0.99024   1.02714   1.10827   1.12527
  occupations-              0.00000   0.00000   0.00000   0.00000   0.00000
    1 C1               S   -0.01431  -0.01706   0.02011  -0.00474   0.04267
    2 C1               S    0.08568   0.10861  -0.14355   0.03166  -0.32344
    3 C1               X    0.11712  -0.08981  -0.46240   0.70967   0.18541
    4 C1               Y   -0.35778  -0.41575  -0.15025   0.06976  -0.65825
    5 C1               Z    0.00000   0.00000   0.00000   0.00000   0.00000
    6 C2               S    0.03167  -0.01688   0.02170  -0.00685  -0.05600
    7 C2               S   -0.22118   0.12462  -0.16380   0.04636   0.41556
    8 C2               X    0.16354   0.04205  -0.05550   0.45477   0.48951
    9 C2               Y   -0.32019   0.43040   0.21523  -0.41452   0.39956
   10 C2               Z    0.00000   0.00000   0.00000   0.00000   0.00000
   11 C3               S   -0.02811   0.01814   0.04655   0.00684   0.05033
   12 C3               S    0.20096  -0.13235  -0.34068  -0.04697  -0.37121
   13 C3               X    0.27782   0.10743  -0.19661  -0.22943  -0.56985
   14 C3               Y   -0.38293   0.37109  -0.14265  -0.55546   0.22595
   15 C3               Z    0.00000   0.00000   0.00000   0.00000   0.00000
   16 C4               S   -0.01431  -0.01706  -0.02011  -0.00474  -0.04267
   17 C4               S    0.08568   0.10861   0.14355   0.03166   0.32344
   18 C4               X   -0.11712   0.08981  -0.46240  -0.70967   0.18541
   19 C4               Y    0.35778   0.41575  -0.15025  -0.06976  -0.65825
   20 C4               Z    0.00000   0.00000   0.00000   0.00000   0.00000
   21 C5               S    0.03167  -0.01688  -0.02170  -0.00685   0.05600
   22 C5               S   -0.22118   0.12462   0.16380   0.04636  -0.41556
   23 C5               X   -0.16354  -0.04205  -0.05550  -0.45477   0.48951
   24 C5               Y    0.32019  -0.43040   0.21523   0.41452   0.39956
   25 C5               Z    0.00000   0.00000   0.00000   0.00000   0.00000
   26 H6               S    0.03708   0.20010   0.10693   0.04096   0.27518
   27 H7               S    0.21707   0.04772   0.02140  -0.00768  -0.26956
   28 H8               S    0.03708   0.20010  -0.10693   0.04096  -0.27518
   29 C9               S    0.04321  -0.03626  -0.05825  -0.02390  -0.01393
   30 C9               S   -0.30623   0.29625   0.45117   0.19564   0.08664
   31 C9               X   -0.56219   0.08464   0.59802   0.40657   0.03209
   32 C9               Y    0.13140   0.68175   0.47104   0.31210  -0.36659
   33 C9               Z    0.00000   0.00000   0.00000   0.00000   0.00000
   34 C10              S   -0.03252   0.04646   0.06822   0.03808  -0.00932
   35 C10              S    0.24083  -0.35639  -0.52527  -0.30463   0.08203
   36 C10              X    0.14670   0.57821   0.37475   0.23297  -0.21799
   37 C10              Y   -0.53707   0.19914   0.54638   0.30755  -0.00554
   38 C10              Z    0.00000   0.00000   0.00000   0.00000   0.00000
   39 H11              S   -0.26492  -0.27134  -0.01272  -0.03282   0.13533
   40 H12              S   -0.31070  -0.14354   0.18138   0.15844   0.04629
   41 H13              S    0.32172   0.12273  -0.09667  -0.04585  -0.06579
   42 C14              S    0.04321  -0.03626   0.05825  -0.02390   0.01393
   43 C14              S   -0.30623   0.29625  -0.45117   0.19564  -0.08664
   44 C14              X    0.56219  -0.08464   0.59802  -0.40657   0.03209
   45 C14              Y   -0.13140  -0.68175   0.47104  -0.31210  -0.36659
   46 C14              Z    0.00000   0.00000   0.00000   0.00000   0.00000
   47 H15              S   -0.31070  -0.14354  -0.18138   0.15844  -0.04629
   48 C16              S   -0.03252   0.04646  -0.06822   0.03808   0.00932
   49 C16              S    0.24083  -0.35639   0.52527  -0.30463  -0.08203
   50 C16              X   -0.14670  -0.57821   0.37475  -0.23297  -0.21799
   51 C16              Y    0.53707  -0.19914   0.54638  -0.30755  -0.00554
   52 C16              Z    0.00000   0.00000   0.00000   0.00000   0.00000
   53 H17              S   -0.26492  -0.27134   0.01272  -0.03282  -0.13533
   54 H18              S    0.32172   0.12273   0.09667  -0.04585   0.06579
   55 C19              S   -0.02811   0.01814  -0.04655   0.00684  -0.05033
   56 C19              S    0.20096  -0.13235   0.34068  -0.04697   0.37121
   57 C19              X   -0.27782  -0.10743  -0.19661   0.22943  -0.56985
   58 C19              Y    0.38293  -0.37109  -0.14265   0.55546   0.22595
   59 C19              Z    0.00000   0.00000   0.00000   0.00000   0.00000
   60 H20              S    0.21707   0.04772  -0.02140  -0.00768   0.26956
   
  
  Peak memory usage:    515 Mb
  
  end of program post
   
 Time(post)  user:        0.0  user+sys:        0.0  wallclock:        0.1

 Total cpu seconds     user:       1.000   user+sys:       1.000
  
 Total elapsed time:    4 seconds

Job dvb_sp_hf completed on silenziosa at Tue Apr  8 22:24:46 2014
