Job dvb_ir started on silenziosa at Wed Apr  9 22:30:57 2014
jobid: silenziosa-0-53460261

  +--------------------------------------------------------------------+
  |  Jaguar version 8.3, release  13                                   |
  |                                                                    |
  |  Copyright Schrodinger, Inc.                                       |
  |  All Rights Reserved.                                              |
  |                                                                    |
  |  The following have contributed to Jaguar (listed alphabetically): |
  |  Mike Beachy, Art Bochevarov, Dale Braden, Yixiang Cao,            |
  |  Chris Cortis, Rich Friesner, Bill Goddard, Hod Greeley,           |
  |  Tom Hughes, Jean-Marc Langlois, Daniel Mainz, Rob Murphy,         |
  |  Dean Philipp, Tom Pollard, Murco Ringnalda.                       |
  |                                                                    |
  |  Use of this program should be acknowledged in publications as:    |
  |                                                                    |
  |  Jaguar, version 8.3, Schrodinger, Inc., New York, NY, 2014.       |
  |                                                                    |
  |  A. D. Bochevarov, E. Harder, T. F. Hughes, J. R. Greenwood,       |
  |  D. A. Braden, D. M. Philipp, D. Rinaldo, M. D. Halls,             |
  |  J. Zhang, R. A. Friesner, "Jaguar: A High-Performance Quantum     |
  |  Chemistry Software Program with Strengths in Life and Materials   |
  |  Sciences", Int. J. Quantum Chem., 2013, 113(18), 2110-2142.       |
  +--------------------------------------------------------------------+
  
  start of program pre
  
  Job name: dvb_ir
  Executables used: /usr/local/lib/schrodinger2014-1/jaguar-v83013/bin/Linux-x86_64
  Temporary files : /home/kml/dvb_ir
  Maestro file (input):  dvb_ir.mae
  Maestro file (output): dvb_ir.01.mae
  
  
  basis set:             sto-3g          
  net molecular charge:    0
  multiplicity:            1
  
  number of basis functions....           60
  no dealiasing set available for atom            1
  switch to all-analytic calculation
  
 Input geometry:
                                   angstroms
  atom               x                 y                 z
  C1           -0.0758150000      0.0000000000      0.0269380000 
  C2           -0.0045600000      0.0000000000      1.4463040000 
  C3            1.2336810000      0.0000000000      2.1042190000 
  C4            2.4572420000      0.0000000000      1.3787840000 
  C5            2.3859860000      0.0000000000     -0.0405820000 
  H6           -0.9288540000      0.0000000000      2.0382910000 
  H7            1.2652340000      0.0000000000      3.2024280000 
  H8            3.3102810000      0.0000000000     -0.6325690000 
  C9            3.7520430000      0.0000000000      2.1313240000 
  C10           4.9872240000      0.0000000000      1.6008690000 
  H11           5.1663340000      0.0000000000      0.5196130000 
  H12           3.6421500000      0.0000000000      3.2262300000 
  H13           5.8793430000      0.0000000000      2.2379240000 
  C14          -1.3706160000      0.0000000000     -0.7256020000 
  H15          -1.2607230000      0.0000000000     -1.8205080000 
  C16          -2.6057970000      0.0000000000     -0.1951460000 
  H17          -2.7849070000      0.0000000000      0.8861090000 
  H18          -3.4979160000      0.0000000000     -0.8322020000 
  C19           1.1477460000      0.0000000000     -0.6984970000 
  H20           1.1161930000      0.0000000000     -1.7967060000 
   
  principal moments of inertia:
        amu*angstrom^2:      109.23592      737.84463      847.08055
                g*cm^2: 1.81390497E-38 1.22521968E-37 1.40661017E-37
   
  rotational constants:
               cm^(-1):      0.15432312      0.02284713      0.01990086
                   GHz:      4.62649088      0.68493960      0.59661269
   
  Molecular weight:     130.08 amu
   
  Stoichiometry: C10H10
  Molecular Point Group: C2h     
	Molecule translated to center of mass 
	Molecule reoriented along symmetry axes
  Point Group used: C2h
  
  
 Symmetrized geometry:
                                   angstroms
  atom               x                 y                 z
  C1            1.2665285000      0.6759230000      0.0000000000 
  C2            1.1952730000     -0.7434430000      0.0000000000 
  C3           -0.0429675000     -1.4013580000      0.0000000000 
  C4           -1.2665285000     -0.6759230000      0.0000000000 
  C5           -1.1952730000      0.7434430000      0.0000000000 
  H6            2.1195675000     -1.3354300000      0.0000000000 
  H7           -0.0745205000     -2.4995670000      0.0000000000 
  H8           -2.1195675000      1.3354300000      0.0000000000 
  C9           -2.5613295000     -1.4284630000      0.0000000000 
  C10          -3.7965105000     -0.8980075000      0.0000000000 
  H11          -3.9756205000      0.1832480000      0.0000000000 
  H12          -2.4514365000     -2.5233690000      0.0000000000 
  H13          -4.6886295000     -1.5350630000      0.0000000000 
  C14           2.5613295000      1.4284630000      0.0000000000 
  H15           2.4514365000      2.5233690000      0.0000000000 
  C16           3.7965105000      0.8980075000      0.0000000000 
  H17           3.9756205000     -0.1832480000      0.0000000000 
  H18           4.6886295000      1.5350630000      0.0000000000 
  C19           0.0429675000      1.4013580000      0.0000000000 
  H20           0.0745205000      2.4995670000      0.0000000000 
   
  nuclear repulsion energy.......     445.899321568 hartrees
 
 Non-default options chosen:
   SCF calculation type: DFT(b3lyp)                  
   DFT=Becke_3_Parameter/HF+Slater+Becke88+VWN+LYP (B3LYP)
   Vibrational frequencies and related properties will be computed
      from analytic second derivatives
   IR intensities will be computed
  
 Temporary integer options set:
     73=  2
  
  Peak memory usage:    479 Mb
  
  end of program pre
   
 Time(pre)  user:        0.0  user+sys:        0.0  wallclock:        0.1
  
  start of program onee
  
  smallest eigenvalue of S:    1.814E-01
  number of canonical orbitals.....           60
  Peak memory usage:    621 Mb
  
  end of program onee
   
 Time(onee)  user:        0.0  user+sys:        0.0  wallclock:        0.1
  
  start of program hfig
  
  initial wavefunction generated automatically from atomic wavefunctions
 
  Irreducible     Total no   No of occupied orbitals 
  representation  orbitals   Shell_1  Shell_2    ...
  Ag                25         15
  Bg                 5          3
  Au                 5          2
  Bu                25         15
  ------------------------
  Orbital occupation/shell    1.000
 
  Peak memory usage:    561 Mb
  
  end of program hfig
   
 Time(hfig)  user:        0.0  user+sys:        0.0  wallclock:        0.3
  
  start of program probe
  
  Peak memory usage:    560 Mb
  
  end of program probe
   
 Time(probe)  user:        0.0  user+sys:        0.0  wallclock:        0.1
  
  start of program grid
  
  
   grid     grid set  grid #  grid sym
  ------    --------  ------  --------
  coarse        0        0        1
  medium        0        0        1
  fine          0        0        1
  ultrafine     0        0        1
  charge        0        0        1
  gradient      0        0        1
  density       0        0        1
  DFT-fine    -11        1        4
  DFT-med.    -10        2        4
  DFT-grad    -12        3        4
  DFT-der2     -8        4        4
  DFT-cphf     -9        5        4
  LMP2-enrg     0        0        1
  LMP2-grad     0        0        1
  DFT-cphf2   -15        6        4
  PBF-dens      0        0        1
  plotting      0        0        1
  
   
  number of gridpoints: 
     atom        C1       C2       C3       C4       C5       H6       H7
  grid # 1     2430     2430        0        0        0     2430        0
  grid # 2      756      756        0        0        0      756        0
  grid # 3     3001     3001        0        0        0     3001        0
  grid # 4     6859     6859        0        0        0     7413        0
  grid # 5      426      426        0        0        0      464        0
  grid # 6      229      229        0        0        0      245        0
   
  number of gridpoints: 
     atom        H8       C9      C10      H11      H12      H13      C14
  grid # 1        0        0        0        0        0        0     2430
  grid # 2        0        0        0        0        0        0      756
  grid # 3        0        0        0        0        0        0     3001
  grid # 4        0        0        0        0        0        0     6859
  grid # 5        0        0        0        0        0        0      426
  grid # 6        0        0        0        0        0        0      229
   
  number of gridpoints: 
     atom       H15      C16      H17      H18      C19      H20    total
  grid # 1     2430     2430     2430     2430     2430     2430    24300
  grid # 2      756      756      756      756      756      756     7560
  grid # 3     3001     3001     3001     3001     3001     3001    30010
  grid # 4     7413     6859     7413     7413     6859     7413    71360
  grid # 5      464      426      464      464      426      464     4450
  grid # 6      245      229      245      245      229      245     2370
   
  Peak memory usage:    602 Mb
  
  end of program grid
   
 Time(grid)  user:        1.0  user+sys:        1.0  wallclock:        1.1
  
  start of program scf
  
 number of electrons..........         70
 number of alpha electrons....         35
 number of beta electrons.....         35
 number of orbitals, total....         60
 number of doubly-occ'd orbs..         35
 number of open shell orbs....          0
 number of occupied orbitals..         35
 number of virtual orbitals...         25
 number of hamiltonians.......          1
 number of shells.............          1
 SCF type: DFT=Becke_3_Parameter/HF+Slater+Becke88+VWN+LYP (B3LYP)
  
       i  u  d  i  g                   
       t  p  i  c  r                                 RMS    maximum
       e  d  i  u  i                       energy  density   DIIS  
       r  t  s  t  d       total energy    change  change    error 
  
etot    1  N  N  0  N    -382.08746979809           2.3E-03  1.4E-01
etot    2  Y  Y  0  N    -382.27478842121  1.9E-01  1.4E-03  5.7E-02
etot    3  N  Y  0  N    -382.30452299795  3.0E-02  4.8E-04  1.1E-02
etot    4  Y  Y  0  N    -382.30785277442  3.3E-03  1.3E-04  5.1E-03
etot    5  Y  Y  0  N    -382.30826743146  4.1E-04  1.2E-05  2.3E-04
etot    6  N  Y  0  N    -382.30825840661 -9.0E-06  3.6E-06  1.6E-04
etot    7  N  N  0  N    -382.30825874596  3.4E-07  0.0E+00  0.0E+00
  
  
 Energy components, in hartrees:
   (A)  Nuclear repulsion............     445.89932156785
   (E)  Total one-electron terms.....   -1400.56642382519
   (I)  Total two-electron terms.....     572.35884351138
   (J)    Coulomb....................     630.20249050268
   (K)    Exchange+Correlation.......     -57.84364699130
   (L)  Electronic energy............    -828.20758031381  (E+I)
   (N)  Total energy.................    -382.30825874596  (A+L)
  
 SCFE: SCF energy: DFT(b3lyp)      -382.30825874596 hartrees   iterations:   7
  
 
 HOMO energy:    -0.15309
 LUMO energy:     0.03742
 
  Orbital energies (hartrees)/symmetry label: 
   -10.02029 Bu        -10.02024 Ag        -10.00820 Bu        -10.00820 Ag     
   -10.00679 Bu        -10.00679 Ag        -10.00610 Bu        -10.00595 Ag     
    -9.99219 Bu         -9.99219 Ag         -0.80955 Ag         -0.75400 Bu     
    -0.71796 Ag         -0.69981 Bu         -0.66751 Bu         -0.58871 Ag     
    -0.55895 Ag         -0.53167 Bu         -0.51018 Ag         -0.45746 Ag     
    -0.43937 Bu         -0.41061 Bu         -0.39796 Bu         -0.39605 Ag     
    -0.37399 Bu         -0.35116 Bu         -0.34729 Ag         -0.32455 Au     
    -0.31126 Bu         -0.29281 Ag         -0.28749 Ag         -0.26357 Bg     
    -0.21244 Au         -0.19508 Bg         -0.15309 Bg          0.03742 Au     
     0.09034 Au          0.11062 Bg          0.18218 Au          0.27249 Bg     
     0.33221 Ag          0.34072 Bu          0.37934 Bu          0.38145 Ag     
     0.41098 Ag     
 
  Peak memory usage:    654 Mb
  
  end of program scf
   
 Time(scf)  user:        3.0  user+sys:        3.0  wallclock:        3.9
  
  start of program cutabab2
  
  Peak memory usage:    577 Mb
  
  end of program cutabab2
   
 Time(cutabab2)  user:        0.0  user+sys:        0.0  wallclock:        0.1
  
  start of program der2a
  
  Peak memory usage:    621 Mb
  
  end of program der2a
   
 Time(der2a)  user:        0.0  user+sys:        0.0  wallclock:        0.3
  
  start of program grid
  
  
   Turning symmetry off because some of the
   following programs cannot use it.
  
   grid     grid set  grid #  grid sym
  ------    --------  ------  --------
  coarse        0        0        1
  medium        0        0        1
  fine          0        0        1
  ultrafine     0        0        1
  charge        0        0        1
  gradient      0        0        1
  density       0        0        1
  DFT-fine    -11        1        4
  DFT-med.    -10        2        4
  DFT-grad    -12        3        4
  DFT-der2     -8        4        4
  DFT-cphf     -9        5        4
  LMP2-enrg     0        0        1
  LMP2-grad     0        0        1
  DFT-cphf2   -15        6        4
  PBF-dens      0        0        1
  plotting      0        0        1
  
   
  number of gridpoints: 
     atom        C1       C2       C3       C4       C5       H6       H7
  grid # 1     4304     4304     4304     4304     4304     4304     4304
  grid # 2     1192     1192     1192     1192     1192     1192     1192
  grid # 3     5226     5226     5226     5226     5226     5226     5226
  grid # 4    12650    12650    12650    12650    12650    13718    13718
  grid # 5      688      688      688      688      688      744      744
  grid # 6      358      358      358      358      358      382      382
   
  number of gridpoints: 
     atom        H8       C9      C10      H11      H12      H13      C14
  grid # 1     4304     4304     4304     4304     4304     4304     4304
  grid # 2     1192     1192     1192     1192     1192     1192     1192
  grid # 3     5226     5226     5226     5226     5226     5226     5226
  grid # 4    13718    12650    12650    13718    13718    13718    12650
  grid # 5      744      688      688      744      744      744      688
  grid # 6      382      358      358      382      382      382      358
   
  number of gridpoints: 
     atom       H15      C16      H17      H18      C19      H20    total
  grid # 1     4304     4304     4304     4304     4304     4304    86080
  grid # 2     1192     1192     1192     1192     1192     1192    23840
  grid # 3     5226     5226     5226     5226     5226     5226   104520
  grid # 4    13718    12650    13718    13718    12650    13718   263680
  grid # 5      744      688      744      744      688      744    14320
  grid # 6      382      358      382      382      358      382     7400
   
  Peak memory usage:    602 Mb
  
  end of program grid
   
 Time(grid)  user:        3.0  user+sys:        3.0  wallclock:        3.6
  
  start of program der2b
  
  Peak memory usage:    778 Mb
  
  end of program der2b
   
 Time(der2b)  user:       18.0  user+sys:       18.0  wallclock:       19.0
  
  start of program der2nda
  
 
  Peak memory usage:    621 Mb
  
  end of program der2nda
   
 Time(der2nda)  user:        0.0  user+sys:        0.0  wallclock:        0.2
  
  start of program der2ndb
  
  Peak memory usage:    593 Mb
  
  end of program der2ndb
   
 Time(der2ndb)  user:       45.0  user+sys:       45.0  wallclock:       46.1
  
  start of program cphfa
  
       1  vectors produced in CPHF
  
     v    i  j  k  i  g
     e    t  c  c  c  r
     c    e  o  o  u  i
     t    r  r  r  t  d       RMS  
  
     1    1  5  2  0  N     2.5E-02
     1    2  5  2  0  N     1.2E-03
     1    3  5  2  0  N     3.8E-04
     1    4  5  2  0  N     1.6E-04
     1    5  5  2  0  N     3.3E-05
  
  
  Atomic Polar Tensors (au): Total
  =========================
  
  APT for atom C1      
  --------------------------------------
        0.1742       0.1088       0.0000
        0.0367      -0.1377       0.0000
        0.0000       0.0000       0.0275
  --------------------------------------
  
  APT for atom C2      
  --------------------------------------
       -0.0440      -0.1000       0.0000
       -0.1109      -0.1117       0.0000
        0.0000       0.0000      -0.0831
  --------------------------------------
  
  APT for atom C3      
  --------------------------------------
       -0.2114       0.0014       0.0000
       -0.0059       0.0534       0.0000
        0.0000       0.0000      -0.0908
  --------------------------------------
  
  APT for atom C4      
  --------------------------------------
        0.1742       0.1088       0.0000
        0.0367      -0.1377       0.0000
        0.0000       0.0000       0.0275
  --------------------------------------
  
  APT for atom C5      
  --------------------------------------
       -0.0440      -0.1000       0.0000
       -0.1109      -0.1117       0.0000
        0.0000       0.0000      -0.0831
  --------------------------------------
  
  APT for atom H6      
  --------------------------------------
        0.0318       0.0009       0.0000
       -0.0004       0.0658       0.0000
        0.0000       0.0000       0.0792
  --------------------------------------
  
  APT for atom H7      
  --------------------------------------
        0.0482      -0.0162       0.0000
       -0.0230       0.0477       0.0000
        0.0000       0.0000       0.0776
  --------------------------------------
  
  APT for atom H8      
  --------------------------------------
        0.0318       0.0009       0.0000
       -0.0004       0.0658       0.0000
        0.0000       0.0000       0.0792
  --------------------------------------
  
  APT for atom C9      
  --------------------------------------
        0.0702       0.0438       0.0000
        0.3621       0.1238       0.0000
        0.0000       0.0000      -0.0786
  --------------------------------------
  
  APT for atom C10     
  --------------------------------------
       -0.2320      -0.0204       0.0000
       -0.1207      -0.0646       0.0000
        0.0000       0.0000      -0.2049
  --------------------------------------
  
  APT for atom H11     
  --------------------------------------
        0.0716      -0.0090       0.0000
       -0.1442      -0.0179       0.0000
        0.0000       0.0000       0.0986
  --------------------------------------
  
  APT for atom H12     
  --------------------------------------
       -0.0113       0.0086       0.0000
       -0.0757       0.0015       0.0000
        0.0000       0.0000       0.0803
  --------------------------------------
  
  APT for atom H13     
  --------------------------------------
        0.1027      -0.0178       0.0000
        0.0820       0.0399       0.0000
        0.0000       0.0000       0.0943
  --------------------------------------
  
  APT for atom C14     
  --------------------------------------
        0.0702       0.0438       0.0000
        0.3621       0.1238       0.0000
        0.0000       0.0000      -0.0786
  --------------------------------------
  
  APT for atom H15     
  --------------------------------------
       -0.0113       0.0086       0.0000
       -0.0757       0.0015       0.0000
        0.0000       0.0000       0.0803
  --------------------------------------
  
  APT for atom C16     
  --------------------------------------
       -0.2320      -0.0204       0.0000
       -0.1207      -0.0646       0.0000
        0.0000       0.0000      -0.2049
  --------------------------------------
  
  APT for atom H17     
  --------------------------------------
        0.0716      -0.0090       0.0000
       -0.1442      -0.0179       0.0000
        0.0000       0.0000       0.0986
  --------------------------------------
  
  APT for atom H18     
  --------------------------------------
        0.1027      -0.0178       0.0000
        0.0820       0.0399       0.0000
        0.0000       0.0000       0.0943
  --------------------------------------
  
  APT for atom C19     
  --------------------------------------
       -0.2114       0.0014       0.0000
       -0.0059       0.0534       0.0000
        0.0000       0.0000      -0.0908
  --------------------------------------
  
  APT for atom H20     
  --------------------------------------
        0.0482      -0.0162       0.0000
       -0.0230       0.0477       0.0000
        0.0000       0.0000       0.0776
  --------------------------------------
  
  Peak memory usage:    729 Mb
  
  end of program cphfa
   
 Time(cphfa)  user:      236.0  user+sys:      236.0  wallclock:      240.8
  
  start of program freq
  
   
  harmonic frequencies in cm**-1, reduced masses in amu,
  force constants in mDyne/A, and
  normal modes in cartesian coordinates:
  IR intensities in km/mol
  
  frequencies        53.46    85.47   149.83   179.44   263.51   298.87
  symmetries       Au       Bg       Au       Bu       Ag       Bg      
  intensities         0.03     0.00     0.37     0.27     0.00     0.00
  reduc. mass         1.90     0.69     1.00     1.42     1.20     0.90
  force const         0.00     0.00     0.01     0.03     0.05     0.05
    C1       X     0.00000  0.00000  0.00000 -0.00811  0.04434  0.00000
    C1       Y     0.00000  0.00000  0.00000  0.05716 -0.05601  0.00000
    C1       Z    -0.04488 -0.05386 -0.02061  0.00000  0.00000 -0.11874
    C2       X     0.00000  0.00000  0.00000 -0.01321 -0.02113  0.00000
    C2       Y     0.00000  0.00000  0.00000  0.05982 -0.05469  0.00000
    C2       Z    -0.05404 -0.08368 -0.06476  0.00000  0.00000 -0.06433
    C3       X     0.00000  0.00000  0.00000 -0.00678 -0.06376  0.00000
    C3       Y     0.00000  0.00000  0.00000  0.06303  0.01603  0.00000
    C3       Z    -0.05810 -0.02661 -0.05561  0.00000  0.00000  0.07795
    C4       X     0.00000  0.00000  0.00000 -0.00811 -0.04434  0.00000
    C4       Y     0.00000  0.00000  0.00000  0.05716  0.05601  0.00000
    C4       Z    -0.04489  0.05386 -0.02061  0.00000  0.00000  0.11874
    C5       X     0.00000  0.00000  0.00000 -0.01321  0.02113  0.00000
    C5       Y     0.00000  0.00000  0.00000  0.05982  0.05469  0.00000
    C5       Z    -0.05405  0.08367 -0.06476  0.00000  0.00000  0.06433
    H6       X     0.00000  0.00000  0.00000 -0.01627 -0.05100  0.00000
    H6       Y     0.00000  0.00000  0.00000  0.05727 -0.10439  0.00000
    H6       Z    -0.05799 -0.15720 -0.05645  0.00000  0.00000 -0.08356
    H7       X     0.00000  0.00000  0.00000 -0.00673 -0.11567  0.00000
    H7       Y     0.00000  0.00000  0.00000  0.06351  0.01737  0.00000
    H7       Z    -0.06267 -0.05299 -0.04228  0.00000  0.00000  0.11883
    H8       X     0.00000  0.00000  0.00000 -0.01627  0.05100  0.00000
    H8       Y     0.00000  0.00000  0.00000  0.05727  0.10439  0.00000
    H8       Z    -0.05800  0.15720 -0.05646  0.00000  0.00000  0.08356
    C9       X     0.00000  0.00000  0.00000  0.03693 -0.03208  0.00000
    C9       Y     0.00000  0.00000  0.00000 -0.01961  0.02137  0.00000
    C9       Z    -0.01159  0.08804  0.12558  0.00000  0.00000 -0.03488
    C10      X     0.00000  0.00000  0.00000 -0.01222 -0.08458  0.00000
    C10      Y     0.00000  0.00000  0.00000 -0.13764 -0.09886  0.00000
    C10      Z     0.15105 -0.09299  0.00224  0.00000  0.00000 -0.02109
    H11      X     0.00000  0.00000  0.00000 -0.11626 -0.20098  0.00000
    H11      Y     0.00000  0.00000  0.00000 -0.15440 -0.11710  0.00000
    H11      Z     0.27199 -0.28286 -0.24799  0.00000  0.00000  0.20755
    H12      X     0.00000  0.00000  0.00000  0.12839  0.04171  0.00000
    H12      Y     0.00000  0.00000  0.00000 -0.01052  0.02822  0.00000
    H12      Z    -0.11423  0.25127  0.35963  0.00000  0.00000 -0.25901
    H13      X     0.00000  0.00000  0.00000  0.05133 -0.01367  0.00000
    H13      Y     0.00000  0.00000  0.00000 -0.22692 -0.19929  0.00000
    H13      Z     0.17210 -0.06204  0.14377  0.00000  0.00000 -0.23573
    C14      X     0.00000  0.00000  0.00000  0.03693  0.03208  0.00000
    C14      Y     0.00000  0.00000  0.00000 -0.01961 -0.02137  0.00000
    C14      Z    -0.01158 -0.08804  0.12558  0.00000  0.00000  0.03488
    H15      X     0.00000  0.00000  0.00000  0.12839 -0.04172  0.00000
    H15      Y     0.00000  0.00000  0.00000 -0.01052 -0.02822  0.00000
    H15      Z    -0.11421 -0.25127  0.35963  0.00000  0.00000  0.25901
    C16      X     0.00000  0.00000  0.00000 -0.01222  0.08458  0.00000
    C16      Y     0.00000  0.00000  0.00000 -0.13764  0.09886  0.00000
    C16      Z     0.15104  0.09301  0.00224  0.00000  0.00000  0.02109
    H17      X     0.00000  0.00000  0.00000 -0.11626  0.20098  0.00000
    H17      Y     0.00000  0.00000  0.00000 -0.15439  0.11710  0.00000
    H17      Z     0.27197  0.28288 -0.24799  0.00000  0.00000 -0.20755
    H18      X     0.00000  0.00000  0.00000  0.05133  0.01367  0.00000
    H18      Y     0.00000  0.00000  0.00000 -0.22692  0.19929  0.00000
    H18      Z     0.17210  0.06206  0.14377  0.00000  0.00000  0.23573
    C19      X     0.00000  0.00000  0.00000 -0.00678  0.06376  0.00000
    C19      Y     0.00000  0.00000  0.00000  0.06303 -0.01603  0.00000
    C19      Z    -0.05810  0.02661 -0.05561  0.00000  0.00000 -0.07795
    H20      X     0.00000  0.00000  0.00000 -0.00673  0.11567  0.00000
    H20      Y     0.00000  0.00000  0.00000  0.06351 -0.01737  0.00000
    H20      Z    -0.06268  0.05299 -0.04228  0.00000  0.00000 -0.11883
  
  frequencies       407.65   424.37   468.00   486.78   578.54   656.39
  symmetries       Ag       Au       Au       Bu       Ag       Bg      
  intensities         0.00     0.10     5.80     1.90     0.00     0.00
  reduc. mass         1.16     1.60     1.13     0.90     1.00     0.64
  force const         0.11     0.17     0.15     0.13     0.20     0.16
    C1       X    -0.03779  0.00000  0.00000 -0.03887  0.07774  0.00000
    C1       Y    -0.07849  0.00000  0.00000  0.01132 -0.01380  0.00000
    C1       Z     0.00000  0.01056 -0.13158  0.00000  0.00000 -0.02609
    C2       X    -0.00525  0.00000  0.00000 -0.06773 -0.00801  0.00000
    C2       Y    -0.07595  0.00000  0.00000  0.02248 -0.01730  0.00000
    C2       Z     0.00000 -0.12503  0.04083  0.00000  0.00000  0.07891
    C3       X    -0.02345  0.00000  0.00000 -0.05866 -0.06163  0.00000
    C3       Y    -0.00509  0.00000  0.00000  0.02440  0.06277  0.00000
    C3       Z     0.00000  0.12098  0.06200  0.00000  0.00000 -0.08224
    C4       X     0.03779  0.00000  0.00000 -0.03887 -0.07774  0.00000
    C4       Y     0.07849  0.00000  0.00000  0.01132  0.01380  0.00000
    C4       Z     0.00000  0.01056 -0.13158  0.00000  0.00000  0.02609
    C5       X     0.00525  0.00000  0.00000 -0.06773  0.00801  0.00000
    C5       Y     0.07595  0.00000  0.00000  0.02248  0.01730  0.00000
    C5       Z     0.00000 -0.12503  0.04083  0.00000  0.00000 -0.07891
    H6       X    -0.00843  0.00000  0.00000 -0.06704 -0.07502  0.00000
    H6       Y    -0.07957  0.00000  0.00000  0.02391 -0.12349  0.00000
    H6       Z     0.00000 -0.28009  0.18977  0.00000  0.00000  0.13351
    H7       X    -0.12132  0.00000  0.00000 -0.06609 -0.07583  0.00000
    H7       Y    -0.00088  0.00000  0.00000  0.02626  0.06383  0.00000
    H7       Z     0.00000  0.23278  0.22560  0.00000  0.00000 -0.11254
    H8       X     0.00843  0.00000  0.00000 -0.06704  0.07502  0.00000
    H8       Y     0.07957  0.00000  0.00000  0.02391  0.12349  0.00000
    H8       Z     0.00000 -0.28009  0.18977  0.00000  0.00000 -0.13351
    C9       X     0.10546  0.00000  0.00000  0.04461 -0.02023  0.00000
    C9       Y     0.03282  0.00000  0.00000 -0.08780 -0.11467  0.00000
    C9       Z     0.00000 -0.00264 -0.04409  0.00000  0.00000  0.09718
    C10      X     0.09854  0.00000  0.00000  0.10308  0.03695  0.00000
    C10      Y    -0.00806  0.00000  0.00000  0.01583 -0.00133  0.00000
    C10      Z     0.00000  0.00096  0.01869  0.00000  0.00000 -0.01616
    H11      X     0.07496  0.00000  0.00000  0.27581  0.25591  0.00000
    H11      Y    -0.01285  0.00000  0.00000  0.04281  0.03438  0.00000
    H11      Z     0.00000  0.02881 -0.16228  0.00000  0.00000  0.20695
    H12      X     0.15825  0.00000  0.00000  0.06048  0.00695  0.00000
    H12      Y     0.04004  0.00000  0.00000 -0.08431 -0.11179  0.00000
    H12      Z     0.00000 -0.01399  0.13607  0.00000  0.00000 -0.12951
    H13      X     0.11710  0.00000  0.00000  0.00607 -0.08676  0.00000
    H13      Y    -0.03191  0.00000  0.00000  0.15518  0.17396  0.00000
    H13      Z     0.00000 -0.02497  0.25554  0.00000  0.00000 -0.35734
    C14      X    -0.10546  0.00000  0.00000  0.04461  0.02023  0.00000
    C14      Y    -0.03282  0.00000  0.00000 -0.08780  0.11467  0.00000
    C14      Z     0.00000 -0.00264 -0.04409  0.00000  0.00000 -0.09718
    H15      X    -0.15825  0.00000  0.00000  0.06048 -0.00695  0.00000
    H15      Y    -0.04004  0.00000  0.00000 -0.08431  0.11179  0.00000
    H15      Z     0.00000 -0.01399  0.13607  0.00000  0.00000  0.12951
    C16      X    -0.09854  0.00000  0.00000  0.10308 -0.03695  0.00000
    C16      Y     0.00806  0.00000  0.00000  0.01583  0.00133  0.00000
    C16      Z     0.00000  0.00096  0.01869  0.00000  0.00000  0.01616
    H17      X    -0.07496  0.00000  0.00000  0.27581 -0.25591  0.00000
    H17      Y     0.01285  0.00000  0.00000  0.04281 -0.03438  0.00000
    H17      Z     0.00000  0.02881 -0.16228  0.00000  0.00000 -0.20695
    H18      X    -0.11710  0.00000  0.00000  0.00607  0.08676  0.00000
    H18      Y     0.03191  0.00000  0.00000  0.15518 -0.17396  0.00000
    H18      Z     0.00000 -0.02497  0.25554  0.00000  0.00000  0.35734
    C19      X     0.02345  0.00000  0.00000 -0.05866  0.06163  0.00000
    C19      Y     0.00509  0.00000  0.00000  0.02440 -0.06277  0.00000
    C19      Z     0.00000  0.12098  0.06200  0.00000  0.00000  0.08224
    H20      X     0.12132  0.00000  0.00000 -0.06609  0.07583  0.00000
    H20      Y     0.00088  0.00000  0.00000  0.02626 -0.06383  0.00000
    H20      Z     0.00000  0.23278  0.22560  0.00000  0.00000  0.11254
  
  frequencies       673.71   706.50   735.18   810.36   862.76   895.38
  symmetries       Ag       Au       Bu       Bg       Ag       Bg      
  intensities         0.00     0.44     4.35     0.00     0.00     0.00
  reduc. mass         2.31     0.43     1.16     1.60     1.48     0.29
  force const         0.62     0.13     0.37     0.62     0.65     0.14
    C1       X    -0.01278  0.00000  0.00907  0.00000 -0.03208  0.00000
    C1       Y     0.03825  0.00000  0.00454  0.00000 -0.01872  0.00000
    C1       Z     0.00000 -0.07027  0.00000  0.14294  0.00000  0.00067
    C2       X    -0.13606  0.00000 -0.06530  0.00000  0.06970  0.00000
    C2       Y     0.01961  0.00000 -0.03676  0.00000 -0.10044  0.00000
    C2       Z     0.00000 -0.01628  0.00000 -0.05778  0.00000 -0.06924
    C3       X    -0.06501  0.00000 -0.05906  0.00000  0.03528  0.00000
    C3       Y    -0.11557  0.00000 -0.06024  0.00000 -0.11085  0.00000
    C3       Z     0.00000 -0.01285  0.00000  0.05822  0.00000 -0.06480
    C4       X     0.01278  0.00000  0.00907  0.00000  0.03208  0.00000
    C4       Y    -0.03825  0.00000  0.00454  0.00000  0.01872  0.00000
    C4       Z     0.00000 -0.07027  0.00000 -0.14294  0.00000 -0.00068
    C5       X     0.13606  0.00000 -0.06530  0.00000 -0.06970  0.00000
    C5       Y    -0.01961  0.00000 -0.03676  0.00000  0.10044  0.00000
    C5       Z     0.00000 -0.01628  0.00000  0.05778  0.00000  0.06924
    H6       X    -0.11707  0.00000 -0.09091  0.00000  0.11834  0.00000
    H6       Y     0.04985  0.00000 -0.08082  0.00000 -0.03749  0.00000
    H6       Z     0.00000  0.25127  0.00000 -0.15132  0.00000  0.44570
    H7       X    -0.02034  0.00000 -0.11277  0.00000 -0.06510  0.00000
    H7       Y    -0.11740  0.00000 -0.05849  0.00000 -0.11490  0.00000
    H7       Z     0.00000  0.25643  0.00000  0.15813  0.00000  0.43573
    H8       X     0.11707  0.00000 -0.09091  0.00000 -0.11834  0.00000
    H8       Y    -0.04985  0.00000 -0.08082  0.00000  0.03749  0.00000
    H8       Z     0.00000  0.25127  0.00000  0.15132  0.00000 -0.44574
    C9       X     0.00270  0.00000  0.07404  0.00000 -0.03726  0.00000
    C9       Y    -0.02097  0.00000  0.10088  0.00000 -0.05150  0.00000
    C9       Z     0.00000  0.09561  0.00000  0.06736  0.00000 -0.00001
    C10      X     0.01285  0.00000  0.04993  0.00000 -0.03408  0.00000
    C10      Y    -0.01167  0.00000  0.00995  0.00000 -0.01034  0.00000
    C10      Z     0.00000 -0.01385  0.00000 -0.00609  0.00000 -0.00158
    H11      X     0.04901  0.00000 -0.14821  0.00000  0.10088  0.00000
    H11      Y    -0.00565  0.00000 -0.02445  0.00000  0.01281  0.00000
    H11      Z     0.00000  0.20718  0.00000  0.11371  0.00000 -0.01142
    H12      X     0.00689  0.00000  0.07506  0.00000 -0.03792  0.00000
    H12      Y    -0.02055  0.00000  0.10522  0.00000 -0.05514  0.00000
    H12      Z     0.00000 -0.14788  0.00000 -0.08715  0.00000  0.00092
    H13      X    -0.00438  0.00000  0.17344  0.00000 -0.12650  0.00000
    H13      Y     0.01299  0.00000 -0.16031  0.00000  0.11705  0.00000
    H13      Z     0.00000 -0.35692  0.00000 -0.22324  0.00000  0.01810
    C14      X    -0.00270  0.00000  0.07404  0.00000  0.03726  0.00000
    C14      Y     0.02097  0.00000  0.10088  0.00000  0.05150  0.00000
    C14      Z     0.00000  0.09561  0.00000 -0.06736  0.00000  0.00001
    H15      X    -0.00689  0.00000  0.07506  0.00000  0.03792  0.00000
    H15      Y     0.02055  0.00000  0.10522  0.00000  0.05514  0.00000
    H15      Z     0.00000 -0.14788  0.00000  0.08715  0.00000 -0.00092
    C16      X    -0.01285  0.00000  0.04993  0.00000  0.03408  0.00000
    C16      Y     0.01167  0.00000  0.00995  0.00000  0.01034  0.00000
    C16      Z     0.00000 -0.01385  0.00000  0.00609  0.00000  0.00158
    H17      X    -0.04900  0.00000 -0.14821  0.00000 -0.10088  0.00000
    H17      Y     0.00565  0.00000 -0.02445  0.00000 -0.01281  0.00000
    H17      Z     0.00000  0.20718  0.00000 -0.11371  0.00000  0.01143
    H18      X     0.00438  0.00000  0.17344  0.00000  0.12650  0.00000
    H18      Y    -0.01299  0.00000 -0.16031  0.00000 -0.11705  0.00000
    H18      Z     0.00000 -0.35692  0.00000  0.22324  0.00000 -0.01812
    C19      X     0.06501  0.00000 -0.05906  0.00000 -0.03528  0.00000
    C19      Y     0.11557  0.00000 -0.06024  0.00000  0.11085  0.00000
    C19      Z     0.00000 -0.01285  0.00000 -0.05822  0.00000  0.06481
    H20      X     0.02034  0.00000 -0.11277  0.00000  0.06510  0.00000
    H20      Y     0.11740  0.00000 -0.05849  0.00000  0.11490  0.00000
    H20      Z     0.00000  0.25643  0.00000 -0.15813  0.00000 -0.43577
  
  frequencies       897.42   980.12   980.23  1019.68  1038.22  1073.61
  symmetries       Au       Bg       Au       Bg       Au       Bu      
  intensities        26.34     0.00    36.29     0.00     0.02     0.59
  reduc. mass         0.46     0.52     0.52     0.28     0.35     1.44
  force const         0.22     0.30     0.30     0.17     0.22     0.98
    C1       X     0.00000  0.00000  0.00000  0.00000  0.00000 -0.02183
    C1       Y     0.00000  0.00000  0.00000  0.00000  0.00000 -0.01738
    C1       Z    -0.09567 -0.00359  0.00484  0.01770 -0.00036  0.00000
    C2       X     0.00000  0.00000  0.00000  0.00000  0.00000  0.06795
    C2       Y     0.00000  0.00000  0.00000  0.00000  0.00000 -0.09218
    C2       Z     0.06175 -0.00095 -0.00347 -0.06532 -0.07392  0.00000
    C3       X     0.00000  0.00000  0.00000  0.00000  0.00000 -0.03875
    C3       Y     0.00000  0.00000  0.00000  0.00000  0.00000  0.11812
    C3       Z     0.05686  0.00010  0.00016  0.06627  0.07499  0.00000
    C4       X     0.00000  0.00000  0.00000  0.00000  0.00000 -0.02183
    C4       Y     0.00000  0.00000  0.00000  0.00000  0.00000 -0.01738
    C4       Z    -0.09567  0.00360  0.00483 -0.01770 -0.00036  0.00000
    C5       X     0.00000  0.00000  0.00000  0.00000  0.00000  0.06795
    C5       Y     0.00000  0.00000  0.00000  0.00000  0.00000 -0.09218
    C5       Z     0.06175  0.00094 -0.00347  0.06532 -0.07392  0.00000
    H6       X     0.00000  0.00000  0.00000  0.00000  0.00000 -0.03496
    H6       Y     0.00000  0.00000  0.00000  0.00000  0.00000 -0.26247
    H6       Z    -0.35741  0.01108  0.01857  0.43203  0.41977  0.00000
    H7       X     0.00000  0.00000  0.00000  0.00000  0.00000 -0.20437
    H7       Y     0.00000  0.00000  0.00000  0.00000  0.00000  0.12868
    H7       Z    -0.35273 -0.00224 -0.00461 -0.44679 -0.43293  0.00000
    H8       X     0.00000  0.00000  0.00000  0.00000  0.00000 -0.03496
    H8       Y     0.00000  0.00000  0.00000  0.00000  0.00000 -0.26247
    H8       Z    -0.35736 -0.01103  0.01860 -0.43203  0.41977  0.00000
    C9       X     0.00000  0.00000  0.00000  0.00000  0.00000 -0.00045
    C9       Y     0.00000  0.00000  0.00000  0.00000  0.00000 -0.00443
    C9       Z     0.04751 -0.03587 -0.03637  0.00968  0.00040  0.00000
    C10      X     0.00000  0.00000  0.00000  0.00000  0.00000  0.01528
    C10      Y     0.00000  0.00000  0.00000  0.00000  0.00000  0.01276
    C10      Z    -0.00124  0.10305  0.10278 -0.00165 -0.00231  0.00000
    H11      X     0.00000  0.00000  0.00000  0.00000  0.00000 -0.06598
    H11      Y     0.00000  0.00000  0.00000  0.00000  0.00000 -0.00130
    H11      Z     0.05615 -0.42458 -0.42348  0.02644  0.01876  0.00000
    H12      X     0.00000  0.00000  0.00000  0.00000  0.00000 -0.02694
    H12      Y     0.00000  0.00000  0.00000  0.00000  0.00000 -0.00647
    H12      Z    -0.02752  0.01618  0.01632  0.02130  0.00376  0.00000
    H13      X     0.00000  0.00000  0.00000  0.00000  0.00000  0.06803
    H13      Y     0.00000  0.00000  0.00000  0.00000  0.00000 -0.05964
    H13      Z    -0.14253 -0.41816 -0.41579 -0.02678  0.00500  0.00000
    C14      X     0.00000  0.00000  0.00000  0.00000  0.00000 -0.00045
    C14      Y     0.00000  0.00000  0.00000  0.00000  0.00000 -0.00443
    C14      Z     0.04751  0.03577 -0.03646 -0.00968  0.00040  0.00000
    H15      X     0.00000  0.00000  0.00000  0.00000  0.00000 -0.02694
    H15      Y     0.00000  0.00000  0.00000  0.00000  0.00000 -0.00647
    H15      Z    -0.02752 -0.01613  0.01636 -0.02130  0.00376  0.00000
    C16      X     0.00000  0.00000  0.00000  0.00000  0.00000  0.01528
    C16      Y     0.00000  0.00000  0.00000  0.00000  0.00000  0.01276
    C16      Z    -0.00124 -0.10278  0.10305  0.00165 -0.00231  0.00000
    H17      X     0.00000  0.00000  0.00000  0.00000  0.00000 -0.06598
    H17      Y     0.00000  0.00000  0.00000  0.00000  0.00000 -0.00130
    H17      Z     0.05615  0.42344 -0.42462 -0.02644  0.01876  0.00000
    H18      X     0.00000  0.00000  0.00000  0.00000  0.00000  0.06804
    H18      Y     0.00000  0.00000  0.00000  0.00000  0.00000 -0.05964
    H18      Z    -0.14253  0.41704 -0.41691  0.02678  0.00500  0.00000
    C19      X     0.00000  0.00000  0.00000  0.00000  0.00000 -0.03875
    C19      Y     0.00000  0.00000  0.00000  0.00000  0.00000  0.11812
    C19      Z     0.05685 -0.00010  0.00016 -0.06627  0.07499  0.00000
    H20      X     0.00000  0.00000  0.00000  0.00000  0.00000 -0.20437
    H20      Y     0.00000  0.00000  0.00000  0.00000  0.00000  0.12868
    H20      Z    -0.35268  0.00223 -0.00462  0.44679 -0.43293  0.00000
  
  frequencies      1101.57  1106.08  1106.24  1109.93  1204.95  1262.91
  symmetries       Bu       Au       Bg       Ag       Bu       Ag      
  intensities         8.96    13.29     0.00     0.00     1.47     0.00
  reduc. mass         0.23     0.26     0.26     0.28     0.29     0.24
  force const         0.16     0.18     0.18     0.20     0.25     0.22
    C1       X    -0.00831  0.00000  0.00000  0.04418 -0.05029 -0.06219
    C1       Y    -0.05171  0.00000  0.00000  0.03475  0.01447 -0.02461
    C1       Z     0.00000  0.00082  0.00183  0.00000  0.00000  0.00000
    C2       X    -0.02214  0.00000  0.00000  0.02990  0.07304 -0.00278
    C2       Y     0.04599  0.00000  0.00000 -0.03210  0.00610  0.03196
    C2       Z     0.00000 -0.00317 -0.00213  0.00000  0.00000  0.00000
    C3       X     0.01246  0.00000  0.00000 -0.01961 -0.03558 -0.03386
    C3       Y     0.02307  0.00000  0.00000 -0.02766 -0.04045  0.02783
    C3       Z     0.00000  0.00306 -0.00264  0.00000  0.00000  0.00000
    C4       X    -0.00831  0.00000  0.00000 -0.04418 -0.05029  0.06219
    C4       Y    -0.05171  0.00000  0.00000 -0.03475  0.01447  0.02461
    C4       Z     0.00000  0.00082 -0.00183  0.00000  0.00000  0.00000
    C5       X    -0.02214  0.00000  0.00000 -0.02990  0.07304  0.00278
    C5       Y     0.04599  0.00000  0.00000  0.03210  0.00610 -0.03196
    C5       Z     0.00000 -0.00317  0.00213  0.00000  0.00000  0.00000
    H6       X    -0.01980  0.00000  0.00000  0.00084  0.30715  0.19570
    H6       Y     0.06008  0.00000  0.00000 -0.08859  0.36166  0.34968
    H6       Z     0.00000 -0.00306 -0.01761  0.00000  0.00000  0.00000
    H7       X     0.18111  0.00000  0.00000 -0.04959 -0.33967 -0.46360
    H7       Y     0.02081  0.00000  0.00000 -0.03091 -0.04012  0.04440
    H7       Z     0.00000 -0.00515  0.02589  0.00000  0.00000  0.00000
    H8       X    -0.01980  0.00000  0.00000 -0.00084  0.30715 -0.19570
    H8       Y     0.06009  0.00000  0.00000  0.08859  0.36166 -0.34968
    H8       Z     0.00000 -0.00307  0.01761  0.00000  0.00000  0.00000
    C9       X    -0.01158  0.00000  0.00000 -0.00866 -0.00554 -0.01266
    C9       Y    -0.05202  0.00000  0.00000 -0.04912 -0.00967 -0.03087
    C9       Z     0.00000  0.05833 -0.05879  0.00000  0.00000  0.00000
    C10      X     0.04380  0.00000  0.00000  0.05654  0.01932 -0.00410
    C10      Y     0.05479  0.00000  0.00000  0.05593  0.01015  0.00727
    C10      Z     0.00000 -0.00449  0.00458  0.00000  0.00000  0.00000
    H11      X    -0.30258  0.00000  0.00000 -0.29902 -0.03955 -0.05779
    H11      Y    -0.00481  0.00000  0.00000 -0.00617 -0.00097 -0.00042
    H11      Z     0.00001 -0.31561  0.31439 -0.00001  0.00000  0.00000
    H12      X    -0.27956  0.00000  0.00000 -0.26168 -0.02411 -0.10399
    H12      Y    -0.08054  0.00000  0.00000 -0.07480 -0.01047 -0.04437
    H12      Z     0.00001 -0.55194  0.55109 -0.00002  0.00000  0.00000
    H13      X     0.25140  0.00000  0.00000  0.27947  0.08480 -0.00471
    H13      Y    -0.23495  0.00000  0.00000 -0.25311 -0.07924  0.00545
    H13      Z    -0.00001  0.22621 -0.22516  0.00001  0.00000  0.00000
    C14      X    -0.01158  0.00000  0.00000  0.00866 -0.00554  0.01266
    C14      Y    -0.05202  0.00000  0.00000  0.04912 -0.00967  0.03087
    C14      Z     0.00000  0.05829  0.05883  0.00000  0.00000  0.00000
    H15      X    -0.27956 -0.00001  0.00001  0.26169 -0.02411  0.10399
    H15      Y    -0.08054  0.00000  0.00000  0.07480 -0.01047  0.04437
    H15      Z     0.00000 -0.55158 -0.55145  0.00000  0.00000  0.00000
    C16      X     0.04380  0.00000  0.00000 -0.05654  0.01932  0.00410
    C16      Y     0.05479  0.00000  0.00000 -0.05593  0.01015 -0.00727
    C16      Z     0.00000 -0.00448 -0.00458  0.00000  0.00000  0.00000
    H17      X    -0.30257 -0.00001  0.00001  0.29903 -0.03955  0.05779
    H17      Y    -0.00481  0.00000  0.00000  0.00617 -0.00097  0.00042
    H17      Z     0.00000 -0.31541 -0.31459  0.00000  0.00000  0.00000
    H18      X     0.25139  0.00001 -0.00001 -0.27947  0.08480  0.00472
    H18      Y    -0.23495 -0.00001  0.00001  0.25312 -0.07924 -0.00545
    H18      Z     0.00000  0.22606  0.22530  0.00000  0.00000  0.00000
    C19      X     0.01246  0.00000  0.00000  0.01961 -0.03558  0.03386
    C19      Y     0.02307  0.00000  0.00000  0.02766 -0.04045 -0.02783
    C19      Z     0.00000  0.00306  0.00264  0.00000  0.00000  0.00000
    H20      X     0.18111  0.00000  0.00000  0.04958 -0.33967  0.46360
    H20      Y     0.02081  0.00000  0.00000  0.03091 -0.04012 -0.04440
    H20      Z     0.00000 -0.00513 -0.02589  0.00000  0.00000  0.00000
  
  frequencies      1284.91  1296.29  1351.26  1398.64  1420.76  1426.93
  symmetries       Bu       Ag       Bu       Ag       Bu       Ag      
  intensities         0.08     0.00     9.51     0.00     8.24     0.00
  reduc. mass         1.28     1.12     1.45     0.26     0.32     0.19
  force const         1.25     1.11     1.56     0.30     0.38     0.23
    C1       X     0.13609  0.12155  0.00528 -0.01331  0.01687 -0.01636
    C1       Y     0.00138  0.03862 -0.12874  0.07561 -0.01669  0.04596
    C1       Z     0.00000  0.00000  0.00000  0.00000  0.00000  0.00000
    C2       X     0.00008  0.06525  0.04782  0.02820  0.01690  0.01071
    C2       Y     0.05839  0.02572  0.06428  0.02058  0.02335  0.01753
    C2       Z     0.00000  0.00000  0.00000  0.00000  0.00000  0.00000
    C3       X    -0.04698 -0.04210 -0.09446  0.01213 -0.02808  0.02121
    C3       Y    -0.01468 -0.05369  0.02471 -0.00186 -0.00927 -0.00407
    C3       Z     0.00000  0.00000  0.00000  0.00000  0.00000  0.00000
    C4       X     0.13609 -0.12155  0.00528  0.01331  0.01687  0.01636
    C4       Y     0.00138 -0.03862 -0.12874 -0.07561 -0.01669 -0.04596
    C4       Z     0.00000  0.00000  0.00000  0.00000  0.00000  0.00000
    C5       X     0.00008 -0.06525  0.04782 -0.02820  0.01690 -0.01071
    C5       Y     0.05839 -0.02572  0.06428 -0.02058  0.02335 -0.01753
    C5       Z     0.00000  0.00000  0.00000  0.00000  0.00000  0.00000
    H6       X    -0.09793  0.18557  0.04160 -0.16492 -0.01712 -0.13024
    H6       Y    -0.09667  0.19737  0.05817 -0.28977 -0.03174 -0.20645
    H6       Z     0.00000  0.00000  0.00000  0.00000  0.00000  0.00000
    H7       X    -0.34315 -0.09988  0.16961 -0.34251  0.01292 -0.25432
    H7       Y    -0.00299 -0.06488  0.01821  0.00839 -0.01228  0.00335
    H7       Z     0.00000  0.00000  0.00000  0.00000  0.00000  0.00000
    H8       X    -0.09793 -0.18557  0.04160  0.16492 -0.01712  0.13024
    H8       Y    -0.09667 -0.19737  0.05817  0.28977 -0.03173  0.20645
    H8       Z     0.00000  0.00000  0.00000  0.00000  0.00000  0.00000
    C9       X    -0.00673  0.01427  0.01674  0.00936  0.00947  0.01484
    C9       Y    -0.03230  0.05219  0.05498  0.06074 -0.06130 -0.04080
    C9       Z     0.00000  0.00000  0.00000  0.00000  0.00000  0.00000
    C10      X    -0.01984  0.01970 -0.00259  0.00788 -0.03273 -0.03341
    C10      Y    -0.00265 -0.01093 -0.02887 -0.04605  0.06355  0.05130
    C10      Z     0.00000  0.00000  0.00000  0.00000  0.00000  0.00000
    H11      X    -0.04491  0.09571  0.13149  0.20293 -0.28814 -0.22702
    H11      Y    -0.00456 -0.00142 -0.00896 -0.01936  0.03232  0.02882
    H11      Z     0.00000  0.00000  0.00000  0.00000  0.00000  0.00000
    H12      X    -0.20259  0.20988  0.02632 -0.25758  0.52416  0.46001
    H12      Y    -0.05939  0.08030  0.06090  0.03952 -0.01843 -0.00348
    H12      Z     0.00000  0.00000  0.00000  0.00000  0.00000  0.00000
    H13      X    -0.05707  0.01783 -0.04508 -0.02479 -0.02257 -0.02904
    H13      Y     0.04294 -0.00043  0.03399  0.00632  0.03447  0.03189
    H13      Z     0.00000  0.00000  0.00000  0.00000  0.00000  0.00000
    C14      X    -0.00673 -0.01427  0.01674 -0.00936  0.00947 -0.01484
    C14      Y    -0.03230 -0.05219  0.05498 -0.06074 -0.06130  0.04080
    C14      Z     0.00000  0.00000  0.00000  0.00000  0.00000  0.00000
    H15      X    -0.20259 -0.20987  0.02632  0.25758  0.52415 -0.46002
    H15      Y    -0.05939 -0.08030  0.06090 -0.03952 -0.01843  0.00348
    H15      Z     0.00000  0.00000  0.00000  0.00000  0.00000  0.00000
    C16      X    -0.01984 -0.01970 -0.00259 -0.00788 -0.03273  0.03342
    C16      Y    -0.00265  0.01093 -0.02887  0.04605  0.06355 -0.05130
    C16      Z     0.00000  0.00000  0.00000  0.00000  0.00000  0.00000
    H17      X    -0.04492 -0.09571  0.13149 -0.20292 -0.28814  0.22702
    H17      Y    -0.00456  0.00142 -0.00896  0.01936  0.03232 -0.02882
    H17      Z     0.00000  0.00000  0.00000  0.00000  0.00000  0.00000
    H18      X    -0.05707 -0.01782 -0.04508  0.02479 -0.02257  0.02904
    H18      Y     0.04294  0.00043  0.03399 -0.00632  0.03447 -0.03190
    H18      Z     0.00000  0.00000  0.00000  0.00000  0.00000  0.00000
    C19      X    -0.04698  0.04210 -0.09446 -0.01213 -0.02808 -0.02121
    C19      Y    -0.01468  0.05369  0.02471  0.00186 -0.00927  0.00407
    C19      Z     0.00000  0.00000  0.00000  0.00000  0.00000  0.00000
    H20      X    -0.34315  0.09988  0.16961  0.34251  0.01293  0.25432
    H20      Y    -0.00298  0.06488  0.01821 -0.00839 -0.01228 -0.00335
    H20      Z     0.00000  0.00000  0.00000  0.00000  0.00000  0.00000
  
  frequencies      1515.02  1565.43  1575.12  1641.37  1691.40  1740.01
  symmetries       Bu       Ag       Bu       Bu       Ag       Ag      
  intensities        18.85     0.00     0.55    15.07     0.00     0.00
  reduc. mass         0.78     0.34     0.23     0.85     1.65     1.71
  force const         1.05     0.49     0.34     1.35     2.78     3.05
    C1       X    -0.03043  0.01974 -0.03026  0.08813 -0.05702 -0.07382
    C1       Y     0.07877  0.02635  0.03121  0.05743  0.12179 -0.03281
    C1       Z     0.00000  0.00000  0.00000  0.00000  0.00000  0.00000
    C2       X     0.09041  0.00809  0.02832 -0.01721  0.00358  0.09041
    C2       Y     0.04176 -0.01263 -0.01194 -0.08293 -0.09296  0.07950
    C2       Z     0.00000  0.00000  0.00000  0.00000  0.00000  0.00000
    C3       X    -0.06037 -0.02673 -0.03280 -0.08611 -0.07626 -0.12176
    C3       Y    -0.06646  0.00247 -0.01186  0.02327  0.05257 -0.02641
    C3       Z     0.00000  0.00000  0.00000  0.00000  0.00000  0.00000
    C4       X    -0.03043 -0.01974 -0.03026  0.08813  0.05702  0.07382
    C4       Y     0.07877 -0.02635  0.03121  0.05743 -0.12179  0.03281
    C4       Z     0.00000  0.00000  0.00000  0.00000  0.00000  0.00000
    C5       X     0.09041 -0.00809  0.02832 -0.01721 -0.00358 -0.09041
    C5       Y     0.04176  0.01263 -0.01194 -0.08293  0.09296 -0.07950
    C5       Z     0.00000  0.00000  0.00000  0.00000  0.00000  0.00000
    H6       X    -0.10703  0.02728  0.03746  0.17969  0.12410 -0.04685
    H6       Y    -0.29304  0.01195 -0.00983  0.20876  0.07694 -0.14912
    H6       Z     0.00000  0.00000  0.00000  0.00000  0.00000  0.00000
    H7       X     0.17629  0.04502  0.13010  0.29361  0.12073  0.15429
    H7       Y    -0.08846  0.00024 -0.02042  0.02012  0.05672 -0.04062
    H7       Z     0.00000  0.00000  0.00000  0.00000  0.00000  0.00000
    H8       X    -0.10703 -0.02728  0.03746  0.17969 -0.12410  0.04685
    H8       Y    -0.29304 -0.01195 -0.00983  0.20876 -0.07694  0.14912
    H8       Z     0.00000  0.00000  0.00000  0.00000  0.00000  0.00000
    C9       X    -0.04167  0.08829  0.07361 -0.01609  0.01297 -0.02454
    C9       Y    -0.01359  0.00421 -0.00477 -0.01943  0.00771 -0.00257
    C9       Z     0.00000  0.00000  0.00000  0.00000  0.00000  0.00000
    C10      X     0.02202  0.00595  0.01599 -0.01508 -0.02977  0.01251
    C10      Y     0.00079 -0.01907 -0.01950  0.00863  0.00890 -0.00362
    C10      Z     0.00000  0.00000  0.00000  0.00000  0.00000  0.00000
    H11      X     0.09193 -0.35867 -0.35500  0.05221  0.09719 -0.02754
    H11      Y     0.00705 -0.06883 -0.07173  0.02029  0.03139 -0.01213
    H11      Z     0.00000  0.00000  0.00000  0.00000  0.00000  0.00000
    H12      X    -0.02883 -0.18073 -0.21512 -0.01388  0.07407  0.02426
    H12      Y    -0.00970 -0.02609 -0.03648 -0.02270  0.01148  0.00302
    H12      Z     0.00000  0.00000  0.00000  0.00000  0.00000  0.00000
    H13      X     0.10624 -0.27595 -0.25066  0.04041  0.02677 -0.00155
    H13      Y    -0.10731  0.35831  0.33923 -0.07138 -0.07399  0.01839
    H13      Z     0.00000  0.00000  0.00000  0.00000  0.00000  0.00000
    C14      X    -0.04167 -0.08829  0.07361 -0.01609 -0.01297  0.02454
    C14      Y    -0.01359 -0.00421 -0.00477 -0.01943 -0.00771  0.00257
    C14      Z     0.00000  0.00000  0.00000  0.00000  0.00000  0.00000
    H15      X    -0.02883  0.18073 -0.21512 -0.01388 -0.07408 -0.02426
    H15      Y    -0.00970  0.02609 -0.03648 -0.02270 -0.01148 -0.00302
    H15      Z     0.00000  0.00000  0.00000  0.00000  0.00000  0.00000
    C16      X     0.02202 -0.00595  0.01599 -0.01508  0.02977 -0.01251
    C16      Y     0.00079  0.01907 -0.01950  0.00863 -0.00890  0.00362
    C16      Z     0.00000  0.00000  0.00000  0.00000  0.00000  0.00000
    H17      X     0.09193  0.35867 -0.35499  0.05221 -0.09719  0.02754
    H17      Y     0.00705  0.06883 -0.07173  0.02029 -0.03139  0.01213
    H17      Z     0.00000  0.00000  0.00000  0.00000  0.00000  0.00000
    H18      X     0.10624  0.27595 -0.25066  0.04041 -0.02677  0.00155
    H18      Y    -0.10731 -0.35831  0.33922 -0.07138  0.07399 -0.01839
    H18      Z     0.00000  0.00000  0.00000  0.00000  0.00000  0.00000
    C19      X    -0.06037  0.02673 -0.03280 -0.08611  0.07626  0.12176
    C19      Y    -0.06646 -0.00247 -0.01186  0.02327 -0.05257  0.02641
    C19      Z     0.00000  0.00000  0.00000  0.00000  0.00000  0.00000
    H20      X     0.17629 -0.04502  0.13010  0.29361 -0.12073 -0.15429
    H20      Y    -0.08846 -0.00024 -0.02042  0.02012 -0.05672  0.04062
    H20      Z     0.00000  0.00000  0.00000  0.00000  0.00000  0.00000
  
  frequencies      1814.43  1815.31  3396.42  3397.14  3437.91  3437.95
  symmetries       Ag       Bu       Bu       Ag       Bu       Ag      
  intensities         0.00     1.50    98.39     0.00     4.45     0.00
  reduc. mass         1.73     1.89     0.22     0.22     0.41     0.41
  force const         3.35     3.68     1.47     1.48     2.84     2.85
    C1       X     0.01894  0.02819 -0.00001  0.00003 -0.00134  0.00134
    C1       Y    -0.02691 -0.00569  0.00019  0.00018 -0.00085  0.00083
    C1       Z     0.00000  0.00000  0.00000  0.00000  0.00000  0.00000
    C2       X     0.01401 -0.00968  0.00117  0.00085  0.00036  0.00096
    C2       Y     0.02910 -0.00325 -0.00086 -0.00079 -0.00073 -0.00046
    C2       Z     0.00000  0.00000  0.00000  0.00000  0.00000  0.00000
    C3       X    -0.01394  0.00361 -0.00017  0.00019  0.00004  0.00009
    C3       Y    -0.01601  0.00620  0.00079 -0.00022  0.00261  0.00300
    C3       Z     0.00000  0.00000  0.00000  0.00000  0.00000  0.00000
    C4       X    -0.01894  0.02819 -0.00001 -0.00003 -0.00134 -0.00134
    C4       Y     0.02691 -0.00569  0.00019 -0.00018 -0.00085 -0.00083
    C4       Z     0.00000  0.00000  0.00000  0.00000  0.00000  0.00000
    C5       X    -0.01401 -0.00968  0.00117 -0.00085  0.00036 -0.00096
    C5       Y    -0.02909 -0.00325 -0.00086  0.00079 -0.00073  0.00046
    C5       Z     0.00000  0.00000  0.00000  0.00000  0.00000  0.00000
    H6       X    -0.01398  0.00959 -0.01151 -0.00782 -0.00756 -0.00881
    H6       Y    -0.01250  0.03207  0.00792  0.00557  0.00507  0.00590
    H6       Z     0.00000  0.00000  0.00000  0.00000  0.00000  0.00000
    H7       X     0.01050 -0.00929  0.00005 -0.00008  0.00023 -0.00006
    H7       Y    -0.02031  0.00873 -0.00967  0.00192 -0.02982 -0.03472
    H7       Z     0.00000  0.00000  0.00000  0.00000  0.00000  0.00000
    H8       X     0.01398  0.00959 -0.01151  0.00782 -0.00757  0.00880
    H8       Y     0.01250  0.03207  0.00792 -0.00557  0.00508 -0.00589
    H8       Z     0.00000  0.00000  0.00000  0.00000  0.00000  0.00000
    C9       X     0.12603 -0.13053  0.00411 -0.00410 -0.00959 -0.00958
    C9       Y    -0.03323  0.03111  0.01181 -0.01169  0.05785  0.05798
    C9       Z     0.00000  0.00000  0.00000  0.00000  0.00000  0.00000
    C10      X    -0.11200  0.11395 -0.04362  0.04364  0.01326  0.01308
    C10      Y     0.04321 -0.04343  0.01729 -0.01726 -0.00986 -0.00984
    C10      Z     0.00000  0.00000  0.00000  0.00000  0.00000  0.00000
    H11      X     0.16529 -0.16936  0.07078 -0.07086 -0.01937 -0.01912
    H11      Y     0.10776 -0.10937 -0.45973  0.46015  0.13981  0.13824
    H11      Z     0.00000  0.00000  0.00000  0.00000  0.00000  0.00000
    H12      X    -0.12487  0.12150  0.01768 -0.01738  0.06545  0.06558
    H12      Y    -0.07500  0.07297 -0.16569  0.16363 -0.64659 -0.64792
    H12      Z     0.00000  0.00000  0.00000  0.00000  0.00000  0.00000
    H13      X     0.01988 -0.01843  0.38174 -0.38187 -0.07143 -0.06985
    H13      Y    -0.17384  0.17482  0.27931 -0.27953 -0.05218 -0.05101
    H13      Z     0.00000  0.00000  0.00000  0.00000  0.00000  0.00000
    C14      X    -0.12602 -0.13054  0.00411  0.00410 -0.00960  0.00957
    C14      Y     0.03322  0.03112  0.01180  0.01170  0.05794 -0.05789
    C14      Z     0.00000  0.00000  0.00000  0.00000  0.00000  0.00000
    H15      X     0.12486  0.12151  0.01767  0.01738  0.06554 -0.06549
    H15      Y     0.07500  0.07298 -0.16563 -0.16368 -0.64753  0.64699
    H15      Z     0.00000  0.00000  0.00000  0.00000  0.00000  0.00000
    C16      X     0.11199  0.11396 -0.04361 -0.04366  0.01328 -0.01307
    C16      Y    -0.04320 -0.04344  0.01729  0.01727 -0.00988  0.00983
    C16      Z     0.00000  0.00000  0.00000  0.00000  0.00000  0.00000
    H17      X    -0.16528 -0.16938  0.07076  0.07088 -0.01939  0.01909
    H17      Y    -0.10775 -0.10938 -0.45959 -0.46029  0.14000 -0.13804
    H17      Z     0.00000  0.00000  0.00000  0.00000  0.00000  0.00000
    H18      X    -0.01988 -0.01843  0.38162  0.38199 -0.07153  0.06975
    H18      Y     0.17383  0.17483  0.27922  0.27962 -0.05225  0.05094
    H18      Z     0.00000  0.00000  0.00000  0.00000  0.00000  0.00000
    C19      X     0.01394  0.00362 -0.00017 -0.00019  0.00005 -0.00009
    C19      Y     0.01601  0.00620  0.00079  0.00022  0.00262 -0.00300
    C19      Z     0.00000  0.00000  0.00000  0.00000  0.00000  0.00000
    H20      X    -0.01050 -0.00930  0.00005  0.00008  0.00023  0.00006
    H20      Y     0.02031  0.00873 -0.00967 -0.00192 -0.02988  0.03468
    H20      Z     0.00000  0.00000  0.00000  0.00000  0.00000  0.00000
  
  frequencies      3446.99  3450.51  3466.82  3469.76  3548.27  3548.28
  symmetries       Bu       Ag       Bu       Ag       Bu       Ag      
  intensities         0.78     0.00     5.90     0.00     0.00     0.00
  reduc. mass         0.30     0.30     0.30     0.30     0.27     0.27
  force const         2.07     2.08     2.10     2.12     1.99     1.99
    C1       X    -0.00230  0.00218  0.00143 -0.00170 -0.00035 -0.00036
    C1       Y     0.00000 -0.00213 -0.00358 -0.00188  0.00003  0.00004
    C1       Z     0.00000  0.00000  0.00000  0.00000  0.00000  0.00000
    C2       X    -0.02220 -0.02211 -0.04559 -0.04580 -0.00029 -0.00041
    C2       Y     0.01730  0.01671  0.02711  0.02749  0.00019  0.00024
    C2       Z     0.00000  0.00000  0.00000  0.00000  0.00000  0.00000
    C3       X    -0.00012 -0.00052  0.00364  0.00320  0.00003  0.00003
    C3       Y    -0.05184 -0.05198  0.03027  0.03037 -0.00003  0.00011
    C3       Z     0.00000  0.00000  0.00000  0.00000  0.00000  0.00000
    C4       X    -0.00230 -0.00218  0.00143  0.00170 -0.00035  0.00036
    C4       Y     0.00000  0.00213 -0.00358  0.00188  0.00003 -0.00004
    C4       Z     0.00000  0.00000  0.00000  0.00000  0.00000  0.00000
    C5       X    -0.02220  0.02211 -0.04559  0.04580 -0.00030  0.00041
    C5       Y     0.01730 -0.01671  0.02711 -0.02749  0.00019 -0.00024
    C5       Z     0.00000  0.00000  0.00000  0.00000  0.00000  0.00000
    H6       X     0.27630  0.27468  0.49603  0.49694  0.00430  0.00549
    H6       Y    -0.17738 -0.17540 -0.31444 -0.31539 -0.00314 -0.00385
    H6       Z     0.00000  0.00000  0.00000  0.00000  0.00000  0.00000
    H7       X     0.01613  0.01664 -0.01064 -0.00995  0.00010 -0.00004
    H7       Y     0.58761  0.58891 -0.32588 -0.32286 -0.00008 -0.00070
    H7       Z     0.00000  0.00000  0.00000  0.00000  0.00000  0.00000
    H8       X     0.27631 -0.27468  0.49603 -0.49694  0.00433 -0.00547
    H8       Y    -0.17738  0.17540 -0.31444  0.31539 -0.00315  0.00384
    H8       Z     0.00000  0.00000  0.00000  0.00000  0.00000  0.00000
    C9       X    -0.00054 -0.00042 -0.00011  0.00023 -0.00045  0.00045
    C9       Y     0.00301  0.00294 -0.00022 -0.00098  0.00336 -0.00335
    C9       Z     0.00000  0.00000  0.00000  0.00000  0.00000  0.00000
    C10      X    -0.00039  0.00103 -0.00080  0.00066  0.02616 -0.02605
    C10      Y    -0.00038 -0.00019 -0.00038  0.00060  0.06177 -0.06149
    C10      Z     0.00000  0.00000  0.00000  0.00000  0.00000  0.00000
    H11      X     0.00020 -0.00098  0.00028  0.00015  0.07637 -0.07603
    H11      Y    -0.00258  0.00784 -0.00386  0.00111 -0.46204  0.45998
    H11      Z     0.00000  0.00000  0.00000  0.00000  0.00000  0.00000
    H12      X     0.00457  0.00389 -0.00009 -0.00223  0.00576 -0.00574
    H12      Y    -0.03253 -0.03357  0.00510  0.00857 -0.03814  0.03807
    H12      Z     0.00000  0.00000  0.00000  0.00000  0.00000  0.00000
    H13      X     0.00705 -0.00669  0.00760 -0.00831 -0.38539  0.38367
    H13      Y     0.00485 -0.00496  0.00552 -0.00571 -0.27432  0.27308
    H13      Z     0.00000  0.00000  0.00000  0.00000  0.00000  0.00000
    C14      X    -0.00054  0.00042 -0.00011 -0.00023 -0.00045 -0.00045
    C14      Y     0.00301 -0.00294 -0.00022  0.00098  0.00334  0.00337
    C14      Z     0.00000  0.00000  0.00000  0.00000  0.00000  0.00000
    H15      X     0.00458 -0.00389 -0.00009  0.00223  0.00573  0.00577
    H15      Y    -0.03253  0.03357  0.00510 -0.00857 -0.03797 -0.03823
    H15      Z     0.00000  0.00000  0.00000  0.00000  0.00000  0.00000
    C16      X    -0.00039 -0.00103 -0.00080 -0.00066  0.02605  0.02616
    C16      Y    -0.00038  0.00019 -0.00038 -0.00060  0.06149  0.06176
    C16      Z     0.00000  0.00000  0.00000  0.00000  0.00000  0.00000
    H17      X     0.00020  0.00098  0.00028 -0.00015  0.07603  0.07637
    H17      Y    -0.00258 -0.00784 -0.00386 -0.00111 -0.45999 -0.46203
    H17      Z     0.00000  0.00000  0.00000  0.00000  0.00000  0.00000
    H18      X     0.00705  0.00669  0.00760  0.00831 -0.38368 -0.38538
    H18      Y     0.00485  0.00496  0.00552  0.00571 -0.27310 -0.27430
    H18      Z     0.00000  0.00000  0.00000  0.00000  0.00000  0.00000
    C19      X    -0.00012  0.00052  0.00364 -0.00320  0.00003 -0.00003
    C19      Y    -0.05184  0.05198  0.03027 -0.03037 -0.00003 -0.00011
    C19      Z     0.00000  0.00000  0.00000  0.00000  0.00000  0.00000
    H20      X     0.01613 -0.01664 -0.01064  0.00995  0.00010  0.00004
    H20      Y     0.58761 -0.58890 -0.32588  0.32286 -0.00008  0.00070
    H20      Z     0.00000  0.00000  0.00000  0.00000  0.00000  0.00000
  
  Number of imaginary frequencies:   0
   
  Writing vibrational animation data to dvb_ir.vib
  Writing vibrational spectrum data to dvb_ir_vib.spm
  
  Thermochemical properties at    1.0000 atm
  
  rotational symmetry number:  2

  rotational temperatures (K):      0.222036      0.032872      0.028633
   
  vibrational temperatures:
       mode:      1        2        3        4        5        6
  temp. (K):    76.91   122.98   215.57   258.18   379.13   430.00
   
       mode:      7        8        9       10       11       12
  temp. (K):   586.51   610.57   673.34   700.36   832.39   944.40
   
       mode:     13       14       15       16       17       18
  temp. (K):   969.31  1016.49  1057.76  1165.93  1241.32  1288.24
   
       mode:     19       20       21       22       23       24
  temp. (K):  1291.18  1410.18  1410.33  1467.09  1493.76  1544.68
   
       mode:     25       26       27       28       29       30
  temp. (K):  1584.91  1591.40  1591.63  1596.93  1733.66  1817.05
   
       mode:     31       32       33       34       35       36
  temp. (K):  1848.70  1865.07  1944.16  2012.33  2044.15  2053.03
   
       mode:     37       38       39       40       41       42
  temp. (K):  2179.77  2252.30  2266.25  2361.56  2433.54  2503.48
   
       mode:     43       44       45       46       47       48
  temp. (K):  2610.55  2611.83  4886.69  4887.72  4946.38  4946.44
   
       mode:     49       50       51       52       53       54
  temp. (K):  4959.44  4964.51  4987.97  4992.21  5105.17  5105.18
   
   
  Thermodynamic properties calculated assuming an ideal gas

  In the table below, the units for temperature
  are kelvins, the units for U, H, and G are
  kcal/mol and the units for Cv and S are cal/(mol K)

  The zero point energy (ZPE):    111.155 kcal/mol
  is not included in U, H, or G in the table below


  T =   298.15 K
   
              U         Cv          S          H          G        ln(Q)
          ---------  ---------  ---------  ---------  ---------  ---------
  trans.      0.889      2.981     40.502      1.481    -10.594   17.88133
    rot.      0.889      2.981     28.143      0.889     -7.502   12.66224
    vib.      3.794     27.589     23.097      3.794     -3.092    5.21876
   elec.      0.000      0.000      0.000      0.000      0.000    0.00000
   total      5.572     33.551     91.742      6.164    -21.189   35.76232
   
  Total internal energy, Utot (SCFE + ZPE + U):    -382.122243 hartrees
              Total enthalpy, Htot (Utot + pV):    -382.121299 hartrees
    Total Gibbs free energy, Gtot (Htot - T*S):    -382.164888 hartrees
   
  Peak memory usage:    480 Mb
  
  end of program freq
   
 Time(freq)  user:        0.0  user+sys:        0.0  wallclock:        0.2

 Total cpu seconds     user:      25.000   user+sys:      25.000
  
 Total elapsed time:    317 seconds

Job dvb_ir completed on silenziosa at Wed Apr  9 22:36:14 2014
