Job dvb_sp_ks started on silenziosa at Tue Apr  8 22:26:12 2014
jobid: silenziosa-0-5344afc4

  +--------------------------------------------------------------------+
  |  Jaguar version 8.3, release  13                                   |
  |                                                                    |
  |  Copyright Schrodinger, Inc.                                       |
  |  All Rights Reserved.                                              |
  |                                                                    |
  |  The following have contributed to Jaguar (listed alphabetically): |
  |  Mike Beachy, Art Bochevarov, Dale Braden, Yixiang Cao,            |
  |  Chris Cortis, Rich Friesner, Bill Goddard, Hod Greeley,           |
  |  Tom Hughes, Jean-Marc Langlois, Daniel Mainz, Rob Murphy,         |
  |  Dean Philipp, Tom Pollard, Murco Ringnalda.                       |
  |                                                                    |
  |  Use of this program should be acknowledged in publications as:    |
  |                                                                    |
  |  Jaguar, version 8.3, Schrodinger, Inc., New York, NY, 2014.       |
  |                                                                    |
  |  A. D. Bochevarov, E. Harder, T. F. Hughes, J. R. Greenwood,       |
  |  D. A. Braden, D. M. Philipp, D. Rinaldo, M. D. Halls,             |
  |  J. Zhang, R. A. Friesner, "Jaguar: A High-Performance Quantum     |
  |  Chemistry Software Program with Strengths in Life and Materials   |
  |  Sciences", Int. J. Quantum Chem., 2013, 113(18), 2110-2142.       |
  +--------------------------------------------------------------------+
  
  start of program pre
  
  Job name: dvb_sp_ks
  Executables used: /usr/local/lib/schrodinger2014-1/jaguar-v83013/bin/Linux-x86_64
  Temporary files : /home/kml/dvb_sp_ks
  
  
  basis set:             sto-3g          
  net molecular charge:    0
  multiplicity:            1
  
  number of basis functions....           60
  
  Basis set name for each atom
  
  Atom     Basis 
  C1       sto-3g          
  C2       sto-3g          
  C3       sto-3g          
  C4       sto-3g          
  C5       sto-3g          
  H6       sto-3g          
  H7       sto-3g          
  H8       sto-3g          
  C9       sto-3g          
  C10      sto-3g          
  H11      sto-3g          
  H12      sto-3g          
  H13      sto-3g          
  C14      sto-3g          
  H15      sto-3g          
  C16      sto-3g          
  H17      sto-3g          
  H18      sto-3g          
  C19      sto-3g          
  H20      sto-3g          
  
  Gaussian basis set information
  
                                                        renorm    mfac*renorm
   atom    fn   prim  L        z            coef         coef         coef
 -------- ----- ---- --- -------------  -----------  -----------  -----------
 C1           1    1   S  7.161684E+01   1.5433E-01   2.7078E+00   2.7078E+00
 C1           1    2   S  1.304510E+01   5.3533E-01   2.6189E+00   2.6189E+00
 C1           1    3   S  3.530512E+00   4.4463E-01   8.1619E-01   8.1619E-01
 C1           2    4   S  2.941249E+00  -2.9565E-01  -4.7324E-01  -4.7324E-01
 C1           2    5   S  6.834831E-01   1.1815E+00   6.3299E-01   6.3299E-01
 C1           3    6   X  2.941249E+00   2.2135E-01   1.2153E+00   1.2153E+00
              4        Y                                           1.2153E+00
              5        Z                                           1.2153E+00
 C1           3    7   X  6.834831E-01   8.6271E-01   7.6421E-01   7.6421E-01
              4        Y                                           7.6421E-01
              5        Z                                           7.6421E-01
 C1           2    8   S  2.222899E-01   1.0000E+00   2.3073E-01   2.3073E-01
 C1           3    9   X  2.222899E-01   1.0000E+00   2.1757E-01   2.1757E-01
              4        Y                                           2.1757E-01
              5        Z                                           2.1757E-01
 C2           6    1   S  7.161684E+01   1.5433E-01   2.7078E+00   2.7078E+00
 C2           6    2   S  1.304510E+01   5.3533E-01   2.6189E+00   2.6189E+00
 C2           6    3   S  3.530512E+00   4.4463E-01   8.1619E-01   8.1619E-01
 C2           7    4   S  2.941249E+00  -2.9565E-01  -4.7324E-01  -4.7324E-01
 C2           7    5   S  6.834831E-01   1.1815E+00   6.3299E-01   6.3299E-01
 C2           8    6   X  2.941249E+00   2.2135E-01   1.2153E+00   1.2153E+00
              9        Y                                           1.2153E+00
             10        Z                                           1.2153E+00
 C2           8    7   X  6.834831E-01   8.6271E-01   7.6421E-01   7.6421E-01
              9        Y                                           7.6421E-01
             10        Z                                           7.6421E-01
 C2           7    8   S  2.222899E-01   1.0000E+00   2.3073E-01   2.3073E-01
 C2           8    9   X  2.222899E-01   1.0000E+00   2.1757E-01   2.1757E-01
              9        Y                                           2.1757E-01
             10        Z                                           2.1757E-01
 C3          11    1   S  7.161684E+01   1.5433E-01   2.7078E+00   2.7078E+00
 C3          11    2   S  1.304510E+01   5.3533E-01   2.6189E+00   2.6189E+00
 C3          11    3   S  3.530512E+00   4.4463E-01   8.1619E-01   8.1619E-01
 C3          12    4   S  2.941249E+00  -2.9565E-01  -4.7324E-01  -4.7324E-01
 C3          12    5   S  6.834831E-01   1.1815E+00   6.3299E-01   6.3299E-01
 C3          13    6   X  2.941249E+00   2.2135E-01   1.2153E+00   1.2153E+00
             14        Y                                           1.2153E+00
             15        Z                                           1.2153E+00
 C3          13    7   X  6.834831E-01   8.6271E-01   7.6421E-01   7.6421E-01
             14        Y                                           7.6421E-01
             15        Z                                           7.6421E-01
 C3          12    8   S  2.222899E-01   1.0000E+00   2.3073E-01   2.3073E-01
 C3          13    9   X  2.222899E-01   1.0000E+00   2.1757E-01   2.1757E-01
             14        Y                                           2.1757E-01
             15        Z                                           2.1757E-01
 C4          16    1   S  7.161684E+01   1.5433E-01   2.7078E+00   2.7078E+00
 C4          16    2   S  1.304510E+01   5.3533E-01   2.6189E+00   2.6189E+00
 C4          16    3   S  3.530512E+00   4.4463E-01   8.1619E-01   8.1619E-01
 C4          17    4   S  2.941249E+00  -2.9565E-01  -4.7324E-01  -4.7324E-01
 C4          17    5   S  6.834831E-01   1.1815E+00   6.3299E-01   6.3299E-01
 C4          18    6   X  2.941249E+00   2.2135E-01   1.2153E+00   1.2153E+00
             19        Y                                           1.2153E+00
             20        Z                                           1.2153E+00
 C4          18    7   X  6.834831E-01   8.6271E-01   7.6421E-01   7.6421E-01
             19        Y                                           7.6421E-01
             20        Z                                           7.6421E-01
 C4          17    8   S  2.222899E-01   1.0000E+00   2.3073E-01   2.3073E-01
 C4          18    9   X  2.222899E-01   1.0000E+00   2.1757E-01   2.1757E-01
             19        Y                                           2.1757E-01
             20        Z                                           2.1757E-01
 C5          21    1   S  7.161684E+01   1.5433E-01   2.7078E+00   2.7078E+00
 C5          21    2   S  1.304510E+01   5.3533E-01   2.6189E+00   2.6189E+00
 C5          21    3   S  3.530512E+00   4.4463E-01   8.1619E-01   8.1619E-01
 C5          22    4   S  2.941249E+00  -2.9565E-01  -4.7324E-01  -4.7324E-01
 C5          22    5   S  6.834831E-01   1.1815E+00   6.3299E-01   6.3299E-01
 C5          23    6   X  2.941249E+00   2.2135E-01   1.2153E+00   1.2153E+00
             24        Y                                           1.2153E+00
             25        Z                                           1.2153E+00
 C5          23    7   X  6.834831E-01   8.6271E-01   7.6421E-01   7.6421E-01
             24        Y                                           7.6421E-01
             25        Z                                           7.6421E-01
 C5          22    8   S  2.222899E-01   1.0000E+00   2.3073E-01   2.3073E-01
 C5          23    9   X  2.222899E-01   1.0000E+00   2.1757E-01   2.1757E-01
             24        Y                                           2.1757E-01
             25        Z                                           2.1757E-01
 H6          26    1   S  3.425251E+00   2.4050E-01   4.3157E-01   4.3157E-01
 H6          26    2   S  6.239137E-01   8.3424E-01   4.1739E-01   4.1739E-01
 H6          26    3   S  1.688554E-01   1.0000E+00   1.8774E-01   1.8774E-01
 H7          27    1   S  3.425251E+00   2.4050E-01   4.3157E-01   4.3157E-01
 H7          27    2   S  6.239137E-01   8.3424E-01   4.1739E-01   4.1739E-01
 H7          27    3   S  1.688554E-01   1.0000E+00   1.8774E-01   1.8774E-01
 H8          28    1   S  3.425251E+00   2.4050E-01   4.3157E-01   4.3157E-01
 H8          28    2   S  6.239137E-01   8.3424E-01   4.1739E-01   4.1739E-01
 H8          28    3   S  1.688554E-01   1.0000E+00   1.8774E-01   1.8774E-01
 C9          29    1   S  7.161684E+01   1.5433E-01   2.7078E+00   2.7078E+00
 C9          29    2   S  1.304510E+01   5.3533E-01   2.6189E+00   2.6189E+00
 C9          29    3   S  3.530512E+00   4.4463E-01   8.1619E-01   8.1619E-01
 C9          30    4   S  2.941249E+00  -2.9565E-01  -4.7324E-01  -4.7324E-01
 C9          30    5   S  6.834831E-01   1.1815E+00   6.3299E-01   6.3299E-01
 C9          31    6   X  2.941249E+00   2.2135E-01   1.2153E+00   1.2153E+00
             32        Y                                           1.2153E+00
             33        Z                                           1.2153E+00
 C9          31    7   X  6.834831E-01   8.6271E-01   7.6421E-01   7.6421E-01
             32        Y                                           7.6421E-01
             33        Z                                           7.6421E-01
 C9          30    8   S  2.222899E-01   1.0000E+00   2.3073E-01   2.3073E-01
 C9          31    9   X  2.222899E-01   1.0000E+00   2.1757E-01   2.1757E-01
             32        Y                                           2.1757E-01
             33        Z                                           2.1757E-01
 C10         34    1   S  7.161684E+01   1.5433E-01   2.7078E+00   2.7078E+00
 C10         34    2   S  1.304510E+01   5.3533E-01   2.6189E+00   2.6189E+00
 C10         34    3   S  3.530512E+00   4.4463E-01   8.1619E-01   8.1619E-01
 C10         35    4   S  2.941249E+00  -2.9565E-01  -4.7324E-01  -4.7324E-01
 C10         35    5   S  6.834831E-01   1.1815E+00   6.3299E-01   6.3299E-01
 C10         36    6   X  2.941249E+00   2.2135E-01   1.2153E+00   1.2153E+00
             37        Y                                           1.2153E+00
             38        Z                                           1.2153E+00
 C10         36    7   X  6.834831E-01   8.6271E-01   7.6421E-01   7.6421E-01
             37        Y                                           7.6421E-01
             38        Z                                           7.6421E-01
 C10         35    8   S  2.222899E-01   1.0000E+00   2.3073E-01   2.3073E-01
 C10         36    9   X  2.222899E-01   1.0000E+00   2.1757E-01   2.1757E-01
             37        Y                                           2.1757E-01
             38        Z                                           2.1757E-01
 H11         39    1   S  3.425251E+00   2.4050E-01   4.3157E-01   4.3157E-01
 H11         39    2   S  6.239137E-01   8.3424E-01   4.1739E-01   4.1739E-01
 H11         39    3   S  1.688554E-01   1.0000E+00   1.8774E-01   1.8774E-01
 H12         40    1   S  3.425251E+00   2.4050E-01   4.3157E-01   4.3157E-01
 H12         40    2   S  6.239137E-01   8.3424E-01   4.1739E-01   4.1739E-01
 H12         40    3   S  1.688554E-01   1.0000E+00   1.8774E-01   1.8774E-01
 H13         41    1   S  3.425251E+00   2.4050E-01   4.3157E-01   4.3157E-01
 H13         41    2   S  6.239137E-01   8.3424E-01   4.1739E-01   4.1739E-01
 H13         41    3   S  1.688554E-01   1.0000E+00   1.8774E-01   1.8774E-01
 C14         42    1   S  7.161684E+01   1.5433E-01   2.7078E+00   2.7078E+00
 C14         42    2   S  1.304510E+01   5.3533E-01   2.6189E+00   2.6189E+00
 C14         42    3   S  3.530512E+00   4.4463E-01   8.1619E-01   8.1619E-01
 C14         43    4   S  2.941249E+00  -2.9565E-01  -4.7324E-01  -4.7324E-01
 C14         43    5   S  6.834831E-01   1.1815E+00   6.3299E-01   6.3299E-01
 C14         44    6   X  2.941249E+00   2.2135E-01   1.2153E+00   1.2153E+00
             45        Y                                           1.2153E+00
             46        Z                                           1.2153E+00
 C14         44    7   X  6.834831E-01   8.6271E-01   7.6421E-01   7.6421E-01
             45        Y                                           7.6421E-01
             46        Z                                           7.6421E-01
 C14         43    8   S  2.222899E-01   1.0000E+00   2.3073E-01   2.3073E-01
 C14         44    9   X  2.222899E-01   1.0000E+00   2.1757E-01   2.1757E-01
             45        Y                                           2.1757E-01
             46        Z                                           2.1757E-01
 H15         47    1   S  3.425251E+00   2.4050E-01   4.3157E-01   4.3157E-01
 H15         47    2   S  6.239137E-01   8.3424E-01   4.1739E-01   4.1739E-01
 H15         47    3   S  1.688554E-01   1.0000E+00   1.8774E-01   1.8774E-01
 C16         48    1   S  7.161684E+01   1.5433E-01   2.7078E+00   2.7078E+00
 C16         48    2   S  1.304510E+01   5.3533E-01   2.6189E+00   2.6189E+00
 C16         48    3   S  3.530512E+00   4.4463E-01   8.1619E-01   8.1619E-01
 C16         49    4   S  2.941249E+00  -2.9565E-01  -4.7324E-01  -4.7324E-01
 C16         49    5   S  6.834831E-01   1.1815E+00   6.3299E-01   6.3299E-01
 C16         50    6   X  2.941249E+00   2.2135E-01   1.2153E+00   1.2153E+00
             51        Y                                           1.2153E+00
             52        Z                                           1.2153E+00
 C16         50    7   X  6.834831E-01   8.6271E-01   7.6421E-01   7.6421E-01
             51        Y                                           7.6421E-01
             52        Z                                           7.6421E-01
 C16         49    8   S  2.222899E-01   1.0000E+00   2.3073E-01   2.3073E-01
 C16         50    9   X  2.222899E-01   1.0000E+00   2.1757E-01   2.1757E-01
             51        Y                                           2.1757E-01
             52        Z                                           2.1757E-01
 H17         53    1   S  3.425251E+00   2.4050E-01   4.3157E-01   4.3157E-01
 H17         53    2   S  6.239137E-01   8.3424E-01   4.1739E-01   4.1739E-01
 H17         53    3   S  1.688554E-01   1.0000E+00   1.8774E-01   1.8774E-01
 H18         54    1   S  3.425251E+00   2.4050E-01   4.3157E-01   4.3157E-01
 H18         54    2   S  6.239137E-01   8.3424E-01   4.1739E-01   4.1739E-01
 H18         54    3   S  1.688554E-01   1.0000E+00   1.8774E-01   1.8774E-01
 C19         55    1   S  7.161684E+01   1.5433E-01   2.7078E+00   2.7078E+00
 C19         55    2   S  1.304510E+01   5.3533E-01   2.6189E+00   2.6189E+00
 C19         55    3   S  3.530512E+00   4.4463E-01   8.1619E-01   8.1619E-01
 C19         56    4   S  2.941249E+00  -2.9565E-01  -4.7324E-01  -4.7324E-01
 C19         56    5   S  6.834831E-01   1.1815E+00   6.3299E-01   6.3299E-01
 C19         57    6   X  2.941249E+00   2.2135E-01   1.2153E+00   1.2153E+00
             58        Y                                           1.2153E+00
             59        Z                                           1.2153E+00
 C19         57    7   X  6.834831E-01   8.6271E-01   7.6421E-01   7.6421E-01
             58        Y                                           7.6421E-01
             59        Z                                           7.6421E-01
 C19         56    8   S  2.222899E-01   1.0000E+00   2.3073E-01   2.3073E-01
 C19         57    9   X  2.222899E-01   1.0000E+00   2.1757E-01   2.1757E-01
             58        Y                                           2.1757E-01
             59        Z                                           2.1757E-01
 H20         60    1   S  3.425251E+00   2.4050E-01   4.3157E-01   4.3157E-01
 H20         60    2   S  6.239137E-01   8.3424E-01   4.1739E-01   4.1739E-01
 H20         60    3   S  1.688554E-01   1.0000E+00   1.8774E-01   1.8774E-01
  
  Effective Core Potential 
  
  Atom      Electrons represented by ECP
 C1                     0
 C2                     0
 C3                     0
 C4                     0
 C5                     0
 H6                     0
 H7                     0
 H8                     0
 C9                     0
 C10                    0
 H11                    0
 H12                    0
 H13                    0
 C14                    0
 H15                    0
 C16                    0
 H17                    0
 H18                    0
 C19                    0
 H20                    0
  
  no dealiasing set available for atom            1
  switch to all-analytic calculation
  
 Input geometry:
                                   angstroms
  atom               x                 y                 z
  C1            0.2694810000     -1.4100870000      0.0000000000 
  C2           -1.0647520000     -0.9207000000      0.0000000000 
  C3           -1.3254340000      0.4570290000      0.0000000000 
  C4           -0.2694810000      1.4100870000      0.0000000000 
  C5            1.0647520000      0.9207000000      0.0000000000 
  H6           -1.9044340000     -1.6275960000      0.0000000000 
  H7           -2.3647720000      0.8131670000      0.0000000000 
  H8            1.9044340000      1.6275960000      0.0000000000 
  C9           -0.6037320000      2.8699170000      0.0000000000 
  C10           0.2694810000      3.8919520000      0.0000000000 
  H11           1.3551660000      3.7420140000      0.0000000000 
  H12          -1.6819040000      3.0900050000      0.0000000000 
  H13          -0.0740290000      4.9329690000      0.0000000000 
  C14           0.6037320000     -2.8699170000      0.0000000000 
  H15           1.6819040000     -3.0900050000      0.0000000000 
  C16          -0.2694810000     -3.8919520000      0.0000000000 
  H17          -1.3551660000     -3.7420140000      0.0000000000 
  H18           0.0740290000     -4.9329690000      0.0000000000 
  C19           1.3254340000     -0.4570290000      0.0000000000 
  H20           2.3647720000     -0.8131670000      0.0000000000 
   
  principal moments of inertia:
        amu*angstrom^2:      109.23594      737.84464      847.08058
                g*cm^2: 1.81390525E-38 1.22521969E-37 1.40661022E-37
   
  rotational constants:
               cm^(-1):      0.15432310      0.02284713      0.01990086
                   GHz:      4.62649016      0.68493959      0.59661267
   
  Molecular weight:     130.08 amu
   
  Stoichiometry: C10H10
  Molecular Point Group: C2h     
	Molecule translated to center of mass 
	Molecule reoriented along symmetry axes
  Point Group used: C2h
  
  
 Symmetrized geometry:
                                   angstroms
  atom               x                 y                 z
  C1            0.2694810000     -1.4100870000      0.0000000000 
  C2           -1.0647520000     -0.9207000000      0.0000000000 
  C3           -1.3254340000      0.4570290000      0.0000000000 
  C4           -0.2694810000      1.4100870000      0.0000000000 
  C5            1.0647520000      0.9207000000      0.0000000000 
  H6           -1.9044340000     -1.6275960000      0.0000000000 
  H7           -2.3647720000      0.8131670000      0.0000000000 
  H8            1.9044340000      1.6275960000      0.0000000000 
  C9           -0.6037320000      2.8699170000      0.0000000000 
  C10           0.2694810000      3.8919520000      0.0000000000 
  H11           1.3551660000      3.7420140000      0.0000000000 
  H12          -1.6819040000      3.0900050000      0.0000000000 
  H13          -0.0740290000      4.9329690000      0.0000000000 
  C14           0.6037320000     -2.8699170000      0.0000000000 
  H15           1.6819040000     -3.0900050000      0.0000000000 
  C16          -0.2694810000     -3.8919520000      0.0000000000 
  H17          -1.3551660000     -3.7420140000      0.0000000000 
  H18           0.0740290000     -4.9329690000      0.0000000000 
  C19           1.3254340000     -0.4570290000      0.0000000000 
  H20           2.3647720000     -0.8131670000      0.0000000000 
   
  nuclear repulsion energy.......     445.899315474 hartrees
 
 Non-default options chosen:
   SCF calculation type: DFT(b3lyp)                  
   DFT=Becke_3_Parameter/HF+Slater+Becke88+VWN+LYP (B3LYP)
   Include all virtuals in output
   Mulliken populations computed by atom
  
 Non-default print settings:
      1=  2 102=  8
  
 Temporary integer options set:
     73=  2
  
  Peak memory usage:    479 Mb
  
  end of program pre
   
 Time(pre)  user:        0.0  user+sys:        0.0  wallclock:        0.1
  
  start of program onee
  
  smallest eigenvalue of S:    1.814E-01
  number of canonical orbitals.....           60
  Peak memory usage:    621 Mb
  
  end of program onee
   
 Time(onee)  user:        0.0  user+sys:        0.0  wallclock:        0.1
  
  start of program hfig
  
  initial wavefunction generated automatically from atomic wavefunctions
 
  Irreducible     Total no   No of occupied orbitals 
  representation  orbitals   Shell_1  Shell_2    ...
  Ag                25         15
  Bg                 5          3
  Au                 5          2
  Bu                25         15
  ------------------------
  Orbital occupation/shell    1.000
 
  Peak memory usage:    561 Mb
  
  end of program hfig
   
 Time(hfig)  user:        0.0  user+sys:        0.0  wallclock:        0.3
  
  start of program probe
  
  Peak memory usage:    560 Mb
  
  end of program probe
   
 Time(probe)  user:        0.0  user+sys:        0.0  wallclock:        0.1
  
  start of program grid
  
  
   grid     grid set  grid #  grid sym
  ------    --------  ------  --------
  coarse        0        0        1
  medium        0        0        1
  fine          0        0        1
  ultrafine     0        0        1
  charge        0        0        1
  gradient      0        0        1
  density       0        0        1
  DFT-fine    -11        1        4
  DFT-med.    -10        2        4
  DFT-grad    -12        3        4
  DFT-der2      0        0        1
  DFT-cphf      0        0        1
  LMP2-enrg     0        0        1
  LMP2-grad     0        0        1
  DFT-cphf2     0        0        1
  PBF-dens      0        0        1
  plotting      0        0        1
  
   
  number of gridpoints: 
     atom        C1       C2       C3       C4       C5       H6       H7
  grid # 1        0        0        0     2430     2430        0        0
  grid # 2        0        0        0      756      756        0        0
  grid # 3        0        0        0     3001     3001        0        0
   
  number of gridpoints: 
     atom        H8       C9      C10      H11      H12      H13      C14
  grid # 1     2430     2430     2430     2430        0     2430        0
  grid # 2      756      756      756      756        0      756        0
  grid # 3     3001     3001     3001     3001        0     3001        0
   
  number of gridpoints: 
     atom       H15      C16      H17      H18      C19      H20    total
  grid # 1     2430        0        0        0     2430     2430    24300
  grid # 2      756        0        0        0      756      756     7560
  grid # 3     3001        0        0        0     3001     3001    30010
   
  Peak memory usage:    602 Mb
  
  end of program grid
   
 Time(grid)  user:        0.0  user+sys:        0.0  wallclock:        0.5
  
  start of program scf
  
 number of electrons..........         70
 number of alpha electrons....         35
 number of beta electrons.....         35
 number of orbitals, total....         60
 number of doubly-occ'd orbs..         35
 number of open shell orbs....          0
 number of occupied orbitals..         35
 number of virtual orbitals...         25
 number of hamiltonians.......          1
 number of shells.............          1
 SCF type: DFT=Becke_3_Parameter/HF+Slater+Becke88+VWN+LYP (B3LYP)
  
       i  u  d  i  g                   
       t  p  i  c  r                                 RMS    maximum
       e  d  i  u  i                       energy  density   DIIS  
       r  t  s  t  d       total energy    change  change    error 
  
etot    1  N  N  0  N    -382.08751877606           2.3E-03  1.4E-01
etot    2  Y  Y  0  N    -382.27486017815  1.9E-01  1.4E-03  5.7E-02
etot    3  N  Y  0  N    -382.30454770453  3.0E-02  4.8E-04  1.1E-02
etot    4  Y  Y  0  N    -382.30788053861  3.3E-03  1.3E-04  5.1E-03
etot    5  Y  Y  0  N    -382.30829549183  4.1E-04  1.2E-05  2.3E-04
etot    6  N  N  0  N    -382.30825830022 -3.7E-05  0.0E+00  0.0E+00
  
  
 Energy components, in hartrees:
   (A)  Nuclear repulsion............     445.89931547414
   (E)  Total one-electron terms.....   -1400.56546918890
   (I)  Total two-electron terms.....     572.35789541454
   (J)    Coulomb....................     630.20155177275
   (K)    Exchange+Correlation.......     -57.84365635821
   (L)  Electronic energy............    -828.20757377436  (E+I)
   (N)  Total energy.................    -382.30825830022  (A+L)
  
 SCFE: SCF energy: DFT(b3lyp)      -382.30825830022 hartrees   iterations:   6
  
 
 HOMO energy:    -0.15309
 LUMO energy:     0.03741
 
  Orbital energies (hartrees)/symmetry label: 
   -10.02042 Bu        -10.02037 Ag        -10.00819 Bu        -10.00819 Ag     
   -10.00685 Ag        -10.00684 Bu        -10.00622 Bu        -10.00608 Ag     
    -9.99195 Bu         -9.99195 Ag         -0.80962 Ag         -0.75401 Bu     
    -0.71792 Ag         -0.69986 Bu         -0.66751 Bu         -0.58872 Ag     
    -0.55899 Ag         -0.53165 Bu         -0.51022 Ag         -0.45745 Ag     
    -0.43936 Bu         -0.41063 Bu         -0.39799 Bu         -0.39601 Ag     
    -0.37403 Bu         -0.35116 Bu         -0.34726 Ag         -0.32460 Au     
    -0.31126 Bu         -0.29284 Ag         -0.28753 Ag         -0.26357 Bg     
    -0.21240 Au         -0.19514 Bg         -0.15309 Bg          0.03741 Au     
     0.09028 Au          0.11066 Bg          0.18217 Au          0.27243 Bg     
     0.33220 Ag          0.34072 Bu          0.37930 Bu          0.38146 Ag     
     0.41097 Ag          0.41195 Bu          0.42676 Bu          0.43958 Ag     
     0.45278 Bu          0.47826 Ag          0.52619 Ag          0.54578 Bu     
     0.57595 Ag          0.59938 Bu          0.62498 Bu          0.63972 Ag     
     0.68280 Ag          0.71727 Bu          0.77949 Ag          0.79447 Bu     
 
  Peak memory usage:    654 Mb
  
  end of program scf
   
 Time(scf)  user:        2.0  user+sys:        2.0  wallclock:        2.5
  
  start of program ch
  
  Atomic charges from Mulliken population analysis: 
   
 Atom       C1           C2           C3           C4           C5      
 Charge   -0.00423     -0.07660     -0.07703     -0.00423     -0.07660
   
 Atom       H6           H7           H8           C9           C10     
 Charge    0.07906      0.07769      0.07906     -0.07617     -0.15566
   
 Atom       H11          H12          H13          C14          H15     
 Charge    0.07651      0.07694      0.07949     -0.07617      0.07694
   
 Atom       C16          H17          H18          C19          H20     
 Charge   -0.15566      0.07651      0.07949     -0.07703      0.07769
  
  sum of atomic charges:     0.000000
   
  Peak memory usage:    515 Mb
  
  end of program ch
   
 Time(ch)  user:        0.0  user+sys:        0.0  wallclock:        0.1
  
  start of program post
  
  
 ***************************************** 
 
 occupied + virtual orbitals: final wave function
 
 ***************************************** 
   
   
                              1         2         3         4         5
  eigenvalues-            -10.02042 -10.02037 -10.00819 -10.00819 -10.00685
  occupations-              2.00000   2.00000   2.00000   2.00000   2.00000
    1 C1               S    0.69927   0.69926  -0.02896  -0.02917   0.00027
    2 C1               S    0.03157   0.03136   0.00411   0.00405   0.00001
    3 C1               X   -0.00005   0.00001   0.00077   0.00075  -0.00520
    4 C1               Y    0.00091   0.00064  -0.00412  -0.00410  -0.00100
    5 C1               Z    0.00000   0.00000   0.00000   0.00000   0.00000
    6 C2               S   -0.01877  -0.01901   0.00558   0.00779  -0.49511
    7 C2               S   -0.00770  -0.00686   0.00035   0.00032  -0.02644
    8 C2               X   -0.00420  -0.00410   0.00013   0.00021   0.00022
    9 C2               Y    0.00123   0.00166   0.00007   0.00002  -0.00355
   10 C2               Z    0.00000   0.00000   0.00000   0.00000   0.00000
   11 C3               S    0.01875  -0.01925  -0.00786   0.01138   0.49481
   12 C3               S    0.00773  -0.00692  -0.00048   0.00058   0.02642
   13 C3               X    0.00346  -0.00324  -0.00013   0.00020   0.00107
   14 C3               Y    0.00272  -0.00308  -0.00001   0.00005  -0.00337
   15 C3               Z    0.00000   0.00000   0.00000   0.00000   0.00000
   16 C4               S   -0.69927   0.69926   0.02896  -0.02917   0.00027
   17 C4               S   -0.03157   0.03136  -0.00411   0.00405   0.00001
   18 C4               X   -0.00005  -0.00001   0.00077  -0.00075   0.00520
   19 C4               Y    0.00091  -0.00064  -0.00412   0.00410   0.00100
   20 C4               Z    0.00000   0.00000   0.00000   0.00000   0.00000
   21 C5               S    0.01877  -0.01901  -0.00558   0.00779  -0.49511
   22 C5               S    0.00770  -0.00686  -0.00035   0.00032  -0.02644
   23 C5               X   -0.00420   0.00410   0.00013  -0.00021  -0.00022
   24 C5               Y    0.00123  -0.00166   0.00007  -0.00002   0.00355
   25 C5               Z    0.00000   0.00000   0.00000   0.00000   0.00000
   26 H6               S    0.00033   0.00022   0.00008   0.00008   0.00458
   27 H7               S   -0.00033   0.00022   0.00007  -0.00008  -0.00457
   28 H8               S   -0.00033   0.00022  -0.00008   0.00008   0.00458
   29 C9               S    0.02827  -0.02864   0.69982  -0.69975   0.00254
   30 C9               S    0.00676  -0.00683   0.03077  -0.03076   0.00011
   31 C9               X    0.00101  -0.00102   0.00071  -0.00071  -0.00011
   32 C9               Y   -0.00395   0.00398   0.00110  -0.00111  -0.00002
   33 C9               Z    0.00000   0.00000   0.00000   0.00000   0.00000
   34 C10              S   -0.00018   0.00020  -0.00783   0.00782   0.00018
   35 C10              S   -0.00048   0.00049  -0.00760   0.00760   0.00002
   36 C10              X   -0.00001   0.00001   0.00296  -0.00296   0.00004
   37 C10              Y    0.00029  -0.00029   0.00352  -0.00351   0.00001
   38 C10              Z    0.00000   0.00000   0.00000   0.00000   0.00000
   39 H11              S    0.00015  -0.00014   0.00018  -0.00018  -0.00014
   40 H12              S   -0.00033   0.00034  -0.00642   0.00642  -0.00002
   41 H13              S    0.00003  -0.00003   0.00021  -0.00021   0.00000
   42 C14              S   -0.02827  -0.02864  -0.69982  -0.69975   0.00254
   43 C14              S   -0.00676  -0.00683  -0.03077  -0.03076   0.00011
   44 C14              X    0.00101   0.00102   0.00071   0.00071   0.00011
   45 C14              Y   -0.00395  -0.00398   0.00110   0.00111   0.00002
   46 C14              Z    0.00000   0.00000   0.00000   0.00000   0.00000
   47 H15              S    0.00033   0.00034   0.00642   0.00642  -0.00002
   48 C16              S    0.00018   0.00020   0.00783   0.00782   0.00018
   49 C16              S    0.00048   0.00049   0.00760   0.00760   0.00002
   50 C16              X   -0.00001  -0.00001   0.00296   0.00296  -0.00004
   51 C16              Y    0.00029   0.00029   0.00352   0.00351  -0.00001
   52 C16              Z    0.00000   0.00000   0.00000   0.00000   0.00000
   53 H17              S   -0.00015  -0.00014  -0.00018  -0.00018  -0.00014
   54 H18              S   -0.00003  -0.00003  -0.00021  -0.00021   0.00000
   55 C19              S   -0.01875  -0.01925   0.00786   0.01138   0.49481
   56 C19              S   -0.00773  -0.00692   0.00048   0.00058   0.02642
   57 C19              X    0.00346   0.00324  -0.00013  -0.00020  -0.00107
   58 C19              Y    0.00272   0.00308  -0.00001  -0.00005   0.00337
   59 C19              Z    0.00000   0.00000   0.00000   0.00000   0.00000
   60 H20              S    0.00033   0.00022  -0.00007  -0.00008  -0.00457
   
                              6         7         8         9        10
  eigenvalues-            -10.00684 -10.00622 -10.00608  -9.99195  -9.99195
  occupations-              2.00000   2.00000   2.00000   2.00000   2.00000
    1 C1               S   -0.02833  -0.00005  -0.02904   0.00017   0.00017
    2 C1               S    0.00821   0.00004   0.00753   0.00016   0.00016
    3 C1               X   -0.00063  -0.00510  -0.00060  -0.00002  -0.00002
    4 C1               Y    0.00325  -0.00097   0.00302  -0.00005  -0.00005
    5 C1               Z    0.00000   0.00000   0.00000   0.00000   0.00000
    6 C2               S   -0.49278  -0.49741  -0.49511   0.00083   0.00090
    7 C2               S   -0.02655  -0.01732  -0.01714  -0.00001  -0.00003
    8 C2               X    0.00012  -0.00101  -0.00072  -0.00001   0.00000
    9 C2               Y   -0.00373   0.00249   0.00262   0.00011   0.00009
   10 C2               Z    0.00000   0.00000   0.00000   0.00000   0.00000
   11 C3               S    0.49632  -0.49384  -0.49534  -0.00029   0.00060
   12 C3               S    0.02666  -0.01711  -0.01711   0.00000  -0.00006
   13 C3               X    0.00124  -0.00001   0.00032   0.00000  -0.00002
   14 C3               Y   -0.00348  -0.00273  -0.00273   0.00008  -0.00003
   15 C3               Z    0.00000   0.00000   0.00000   0.00000   0.00000
   16 C4               S    0.02833   0.00005  -0.02904  -0.00017   0.00017
   17 C4               S   -0.00821  -0.00004   0.00753  -0.00016   0.00016
   18 C4               X   -0.00063  -0.00510   0.00060  -0.00002   0.00002
   19 C4               Y    0.00325  -0.00097  -0.00302  -0.00005   0.00005
   20 C4               Z    0.00000   0.00000   0.00000   0.00000   0.00000
   21 C5               S    0.49278   0.49741  -0.49511  -0.00083   0.00090
   22 C5               S    0.02655   0.01732  -0.01714   0.00001  -0.00003
   23 C5               X    0.00012  -0.00101   0.00072  -0.00001   0.00000
   24 C5               Y   -0.00373   0.00249  -0.00262   0.00011  -0.00009
   25 C5               Z    0.00000   0.00000   0.00000   0.00000   0.00000
   26 H6               S    0.00459   0.00437   0.00453   0.00010   0.00010
   27 H7               S   -0.00461   0.00432   0.00451   0.00001  -0.00002
   28 H8               S   -0.00459  -0.00437   0.00453  -0.00010   0.00010
   29 C9               S    0.00843  -0.00159  -0.01246  -0.00872   0.00872
   30 C9               S    0.00050  -0.00008  -0.00054   0.00690  -0.00690
   31 C9               X    0.00005   0.00002  -0.00003   0.00300  -0.00300
   32 C9               Y    0.00004  -0.00002  -0.00018   0.00345  -0.00345
   33 C9               Z    0.00000   0.00000   0.00000   0.00000   0.00000
   34 C10              S   -0.00087  -0.00036   0.00117  -0.70048   0.70048
   35 C10              S   -0.00022  -0.00001   0.00028  -0.03086   0.03086
   36 C10              X    0.00001  -0.00005  -0.00003   0.00087  -0.00087
   37 C10              Y    0.00012   0.00001  -0.00016   0.00095  -0.00095
   38 C10              Z    0.00000   0.00000   0.00000   0.00000   0.00000
   39 H11              S    0.00013   0.00011  -0.00011   0.00636  -0.00636
   40 H12              S   -0.00013   0.00003   0.00021  -0.00005   0.00005
   41 H13              S   -0.00001  -0.00001   0.00001   0.00637  -0.00637
   42 C14              S   -0.00843   0.00159  -0.01246   0.00872   0.00872
   43 C14              S   -0.00050   0.00008  -0.00054  -0.00690  -0.00690
   44 C14              X    0.00005   0.00002   0.00003   0.00300   0.00300
   45 C14              Y    0.00004  -0.00002   0.00018   0.00345   0.00345
   46 C14              Z    0.00000   0.00000   0.00000   0.00000   0.00000
   47 H15              S    0.00013  -0.00003   0.00021   0.00005   0.00005
   48 C16              S    0.00087   0.00036   0.00117   0.70048   0.70048
   49 C16              S    0.00022   0.00001   0.00028   0.03086   0.03086
   50 C16              X    0.00001  -0.00005   0.00003   0.00087   0.00087
   51 C16              Y    0.00012   0.00001   0.00016   0.00095   0.00095
   52 C16              Z    0.00000   0.00000   0.00000   0.00000   0.00000
   53 H17              S   -0.00013  -0.00011  -0.00011  -0.00636  -0.00636
   54 H18              S    0.00001   0.00001   0.00001  -0.00637  -0.00637
   55 C19              S   -0.49632   0.49384  -0.49534   0.00029   0.00060
   56 C19              S   -0.02666   0.01711  -0.01711   0.00000  -0.00006
   57 C19              X    0.00124  -0.00001  -0.00032   0.00000   0.00002
   58 C19              Y   -0.00348  -0.00273   0.00273   0.00008   0.00003
   59 C19              Z    0.00000   0.00000   0.00000   0.00000   0.00000
   60 H20              S    0.00461  -0.00432   0.00451  -0.00001  -0.00002
   
                             11        12        13        14        15
  eigenvalues-             -0.80962  -0.75401  -0.71792  -0.69986  -0.66751
  occupations-              2.00000   2.00000   2.00000   2.00000   2.00000
    1 C1               S   -0.10783   0.10345   0.00452  -0.01229  -0.09980
    2 C1               S    0.27461  -0.27344  -0.01478   0.03328   0.27438
    3 C1               X   -0.00654  -0.00524  -0.01291   0.12429  -0.01887
    4 C1               Y    0.04069   0.03280   0.09583   0.02558   0.05602
    5 C1               Z    0.00000   0.00000   0.00000   0.00000   0.00000
    6 C2               S   -0.09757   0.04277  -0.04182   0.12027  -0.07300
    7 C2               S    0.24661  -0.11241   0.10911  -0.32438   0.20129
    8 C2               X    0.04507  -0.04571   0.00097   0.03622   0.05543
    9 C2               Y    0.03260   0.04532   0.04725  -0.06494  -0.04563
   10 C2               Z    0.00000   0.00000   0.00000   0.00000   0.00000
   11 C3               S   -0.09787  -0.03889  -0.04628   0.13222   0.04112
   12 C3               S    0.24700   0.10177   0.12134  -0.35683  -0.11363
   13 C3               X    0.05348   0.02581   0.01697   0.00277  -0.03558
   14 C3               Y   -0.01318   0.05965  -0.03665   0.05653  -0.09238
   15 C3               Z    0.00000   0.00000   0.00000   0.00000   0.00000
   16 C4               S   -0.10783  -0.10345   0.00452   0.01229   0.09980
   17 C4               S    0.27461   0.27344  -0.01478  -0.03328  -0.27438
   18 C4               X    0.00654  -0.00524   0.01291   0.12429  -0.01887
   19 C4               Y   -0.04069   0.03280  -0.09583   0.02558   0.05602
   20 C4               Z    0.00000   0.00000   0.00000   0.00000   0.00000
   21 C5               S   -0.09757  -0.04277  -0.04182  -0.12027   0.07300
   22 C5               S    0.24661   0.11241   0.10911   0.32438  -0.20129
   23 C5               X   -0.04507  -0.04571  -0.00097   0.03622   0.05543
   24 C5               Y   -0.03260   0.04532  -0.04725  -0.06494  -0.04563
   25 C5               Z    0.00000   0.00000   0.00000   0.00000   0.00000
   26 H6               S    0.04510  -0.03049   0.01684  -0.09015   0.05299
   27 H7               S    0.04499   0.02681   0.02330  -0.09840  -0.03253
   28 H8               S    0.04510   0.03049   0.01684   0.09015  -0.05299
   29 C9               S   -0.04978  -0.11392   0.11922   0.00044  -0.05139
   30 C9               S    0.12799   0.29745  -0.31472  -0.00188   0.13618
   31 C9               X    0.01355   0.03430  -0.04380   0.02243   0.03608
   32 C9               Y   -0.02812  -0.00756  -0.05856   0.01883   0.12999
   33 C9               Z    0.00000   0.00000   0.00000   0.00000   0.00000
   34 C10              S   -0.02471  -0.08086   0.11749  -0.01423  -0.11027
   35 C10              S    0.06281   0.20972  -0.30988   0.03721   0.29952
   36 C10              X   -0.01194  -0.03616   0.04782   0.00181  -0.03403
   37 C10              Y   -0.02066  -0.05077   0.05384  -0.00618  -0.01702
   38 C10              Z    0.00000   0.00000   0.00000   0.00000   0.00000
   39 H11              S    0.01411   0.04857  -0.07413   0.01456   0.07745
   40 H12              S    0.02571   0.06720  -0.07654  -0.01009   0.03725
   41 H13              S    0.01062   0.04384  -0.07495   0.00878   0.09005
   42 C14              S   -0.04978   0.11392   0.11922  -0.00044   0.05139
   43 C14              S    0.12799  -0.29745  -0.31472   0.00188  -0.13618
   44 C14              X   -0.01355   0.03430   0.04380   0.02243   0.03608
   45 C14              Y    0.02812  -0.00756   0.05856   0.01883   0.12999
   46 C14              Z    0.00000   0.00000   0.00000   0.00000   0.00000
   47 H15              S    0.02571  -0.06720  -0.07654   0.01009  -0.03725
   48 C16              S   -0.02471   0.08086   0.11749   0.01423   0.11027
   49 C16              S    0.06281  -0.20972  -0.30988  -0.03721  -0.29952
   50 C16              X    0.01194  -0.03616  -0.04782   0.00181  -0.03403
   51 C16              Y    0.02066  -0.05077  -0.05384  -0.00618  -0.01702
   52 C16              Z    0.00000   0.00000   0.00000   0.00000   0.00000
   53 H17              S    0.01411  -0.04857  -0.07413  -0.01456  -0.07745
   54 H18              S    0.01062  -0.04384  -0.07495  -0.00878  -0.09005
   55 C19              S   -0.09787   0.03889  -0.04628  -0.13222  -0.04112
   56 C19              S    0.24700  -0.10177   0.12134   0.35683   0.11363
   57 C19              X   -0.05348   0.02581  -0.01697   0.00277  -0.03558
   58 C19              Y    0.01318   0.05965   0.03665   0.05653  -0.09238
   59 C19              Z    0.00000   0.00000   0.00000   0.00000   0.00000
   60 H20              S    0.04499  -0.02681   0.02330   0.09840   0.03253
   
                             16        17        18        19        20
  eigenvalues-             -0.58872  -0.55899  -0.53165  -0.51022  -0.45745
  occupations-              2.00000   2.00000   2.00000   2.00000   2.00000
    1 C1               S   -0.07119  -0.05395  -0.01334   0.05468   0.03226
    2 C1               S    0.20687   0.15966   0.03807  -0.16248  -0.10632
    3 C1               X    0.12132  -0.18440  -0.05687  -0.01663  -0.05418
    4 C1               Y   -0.06988  -0.06757   0.13401  -0.14262   0.13169
    5 C1               Z    0.00000   0.00000   0.00000   0.00000   0.00000
    6 C2               S    0.08129  -0.05806  -0.03040  -0.05257  -0.01943
    7 C2               S   -0.23186   0.17239   0.09205   0.16698   0.05498
    8 C2               X    0.06628   0.09037   0.03826  -0.20114   0.08231
    9 C2               Y   -0.02298  -0.16784  -0.07699  -0.04117   0.13782
   10 C2               Z    0.00000   0.00000   0.00000   0.00000   0.00000
   11 C3               S   -0.00217   0.11045   0.05070  -0.00659   0.01315
   12 C3               S    0.00763  -0.32612  -0.15452   0.02424  -0.05088
   13 C3               X    0.02614   0.08285  -0.00530  -0.18151   0.14085
   14 C3               Y    0.16019  -0.03612  -0.00562  -0.09345  -0.13740
   15 C3               Z    0.00000   0.00000   0.00000   0.00000   0.00000
   16 C4               S   -0.07119  -0.05395   0.01334   0.05468   0.03226
   17 C4               S    0.20687   0.15966  -0.03807  -0.16248  -0.10632
   18 C4               X   -0.12132   0.18440  -0.05687   0.01663   0.05418
   19 C4               Y    0.06988   0.06757   0.13401   0.14262  -0.13169
   20 C4               Z    0.00000   0.00000   0.00000   0.00000   0.00000
   21 C5               S    0.08129  -0.05806   0.03040  -0.05257  -0.01943
   22 C5               S   -0.23186   0.17239  -0.09205   0.16698   0.05498
   23 C5               X   -0.06628  -0.09037   0.03826   0.20114  -0.08231
   24 C5               Y    0.02298   0.16784  -0.07699   0.04117  -0.13782
   25 C5               Z    0.00000   0.00000   0.00000   0.00000   0.00000
   26 H6               S   -0.10527   0.08375   0.05475   0.16965  -0.09078
   27 H7               S    0.01843  -0.16979  -0.05024   0.09816  -0.13600
   28 H8               S   -0.10527   0.08375  -0.05475   0.16965  -0.09078
   29 C9               S   -0.05320  -0.00724  -0.09888  -0.05919  -0.03994
   30 C9               S    0.16000   0.02349   0.30271   0.18089   0.12690
   31 C9               X   -0.07801   0.04951  -0.11493  -0.06447  -0.11929
   32 C9               Y   -0.13195  -0.07545  -0.04408   0.00047   0.18197
   33 C9               Z    0.00000   0.00000   0.00000   0.00000   0.00000
   34 C10              S    0.08420   0.03701   0.08074   0.05136   0.01672
   35 C10              S   -0.24286  -0.11101  -0.24914  -0.16289  -0.06286
   36 C10              X   -0.03449   0.01534  -0.12060  -0.07749  -0.21325
   37 C10              Y   -0.03982  -0.04892  -0.09483  -0.08380   0.00392
   38 C10              Z    0.00000   0.00000   0.00000   0.00000   0.00000
   39 H11              S   -0.10381  -0.02196  -0.16037  -0.09501  -0.17909
   40 H12              S    0.08032  -0.03296   0.17058   0.11260   0.15243
   41 H13              S   -0.09855  -0.06699  -0.12488  -0.09690   0.02201
   42 C14              S   -0.05320  -0.00724   0.09888  -0.05919  -0.03994
   43 C14              S    0.16000   0.02349  -0.30271   0.18089   0.12690
   44 C14              X    0.07801  -0.04951  -0.11493   0.06447   0.11929
   45 C14              Y    0.13195   0.07545  -0.04408  -0.00047  -0.18197
   46 C14              Z    0.00000   0.00000   0.00000   0.00000   0.00000
   47 H15              S    0.08032  -0.03296  -0.17058   0.11260   0.15243
   48 C16              S    0.08420   0.03701  -0.08074   0.05136   0.01672
   49 C16              S   -0.24286  -0.11101   0.24914  -0.16289  -0.06286
   50 C16              X    0.03449  -0.01534  -0.12060   0.07749   0.21325
   51 C16              Y    0.03982   0.04892  -0.09483   0.08380  -0.00392
   52 C16              Z    0.00000   0.00000   0.00000   0.00000   0.00000
   53 H17              S   -0.10381  -0.02196   0.16037  -0.09501  -0.17909
   54 H18              S   -0.09855  -0.06699   0.12488  -0.09690   0.02201
   55 C19              S   -0.00217   0.11045  -0.05070  -0.00659   0.01315
   56 C19              S    0.00763  -0.32612   0.15452   0.02424  -0.05088
   57 C19              X   -0.02614  -0.08285  -0.00530   0.18151  -0.14085
   58 C19              Y   -0.16019   0.03612  -0.00562   0.09345   0.13740
   59 C19              Z    0.00000   0.00000   0.00000   0.00000   0.00000
   60 H20              S    0.01843  -0.16979   0.05024   0.09816  -0.13600
   
                             21        22        23        24        25
  eigenvalues-             -0.43936  -0.41063  -0.39799  -0.39601  -0.37403
  occupations-              2.00000   2.00000   2.00000   2.00000   2.00000
    1 C1               S    0.02296   0.06915   0.02292   0.02165  -0.00315
    2 C1               S   -0.07870  -0.23431  -0.07791  -0.07149   0.01108
    3 C1               X    0.12189  -0.10059   0.22226  -0.01560   0.08425
    4 C1               Y    0.13782  -0.02800  -0.13890   0.01003   0.07983
    5 C1               Z    0.00000   0.00000   0.00000   0.00000   0.00000
    6 C2               S   -0.04233  -0.04422   0.01153   0.01838   0.02012
    7 C2               S    0.13805   0.15358  -0.03577  -0.06845  -0.06368
    8 C2               X   -0.09961  -0.10925  -0.25193   0.03402  -0.18333
    9 C2               Y    0.09896  -0.18099   0.04956   0.13683  -0.22916
   10 C2               Z    0.00000   0.00000   0.00000   0.00000   0.00000
   11 C3               S    0.02214   0.04769  -0.00109  -0.02535   0.02861
   12 C3               S   -0.07455  -0.16400   0.00086   0.08471  -0.09115
   13 C3               X    0.02266   0.21865   0.00810   0.00813  -0.31208
   14 C3               Y   -0.18400   0.06685  -0.11895  -0.08096   0.13751
   15 C3               Z    0.00000   0.00000   0.00000   0.00000   0.00000
   16 C4               S   -0.02296  -0.06915  -0.02292   0.02165   0.00315
   17 C4               S    0.07870   0.23431   0.07791  -0.07149  -0.01108
   18 C4               X    0.12189  -0.10059   0.22226   0.01560   0.08425
   19 C4               Y    0.13782  -0.02800  -0.13890  -0.01003   0.07983
   20 C4               Z    0.00000   0.00000   0.00000   0.00000   0.00000
   21 C5               S    0.04233   0.04422  -0.01153   0.01838  -0.02012
   22 C5               S   -0.13805  -0.15358   0.03577  -0.06845   0.06368
   23 C5               X   -0.09961  -0.10925  -0.25193  -0.03402  -0.18333
   24 C5               Y    0.09896  -0.18099   0.04956  -0.13683  -0.22916
   25 C5               Z    0.00000   0.00000   0.00000   0.00000   0.00000
   26 H6               S    0.06079   0.23085   0.13368  -0.11386   0.21755
   27 H7               S   -0.09994  -0.22551  -0.03836   0.00662   0.25337
   28 H8               S   -0.06079  -0.23085  -0.13368  -0.11386  -0.21755
   29 C9               S   -0.01680   0.01510   0.00252  -0.02758   0.00184
   30 C9               S    0.05129  -0.04151  -0.01476   0.08031  -0.00431
   31 C9               X    0.22218  -0.03695   0.03832   0.25002   0.01896
   32 C9               Y   -0.09508  -0.12839   0.18292   0.08875  -0.06449
   33 C9               Z    0.00000   0.00000   0.00000   0.00000   0.00000
   34 C10              S    0.00802  -0.01185  -0.00107  -0.00453  -0.00425
   35 C10              S   -0.03097   0.04965  -0.00752   0.00017   0.01773
   36 C10              X    0.09572   0.07433  -0.25239  -0.00370   0.07622
   37 C10              Y   -0.20789   0.13649   0.03152  -0.33918  -0.00425
   38 C10              Z    0.00000   0.00000   0.00000   0.00000   0.00000
   39 H11              S    0.07274   0.04391  -0.21597   0.02392   0.05393
   40 H12              S   -0.15582  -0.02634  -0.01286  -0.14567  -0.01477
   41 H13              S   -0.17789   0.10483   0.08741  -0.26204  -0.01613
   42 C14              S    0.01680  -0.01510  -0.00252  -0.02758  -0.00184
   43 C14              S   -0.05129   0.04151   0.01476   0.08031   0.00431
   44 C14              X    0.22218  -0.03695   0.03832  -0.25002   0.01896
   45 C14              Y   -0.09508  -0.12839   0.18292  -0.08875  -0.06449
   46 C14              Z    0.00000   0.00000   0.00000   0.00000   0.00000
   47 H15              S    0.15582   0.02634   0.01286  -0.14567   0.01477
   48 C16              S   -0.00802   0.01185   0.00107  -0.00453   0.00425
   49 C16              S    0.03097  -0.04965   0.00752   0.00017  -0.01773
   50 C16              X    0.09572   0.07433  -0.25239   0.00370   0.07622
   51 C16              Y   -0.20789   0.13649   0.03152   0.33918  -0.00425
   52 C16              Z    0.00000   0.00000   0.00000   0.00000   0.00000
   53 H17              S   -0.07274  -0.04391   0.21597   0.02392  -0.05393
   54 H18              S    0.17789  -0.10483  -0.08741  -0.26204   0.01613
   55 C19              S   -0.02214  -0.04769   0.00109  -0.02535  -0.02861
   56 C19              S    0.07455   0.16400  -0.00086   0.08471   0.09115
   57 C19              X    0.02266   0.21865   0.00810  -0.00813  -0.31208
   58 C19              Y   -0.18400   0.06685  -0.11895   0.08096   0.13751
   59 C19              Z    0.00000   0.00000   0.00000   0.00000   0.00000
   60 H20              S    0.09994   0.22551   0.03836   0.00662  -0.25337
   
                             26        27        28        29        30
  eigenvalues-             -0.35116  -0.34726  -0.32460  -0.31126  -0.29284
  occupations-              2.00000   2.00000   2.00000   2.00000   2.00000
    1 C1               S    0.00296   0.02521   0.00000   0.01056  -0.00357
    2 C1               S   -0.01093  -0.09073   0.00000  -0.04592   0.02345
    3 C1               X    0.16483   0.08704   0.00000  -0.09771  -0.11749
    4 C1               Y    0.18115   0.00101   0.00000   0.24033  -0.27340
    5 C1               Z    0.00000   0.00000   0.33752   0.00000   0.00000
    6 C2               S   -0.00661  -0.00757   0.00000  -0.01377  -0.00854
    7 C2               S    0.01848   0.02544   0.00000   0.04729   0.02348
    8 C2               X   -0.07557  -0.06514   0.00000   0.14346   0.06947
    9 C2               Y    0.19340   0.13945   0.00000  -0.00594   0.23800
   10 C2               Z    0.00000   0.00000   0.29707   0.00000   0.00000
   11 C3               S    0.01728   0.00529   0.00000   0.00707   0.00220
   12 C3               S   -0.06256  -0.02689   0.00000  -0.02191  -0.00715
   13 C3               X   -0.09603   0.13050   0.00000  -0.06709  -0.12118
   14 C3               Y   -0.22792  -0.13193   0.00000   0.03998  -0.28206
   15 C3               Z    0.00000   0.00000   0.29780   0.00000   0.00000
   16 C4               S   -0.00296   0.02521   0.00000  -0.01056  -0.00357
   17 C4               S    0.01093  -0.09073   0.00000   0.04592   0.02345
   18 C4               X    0.16483  -0.08704   0.00000  -0.09771   0.11749
   19 C4               Y    0.18115  -0.00101   0.00000   0.24033   0.27340
   20 C4               Z    0.00000   0.00000   0.33752   0.00000   0.00000
   21 C5               S    0.00661  -0.00757   0.00000   0.01377  -0.00854
   22 C5               S   -0.01848   0.02544   0.00000  -0.04729   0.02348
   23 C5               X   -0.07557   0.06514   0.00000   0.14346  -0.06947
   24 C5               Y    0.19340  -0.13945   0.00000  -0.00594  -0.23800
   25 C5               Z    0.00000   0.00000   0.29707   0.00000   0.00000
   26 H6               S   -0.04746   0.00577   0.00000  -0.05278  -0.23723
   27 H7               S   -0.00669  -0.15559   0.00000   0.04758   0.01514
   28 H8               S    0.04746   0.00577   0.00000   0.05278  -0.23723
   29 C9               S    0.00114  -0.01706   0.00000  -0.00257  -0.02002
   30 C9               S    0.01216   0.07188   0.00000   0.00603   0.08317
   31 C9               X   -0.19657  -0.20601   0.00000   0.22102   0.05387
   32 C9               Y   -0.19076  -0.09263   0.00000  -0.16470  -0.24874
   33 C9               Z    0.00000   0.00000   0.17431   0.00000   0.00000
   34 C10              S    0.02052   0.01046   0.00000  -0.00342   0.00827
   35 C10              S   -0.05667  -0.02684   0.00000   0.01418  -0.02116
   36 C10              X    0.11248   0.29665   0.00000  -0.20218   0.01987
   37 C10              Y    0.24770  -0.04167   0.00000   0.13259   0.14639
   38 C10              Z    0.00000   0.00000   0.09274   0.00000   0.00000
   39 H11              S    0.05078   0.26809   0.00000  -0.23034  -0.05609
   40 H12              S    0.14587   0.20024   0.00000  -0.25879  -0.07135
   41 H13              S    0.15712  -0.14381   0.00000   0.21279   0.13789
   42 C14              S   -0.00114  -0.01706   0.00000   0.00257  -0.02002
   43 C14              S   -0.01216   0.07188   0.00000  -0.00603   0.08317
   44 C14              X   -0.19657   0.20601   0.00000   0.22102  -0.05387
   45 C14              Y   -0.19076   0.09263   0.00000  -0.16470   0.24874
   46 C14              Z    0.00000   0.00000   0.17431   0.00000   0.00000
   47 H15              S   -0.14587   0.20024   0.00000   0.25879  -0.07135
   48 C16              S   -0.02052   0.01046   0.00000   0.00342   0.00827
   49 C16              S    0.05667  -0.02684   0.00000  -0.01418  -0.02116
   50 C16              X    0.11248  -0.29665   0.00000  -0.20218  -0.01987
   51 C16              Y    0.24770   0.04167   0.00000   0.13259  -0.14639
   52 C16              Z    0.00000   0.00000   0.09274   0.00000   0.00000
   53 H17              S   -0.05078   0.26809   0.00000   0.23034  -0.05609
   54 H18              S   -0.15712  -0.14381   0.00000  -0.21279   0.13789
   55 C19              S   -0.01728   0.00529   0.00000  -0.00707   0.00220
   56 C19              S    0.06256  -0.02689   0.00000   0.02191  -0.00715
   57 C19              X   -0.09603  -0.13050   0.00000  -0.06709   0.12118
   58 C19              Y   -0.22792   0.13193   0.00000   0.03998   0.28206
   59 C19              Z    0.00000   0.00000   0.29780   0.00000   0.00000
   60 H20              S    0.00669  -0.15559   0.00000  -0.04758   0.01514
   
                             31        32        33        34        35
  eigenvalues-             -0.28753  -0.26357  -0.21240  -0.19514  -0.15309
  occupations-              2.00000   2.00000   2.00000   2.00000   2.00000
    1 C1               S    0.00703   0.00000   0.00000   0.00000   0.00000
    2 C1               S   -0.03387   0.00000   0.00000   0.00000   0.00000
    3 C1               X   -0.30134   0.00000   0.00000   0.00000   0.00000
    4 C1               Y    0.08122   0.00000   0.00000   0.00000   0.00000
    5 C1               Z    0.00000   0.34845   0.01813  -0.00498   0.38796
    6 C2               S   -0.00802   0.00000   0.00000   0.00000   0.00000
    7 C2               S    0.02315   0.00000   0.00000   0.00000   0.00000
    8 C2               X    0.28409   0.00000   0.00000   0.00000   0.00000
    9 C2               Y   -0.08514   0.00000   0.00000   0.00000   0.00000
   10 C2               Z    0.00000   0.13240   0.17693   0.45796   0.22929
   11 C3               S    0.01200   0.00000   0.00000   0.00000   0.00000
   12 C3               S   -0.03551   0.00000   0.00000   0.00000   0.00000
   13 C3               X   -0.22679   0.00000   0.00000   0.00000   0.00000
   14 C3               Y    0.03746   0.00000   0.00000   0.00000   0.00000
   15 C3               Z    0.00000  -0.13065   0.17944   0.46329  -0.21673
   16 C4               S    0.00703   0.00000   0.00000   0.00000   0.00000
   17 C4               S   -0.03387   0.00000   0.00000   0.00000   0.00000
   18 C4               X    0.30134   0.00000   0.00000   0.00000   0.00000
   19 C4               Y   -0.08122   0.00000   0.00000   0.00000   0.00000
   20 C4               Z    0.00000  -0.34845   0.01813   0.00498  -0.38796
   21 C5               S   -0.00802   0.00000   0.00000   0.00000   0.00000
   22 C5               S    0.02315   0.00000   0.00000   0.00000   0.00000
   23 C5               X   -0.28409   0.00000   0.00000   0.00000   0.00000
   24 C5               Y    0.08514   0.00000   0.00000   0.00000   0.00000
   25 C5               Z    0.00000  -0.13240   0.17693  -0.45796  -0.22929
   26 H6               S   -0.15715   0.00000   0.00000   0.00000   0.00000
   27 H7               S    0.25926   0.00000   0.00000   0.00000   0.00000
   28 H8               S   -0.15715   0.00000   0.00000   0.00000   0.00000
   29 C9               S    0.01067   0.00000   0.00000   0.00000   0.00000
   30 C9               S   -0.03658   0.00000   0.00000   0.00000   0.00000
   31 C9               X   -0.13755   0.00000   0.00000   0.00000   0.00000
   32 C9               Y    0.10363   0.00000   0.00000   0.00000   0.00000
   33 C9               Z    0.00000  -0.37681  -0.41363   0.00177   0.22301
   34 C10              S    0.00482   0.00000   0.00000   0.00000   0.00000
   35 C10              S   -0.01877   0.00000   0.00000   0.00000   0.00000
   36 C10              X    0.10949   0.00000   0.00000   0.00000   0.00000
   37 C10              Y   -0.03170   0.00000   0.00000   0.00000   0.00000
   38 C10              Z    0.00000  -0.27186  -0.41785  -0.00792   0.39723
   39 H11              S    0.11342   0.00000   0.00000   0.00000   0.00000
   40 H12              S    0.18034   0.00000   0.00000   0.00000   0.00000
   41 H13              S   -0.08635   0.00000   0.00000   0.00000   0.00000
   42 C14              S    0.01067   0.00000   0.00000   0.00000   0.00000
   43 C14              S   -0.03658   0.00000   0.00000   0.00000   0.00000
   44 C14              X    0.13755   0.00000   0.00000   0.00000   0.00000
   45 C14              Y   -0.10363   0.00000   0.00000   0.00000   0.00000
   46 C14              Z    0.00000   0.37681  -0.41363  -0.00177  -0.22301
   47 H15              S    0.18034   0.00000   0.00000   0.00000   0.00000
   48 C16              S    0.00482   0.00000   0.00000   0.00000   0.00000
   49 C16              S   -0.01877   0.00000   0.00000   0.00000   0.00000
   50 C16              X   -0.10949   0.00000   0.00000   0.00000   0.00000
   51 C16              Y    0.03170   0.00000   0.00000   0.00000   0.00000
   52 C16              Z    0.00000   0.27186  -0.41785   0.00792  -0.39723
   53 H17              S    0.11342   0.00000   0.00000   0.00000   0.00000
   54 H18              S   -0.08635   0.00000   0.00000   0.00000   0.00000
   55 C19              S    0.01200   0.00000   0.00000   0.00000   0.00000
   56 C19              S   -0.03551   0.00000   0.00000   0.00000   0.00000
   57 C19              X    0.22679   0.00000   0.00000   0.00000   0.00000
   58 C19              Y   -0.03746   0.00000   0.00000   0.00000   0.00000
   59 C19              Z    0.00000   0.13065   0.17944  -0.46329   0.21673
   60 H20              S    0.25926   0.00000   0.00000   0.00000   0.00000
   
                             36        37        38        39        40
  eigenvalues-              0.03741   0.09028   0.11066   0.18217   0.27243
  occupations-              0.00000   0.00000   0.00000   0.00000   0.00000
    1 C1               S    0.00000   0.00000   0.00000   0.00000   0.00000
    2 C1               S    0.00000   0.00000   0.00000   0.00000   0.00000
    3 C1               X    0.00000   0.00000   0.00000   0.00000   0.00000
    4 C1               Y    0.00000   0.00000   0.00000   0.00000   0.00000
    5 C1               Z    0.44277   0.03173   0.02318  -0.49727  -0.54357
    6 C2               S    0.00000   0.00000   0.00000   0.00000   0.00000
    7 C2               S    0.00000   0.00000   0.00000   0.00000   0.00000
    8 C2               X    0.00000   0.00000   0.00000   0.00000   0.00000
    9 C2               Y    0.00000   0.00000   0.00000   0.00000   0.00000
   10 C2               Z   -0.27703   0.55343  -0.23223   0.19952   0.46722
   11 C3               S    0.00000   0.00000   0.00000   0.00000   0.00000
   12 C3               S    0.00000   0.00000   0.00000   0.00000   0.00000
   13 C3               X    0.00000   0.00000   0.00000   0.00000   0.00000
   14 C3               Y    0.00000   0.00000   0.00000   0.00000   0.00000
   15 C3               Z   -0.23267  -0.58266   0.24071   0.16623  -0.46405
   16 C4               S    0.00000   0.00000   0.00000   0.00000   0.00000
   17 C4               S    0.00000   0.00000   0.00000   0.00000   0.00000
   18 C4               X    0.00000   0.00000   0.00000   0.00000   0.00000
   19 C4               Y    0.00000   0.00000   0.00000   0.00000   0.00000
   20 C4               Z    0.44277   0.03173  -0.02318  -0.49727   0.54357
   21 C5               S    0.00000   0.00000   0.00000   0.00000   0.00000
   22 C5               S    0.00000   0.00000   0.00000   0.00000   0.00000
   23 C5               X    0.00000   0.00000   0.00000   0.00000   0.00000
   24 C5               Y    0.00000   0.00000   0.00000   0.00000   0.00000
   25 C5               Z   -0.27703   0.55343   0.23223   0.19952  -0.46722
   26 H6               S    0.00000   0.00000   0.00000   0.00000   0.00000
   27 H7               S    0.00000   0.00000   0.00000   0.00000   0.00000
   28 H8               S    0.00000   0.00000   0.00000   0.00000   0.00000
   29 C9               S    0.00000   0.00000   0.00000   0.00000   0.00000
   30 C9               S    0.00000   0.00000   0.00000   0.00000   0.00000
   31 C9               X    0.00000   0.00000   0.00000   0.00000   0.00000
   32 C9               Y    0.00000   0.00000   0.00000   0.00000   0.00000
   33 C9               Z    0.25598  -0.00437  -0.52223   0.52922  -0.28772
   34 C10              S    0.00000   0.00000   0.00000   0.00000   0.00000
   35 C10              S    0.00000   0.00000   0.00000   0.00000   0.00000
   36 C10              X    0.00000   0.00000   0.00000   0.00000   0.00000
   37 C10              Y    0.00000   0.00000   0.00000   0.00000   0.00000
   38 C10              Z   -0.44968  -0.01009   0.52303  -0.37968   0.15601
   39 H11              S    0.00000   0.00000   0.00000   0.00000   0.00000
   40 H12              S    0.00000   0.00000   0.00000   0.00000   0.00000
   41 H13              S    0.00000   0.00000   0.00000   0.00000   0.00000
   42 C14              S    0.00000   0.00000   0.00000   0.00000   0.00000
   43 C14              S    0.00000   0.00000   0.00000   0.00000   0.00000
   44 C14              X    0.00000   0.00000   0.00000   0.00000   0.00000
   45 C14              Y    0.00000   0.00000   0.00000   0.00000   0.00000
   46 C14              Z    0.25598  -0.00437   0.52223   0.52922   0.28772
   47 H15              S    0.00000   0.00000   0.00000   0.00000   0.00000
   48 C16              S    0.00000   0.00000   0.00000   0.00000   0.00000
   49 C16              S    0.00000   0.00000   0.00000   0.00000   0.00000
   50 C16              X    0.00000   0.00000   0.00000   0.00000   0.00000
   51 C16              Y    0.00000   0.00000   0.00000   0.00000   0.00000
   52 C16              Z   -0.44968  -0.01009  -0.52303  -0.37968  -0.15601
   53 H17              S    0.00000   0.00000   0.00000   0.00000   0.00000
   54 H18              S    0.00000   0.00000   0.00000   0.00000   0.00000
   55 C19              S    0.00000   0.00000   0.00000   0.00000   0.00000
   56 C19              S    0.00000   0.00000   0.00000   0.00000   0.00000
   57 C19              X    0.00000   0.00000   0.00000   0.00000   0.00000
   58 C19              Y    0.00000   0.00000   0.00000   0.00000   0.00000
   59 C19              Z   -0.23267  -0.58266  -0.24071   0.16623   0.46405
   60 H20              S    0.00000   0.00000   0.00000   0.00000   0.00000
   
                             41        42        43        44        45
  eigenvalues-              0.33220   0.34072   0.37930   0.38146   0.41097
  occupations-              0.00000   0.00000   0.00000   0.00000   0.00000
    1 C1               S    0.06829   0.03445   0.05778   0.02324  -0.05158
    2 C1               S   -0.40198  -0.20225  -0.33524  -0.14014   0.31147
    3 C1               X   -0.09531  -0.28764   0.08754  -0.09914  -0.25881
    4 C1               Y    0.27016   0.12941   0.46297  -0.07844  -0.16098
    5 C1               Z    0.00000   0.00000   0.00000   0.00000   0.00000
    6 C2               S    0.04640  -0.01587  -0.00442  -0.02112   0.10136
    7 C2               S   -0.28022   0.09633   0.01934   0.13463  -0.61951
    8 C2               X    0.19948  -0.28279   0.26208  -0.17022  -0.03956
    9 C2               Y    0.12837   0.00034   0.33009  -0.21330  -0.01440
   10 C2               Z    0.00000   0.00000   0.00000   0.00000   0.00000
   11 C3               S    0.02806   0.00630   0.02501  -0.06451  -0.07362
   12 C3               S   -0.17278  -0.03079  -0.15231   0.39398   0.45036
   13 C3               X    0.30650  -0.35573   0.12867  -0.00638  -0.04160
   14 C3               Y   -0.04480   0.00112   0.23425   0.12547  -0.16272
   15 C3               Z    0.00000   0.00000   0.00000   0.00000   0.00000
   16 C4               S    0.06829  -0.03445  -0.05778   0.02324  -0.05158
   17 C4               S   -0.40198   0.20225   0.33524  -0.14014   0.31147
   18 C4               X    0.09531  -0.28764   0.08754   0.09914   0.25881
   19 C4               Y   -0.27016   0.12941   0.46297   0.07844   0.16098
   20 C4               Z    0.00000   0.00000   0.00000   0.00000   0.00000
   21 C5               S    0.04640   0.01587   0.00442  -0.02112   0.10136
   22 C5               S   -0.28022  -0.09633  -0.01934   0.13463  -0.61951
   23 C5               X   -0.19948  -0.28279   0.26208   0.17022   0.03956
   24 C5               Y   -0.12837   0.00034   0.33009   0.21330   0.01440
   25 C5               Z    0.00000   0.00000   0.00000   0.00000   0.00000
   26 H6               S    0.42329  -0.26859   0.41167  -0.30066   0.22162
   27 H7               S    0.41345  -0.31989   0.11827  -0.29354  -0.22866
   28 H8               S    0.42329   0.26859  -0.41167  -0.30066   0.22162
   29 C9               S   -0.04924  -0.00770   0.09280   0.06352   0.02417
   30 C9               S    0.27760   0.04725  -0.54232  -0.38201  -0.15392
   31 C9               X    0.25510  -0.35044  -0.06663   0.33579   0.13665
   32 C9               Y   -0.33293   0.21035   0.33128  -0.06490   0.23648
   33 C9               Z    0.00000   0.00000   0.00000   0.00000   0.00000
   34 C10              S    0.03975  -0.00253  -0.04957  -0.02101   0.10386
   35 C10              S   -0.23007   0.01911   0.28953   0.11754  -0.65032
   36 C10              X    0.14511  -0.30679  -0.10607   0.30995  -0.23114
   37 C10              Y   -0.14454   0.16003   0.13738  -0.22911  -0.08444
   38 C10              Z    0.00000   0.00000   0.00000   0.00000   0.00000
   39 H11              S   -0.11352   0.32376   0.01490  -0.39418   0.51064
   40 H12              S    0.14883  -0.43476   0.15709   0.57598   0.17202
   41 H13              S    0.35606  -0.28570  -0.34613   0.24870   0.32487
   42 C14              S   -0.04924   0.00770  -0.09280   0.06352   0.02417
   43 C14              S    0.27760  -0.04725   0.54232  -0.38201  -0.15392
   44 C14              X   -0.25510  -0.35044  -0.06663  -0.33579  -0.13665
   45 C14              Y    0.33293   0.21035   0.33128   0.06490  -0.23648
   46 C14              Z    0.00000   0.00000   0.00000   0.00000   0.00000
   47 H15              S    0.14883   0.43476  -0.15709   0.57598   0.17202
   48 C16              S    0.03975   0.00253   0.04957  -0.02101   0.10386
   49 C16              S   -0.23007  -0.01911  -0.28953   0.11754  -0.65032
   50 C16              X   -0.14511  -0.30679  -0.10607  -0.30995   0.23114
   51 C16              Y    0.14454   0.16003   0.13738   0.22911   0.08444
   52 C16              Z    0.00000   0.00000   0.00000   0.00000   0.00000
   53 H17              S   -0.11352  -0.32376  -0.01490  -0.39418   0.51064
   54 H18              S    0.35606   0.28570   0.34613   0.24870   0.32487
   55 C19              S    0.02806  -0.00630  -0.02501  -0.06451  -0.07362
   56 C19              S   -0.17278   0.03079   0.15231   0.39398   0.45036
   57 C19              X   -0.30650  -0.35573   0.12867   0.00638   0.04160
   58 C19              Y    0.04480   0.00112   0.23425  -0.12547   0.16272
   59 C19              Z    0.00000   0.00000   0.00000   0.00000   0.00000
   60 H20              S    0.41345   0.31989  -0.11827  -0.29354  -0.22866
   
                             46        47        48        49        50
  eigenvalues-              0.41195   0.42676   0.43958   0.45278   0.47826
  occupations-              0.00000   0.00000   0.00000   0.00000   0.00000
    1 C1               S    0.08164   0.01993   0.12919  -0.06159  -0.03768
    2 C1               S   -0.47934  -0.12523  -0.78399   0.36616   0.23539
    3 C1               X    0.11786   0.11886   0.02260   0.13868   0.34718
    4 C1               Y    0.01587  -0.23965  -0.02896   0.11227   0.06037
    5 C1               Z    0.00000   0.00000   0.00000   0.00000   0.00000
    6 C2               S   -0.10178  -0.00540  -0.06654   0.06643  -0.09696
    7 C2               S    0.61550   0.02122   0.41566  -0.40717   0.61491
    8 C2               X    0.00058   0.21277   0.24069   0.16449  -0.14277
    9 C2               Y   -0.13706  -0.10431  -0.24211   0.14450   0.17840
   10 C2               Z    0.00000   0.00000   0.00000   0.00000   0.00000
   11 C3               S    0.07467   0.05747  -0.07879  -0.05879   0.11198
   12 C3               S   -0.44398  -0.35653   0.49188   0.35600  -0.70776
   13 C3               X    0.10383   0.32665  -0.02134   0.14064  -0.09718
   14 C3               Y    0.01979  -0.30603   0.28051   0.13335   0.11159
   15 C3               Z    0.00000   0.00000   0.00000   0.00000   0.00000
   16 C4               S   -0.08164  -0.01993   0.12919   0.06159  -0.03768
   17 C4               S    0.47934   0.12523  -0.78399  -0.36616   0.23539
   18 C4               X    0.11786   0.11886  -0.02260   0.13868  -0.34718
   19 C4               Y    0.01587  -0.23965   0.02896   0.11227  -0.06037
   20 C4               Z    0.00000   0.00000   0.00000   0.00000   0.00000
   21 C5               S    0.10178   0.00540  -0.06654  -0.06643  -0.09696
   22 C5               S   -0.61550  -0.02122   0.41566   0.40717   0.61491
   23 C5               X    0.00058   0.21277  -0.24069   0.16449   0.14277
   24 C5               Y   -0.13706  -0.10431   0.24211   0.14450  -0.17840
   25 C5               Z    0.00000   0.00000   0.00000   0.00000   0.00000
   26 H6               S   -0.35623   0.05315  -0.19686   0.47147  -0.33044
   27 H7               S    0.32990   0.59882  -0.31561  -0.08302   0.22002
   28 H8               S    0.35623  -0.05315  -0.19686  -0.47147  -0.33044
   29 C9               S    0.03968  -0.07276  -0.09330  -0.07106   0.03092
   30 C9               S   -0.25044   0.45654   0.56359   0.42984  -0.21581
   31 C9               X    0.15525  -0.22368  -0.11339  -0.06088   0.03146
   32 C9               Y    0.17684  -0.05896  -0.09041   0.11397   0.07375
   33 C9               Z    0.00000   0.00000   0.00000   0.00000   0.00000
   34 C10              S    0.08541  -0.02016   0.06783   0.11393   0.06460
   35 C10              S   -0.53703   0.13514  -0.41203  -0.71317  -0.41512
   36 C10              X   -0.24668  -0.05607   0.00221  -0.14480  -0.12364
   37 C10              Y   -0.13780   0.29738  -0.04982  -0.03245  -0.38681
   38 C10              Z    0.00000   0.00000   0.00000   0.00000   0.00000
   39 H11              S    0.44730   0.04916   0.21245   0.52620   0.29457
   40 H12              S    0.20624  -0.44158  -0.36765  -0.29622   0.07546
   41 H13              S    0.31241  -0.33930   0.25953   0.33075   0.47611
   42 C14              S   -0.03968   0.07276  -0.09330   0.07106   0.03092
   43 C14              S    0.25044  -0.45654   0.56359  -0.42984  -0.21581
   44 C14              X    0.15525  -0.22368   0.11339  -0.06088  -0.03146
   45 C14              Y    0.17684  -0.05896   0.09041   0.11397  -0.07375
   46 C14              Z    0.00000   0.00000   0.00000   0.00000   0.00000
   47 H15              S   -0.20624   0.44158  -0.36765   0.29622   0.07546
   48 C16              S   -0.08541   0.02016   0.06783  -0.11393   0.06460
   49 C16              S    0.53703  -0.13514  -0.41203   0.71317  -0.41512
   50 C16              X   -0.24668  -0.05607  -0.00221  -0.14480   0.12364
   51 C16              Y   -0.13780   0.29738   0.04982  -0.03245   0.38681
   52 C16              Z    0.00000   0.00000   0.00000   0.00000   0.00000
   53 H17              S   -0.44730  -0.04916   0.21245  -0.52620   0.29457
   54 H18              S   -0.31241   0.33930   0.25953  -0.33075   0.47611
   55 C19              S   -0.07467  -0.05747  -0.07879   0.05879   0.11198
   56 C19              S    0.44398   0.35653   0.49188  -0.35600  -0.70776
   57 C19              X    0.10383   0.32665   0.02134   0.14064   0.09718
   58 C19              Y    0.01979  -0.30603  -0.28051   0.13335  -0.11159
   59 C19              Z    0.00000   0.00000   0.00000   0.00000   0.00000
   60 H20              S   -0.32990  -0.59882  -0.31561   0.08302   0.22002
   
                             51        52        53        54        55
  eigenvalues-              0.52619   0.54578   0.57595   0.59938   0.62498
  occupations-              0.00000   0.00000   0.00000   0.00000   0.00000
    1 C1               S   -0.06728  -0.00380  -0.00188   0.05710  -0.09047
    2 C1               S    0.44901   0.01523   0.01891  -0.39475   0.61289
    3 C1               X   -0.13907   0.56115  -0.20852  -0.24852  -0.20686
    4 C1               Y    0.59815   0.07843   0.05321  -0.00079  -0.05950
    5 C1               Z    0.00000   0.00000   0.00000   0.00000   0.00000
    6 C2               S    0.04920  -0.03562   0.00342   0.08767   0.03303
    7 C2               S   -0.31891   0.24848  -0.02955  -0.60266  -0.21762
    8 C2               X   -0.31263   0.20178  -0.52265   0.33763  -0.37594
    9 C2               Y   -0.02286  -0.47079  -0.40970  -0.38810   0.18552
   10 C2               Z    0.00000   0.00000   0.00000   0.00000   0.00000
   11 C3               S    0.01207  -0.09703  -0.00249  -0.03730   0.00829
   12 C3               S   -0.07913   0.65032   0.02207   0.25372  -0.07037
   13 C3               X   -0.45868  -0.02176   0.53253  -0.19152   0.24839
   14 C3               Y   -0.16343   0.11374  -0.19256  -0.72626   0.10805
   15 C3               Z    0.00000   0.00000   0.00000   0.00000   0.00000
   16 C4               S   -0.06728   0.00380  -0.00188  -0.05710   0.09047
   17 C4               S    0.44901  -0.01523   0.01891   0.39475  -0.61289
   18 C4               X    0.13907   0.56115   0.20852  -0.24852  -0.20686
   19 C4               Y   -0.59815   0.07843  -0.05321  -0.00079  -0.05950
   20 C4               Z    0.00000   0.00000   0.00000   0.00000   0.00000
   21 C5               S    0.04920   0.03562   0.00342  -0.08767  -0.03303
   22 C5               S   -0.31891  -0.24848  -0.02955   0.60266   0.21762
   23 C5               X    0.31263   0.20178   0.52265   0.33763  -0.37594
   24 C5               Y    0.02286  -0.47079   0.40970  -0.38810   0.18552
   25 C5               Z    0.00000   0.00000   0.00000   0.00000   0.00000
   26 H6               S   -0.04421  -0.20921  -0.51887   0.25990  -0.00512
   27 H7               S   -0.26102  -0.30825   0.44808  -0.07606   0.13956
   28 H8               S   -0.04421   0.20921  -0.51887  -0.25990   0.00512
   29 C9               S   -0.07439  -0.02680  -0.05205   0.06081   0.02227
   30 C9               S    0.48626   0.19386   0.35569  -0.41780  -0.17209
   31 C9               X   -0.15401   0.26249   0.11289   0.07387   0.32287
   32 C9               Y    0.00237   0.05192   0.15628  -0.06950  -0.47087
   33 C9               Z    0.00000   0.00000   0.00000   0.00000   0.00000
   34 C10              S    0.01885   0.00868   0.04218  -0.00733  -0.01839
   35 C10              S   -0.11686  -0.06748  -0.28670   0.04598   0.13056
   36 C10              X    0.34613  -0.03251   0.08246  -0.26896  -0.53101
   37 C10              Y   -0.11918   0.48170   0.26542  -0.10731   0.22663
   38 C10              Z    0.00000   0.00000   0.00000   0.00000   0.00000
   39 H11              S   -0.23498   0.09677   0.13168   0.21030   0.36020
   40 H12              S   -0.30519   0.14754  -0.09583   0.24498   0.34763
   41 H13              S    0.24824  -0.35577  -0.06122  -0.01323  -0.34032
   42 C14              S   -0.07439   0.02680  -0.05205  -0.06081  -0.02227
   43 C14              S    0.48626  -0.19386   0.35569   0.41780   0.17209
   44 C14              X    0.15401   0.26249  -0.11289   0.07387   0.32287
   45 C14              Y   -0.00237   0.05192  -0.15628  -0.06950  -0.47087
   46 C14              Z    0.00000   0.00000   0.00000   0.00000   0.00000
   47 H15              S   -0.30519  -0.14754  -0.09583  -0.24498  -0.34763
   48 C16              S    0.01885  -0.00868   0.04218   0.00733   0.01839
   49 C16              S   -0.11686   0.06748  -0.28670  -0.04598  -0.13056
   50 C16              X   -0.34613  -0.03251  -0.08246  -0.26896  -0.53101
   51 C16              Y    0.11918   0.48170  -0.26542  -0.10731   0.22663
   52 C16              Z    0.00000   0.00000   0.00000   0.00000   0.00000
   53 H17              S   -0.23498  -0.09677   0.13168  -0.21030  -0.36020
   54 H18              S    0.24824   0.35577  -0.06122   0.01323   0.34032
   55 C19              S    0.01207   0.09703  -0.00249   0.03730  -0.00829
   56 C19              S   -0.07913  -0.65032   0.02207  -0.25372   0.07037
   57 C19              X    0.45868  -0.02176  -0.53253  -0.19152   0.24839
   58 C19              Y    0.16343   0.11374   0.19256  -0.72626   0.10805
   59 C19              Z    0.00000   0.00000   0.00000   0.00000   0.00000
   60 H20              S   -0.26102   0.30825   0.44808   0.07606  -0.13956
   
                             56        57        58        59        60
  eigenvalues-              0.63972   0.68280   0.71727   0.77949   0.79447
  occupations-              0.00000   0.00000   0.00000   0.00000   0.00000
    1 C1               S   -0.01520  -0.01608  -0.02071  -0.00501   0.04437
    2 C1               S    0.09134   0.10256   0.14598   0.03316  -0.33015
    3 C1               X    0.12613  -0.12220   0.44758   0.70006   0.18653
    4 C1               Y   -0.36209  -0.38601   0.15317   0.06586  -0.65339
    5 C1               Z    0.00000   0.00000   0.00000   0.00000   0.00000
    6 C2               S    0.03183  -0.01749  -0.02007  -0.00707  -0.05726
    7 C2               S   -0.21870   0.12651   0.15024   0.04803   0.41794
    8 C2               X    0.17892   0.01087   0.04541   0.44621   0.49184
    9 C2               Y   -0.29840   0.44880  -0.21419  -0.40233   0.40087
   10 C2               Z    0.00000   0.00000   0.00000   0.00000   0.00000
   11 C3               S   -0.02712   0.01916  -0.04638   0.00710   0.05133
   12 C3               S    0.19040  -0.13816   0.33530  -0.04909  -0.37219
   13 C3               X    0.26305   0.10347   0.19642  -0.22460  -0.57175
   14 C3               Y   -0.37443   0.39797   0.13220  -0.54128   0.22721
   15 C3               Z    0.00000   0.00000   0.00000   0.00000   0.00000
   16 C4               S   -0.01520  -0.01608   0.02071  -0.00501  -0.04437
   17 C4               S    0.09134   0.10256  -0.14598   0.03316   0.33015
   18 C4               X   -0.12613   0.12220   0.44758  -0.70006   0.18653
   19 C4               Y    0.36209   0.38601   0.15317  -0.06586  -0.65339
   20 C4               Z    0.00000   0.00000   0.00000   0.00000   0.00000
   21 C5               S    0.03183  -0.01749   0.02007  -0.00707   0.05726
   22 C5               S   -0.21870   0.12651  -0.15024   0.04803  -0.41794
   23 C5               X   -0.17892  -0.01087   0.04541  -0.44621   0.49184
   24 C5               Y    0.29840  -0.44880  -0.21419   0.40233   0.40087
   25 C5               Z    0.00000   0.00000   0.00000   0.00000   0.00000
   26 H6               S    0.05855   0.19119  -0.10573   0.04180   0.27556
   27 H7               S    0.20937   0.04177  -0.01802  -0.00660  -0.26974
   28 H8               S    0.05855   0.19119   0.10573   0.04180  -0.27556
   29 C9               S    0.04091  -0.04179   0.06145  -0.02712  -0.01251
   30 C9               S   -0.28390   0.32759  -0.46594   0.21579   0.07661
   31 C9               X   -0.55539   0.09644  -0.59754   0.42133   0.02545
   32 C9               Y    0.15914   0.66492  -0.47755   0.33108  -0.36275
   33 C9               Z    0.00000   0.00000   0.00000   0.00000   0.00000
   34 C10              S   -0.03112   0.04916  -0.07105   0.04153  -0.01014
   35 C10              S    0.22573  -0.36767   0.53623  -0.32482   0.08609
   36 C10              X    0.18423   0.57463  -0.38037   0.24779  -0.22041
   37 C10              Y   -0.53054   0.21516  -0.55020   0.32524  -0.01110
   38 C10              Z    0.00000   0.00000   0.00000   0.00000   0.00000
   39 H11              S   -0.28871  -0.26178   0.01143  -0.03410   0.13579
   40 H12              S   -0.31747  -0.14497  -0.17356   0.15833   0.04556
   41 H13              S    0.33226   0.11577   0.09368  -0.04724  -0.06425
   42 C14              S    0.04091  -0.04179  -0.06145  -0.02712   0.01251
   43 C14              S   -0.28390   0.32759   0.46594   0.21579  -0.07661
   44 C14              X    0.55539  -0.09644  -0.59754  -0.42133   0.02545
   45 C14              Y   -0.15914  -0.66492  -0.47755  -0.33108  -0.36275
   46 C14              Z    0.00000   0.00000   0.00000   0.00000   0.00000
   47 H15              S   -0.31747  -0.14497   0.17356   0.15833  -0.04556
   48 C16              S   -0.03112   0.04916   0.07105   0.04153   0.01014
   49 C16              S    0.22573  -0.36767  -0.53623  -0.32482  -0.08609
   50 C16              X   -0.18423  -0.57463  -0.38037  -0.24779  -0.22041
   51 C16              Y    0.53054  -0.21516  -0.55020  -0.32524  -0.01110
   52 C16              Z    0.00000   0.00000   0.00000   0.00000   0.00000
   53 H17              S   -0.28871  -0.26178  -0.01143  -0.03410  -0.13579
   54 H18              S    0.33226   0.11577  -0.09368  -0.04724   0.06425
   55 C19              S   -0.02712   0.01916   0.04638   0.00710  -0.05133
   56 C19              S    0.19040  -0.13816  -0.33530  -0.04909   0.37219
   57 C19              X   -0.26305  -0.10347   0.19642   0.22460  -0.57175
   58 C19              Y    0.37443  -0.39797   0.13220   0.54128   0.22721
   59 C19              Z    0.00000   0.00000   0.00000   0.00000   0.00000
   60 H20              S    0.20937   0.04177   0.01802  -0.00660   0.26974
   
  
  Peak memory usage:    515 Mb
  
  end of program post
   
 Time(post)  user:        0.0  user+sys:        0.0  wallclock:        0.1

 Total cpu seconds     user:       2.000   user+sys:       2.000
  
 Total elapsed time:    5 seconds

Job dvb_sp_ks completed on silenziosa at Tue Apr  8 22:26:17 2014
