Job dvb_gopt_hf started on silenziosa at Wed Apr  9 22:24:44 2014
jobid: silenziosa-0-534600ec

  +--------------------------------------------------------------------+
  |  Jaguar version 8.3, release  13                                   |
  |                                                                    |
  |  Copyright Schrodinger, Inc.                                       |
  |  All Rights Reserved.                                              |
  |                                                                    |
  |  The following have contributed to Jaguar (listed alphabetically): |
  |  Mike Beachy, Art Bochevarov, Dale Braden, Yixiang Cao,            |
  |  Chris Cortis, Rich Friesner, Bill Goddard, Hod Greeley,           |
  |  Tom Hughes, Jean-Marc Langlois, Daniel Mainz, Rob Murphy,         |
  |  Dean Philipp, Tom Pollard, Murco Ringnalda.                       |
  |                                                                    |
  |  Use of this program should be acknowledged in publications as:    |
  |                                                                    |
  |  Jaguar, version 8.3, Schrodinger, Inc., New York, NY, 2014.       |
  |                                                                    |
  |  A. D. Bochevarov, E. Harder, T. F. Hughes, J. R. Greenwood,       |
  |  D. A. Braden, D. M. Philipp, D. Rinaldo, M. D. Halls,             |
  |  J. Zhang, R. A. Friesner, "Jaguar: A High-Performance Quantum     |
  |  Chemistry Software Program with Strengths in Life and Materials   |
  |  Sciences", Int. J. Quantum Chem., 2013, 113(18), 2110-2142.       |
  +--------------------------------------------------------------------+
  
  start of program pre
  
  Job name: dvb_gopt_hf
  Executables used: /usr/local/lib/schrodinger2014-1/jaguar-v83013/bin/Linux-x86_64
  Temporary files : /home/kml/dvb_gopt_hf
  
  
  basis set:             sto-3g          
  net molecular charge:    0
  multiplicity:            1
  
  number of basis functions....           60
  no dealiasing set available for atom            1
  switch to all-analytic calculation
  
 Input geometry:
                                   angstroms
  atom               x                 y                 z
  C1            0.0000000000      0.0000000000      0.0000000000 
  C2            0.0000000000      0.0000000000      1.3915580000 
  C3            1.1999120000      0.0000000000      2.0916230000 
  C4            2.3814270000      0.0000000000      1.4057220000 
  C5            2.3814270000      0.0000000000      0.0141650000 
  H6           -0.9491870000      0.0000000000      1.9373490000 
  H7            1.1938610000      0.0000000000      3.1875920000 
  H8            3.3306140000      0.0000000000     -0.5316260000 
  C9            3.6696320000      0.0000000000      2.1461850000 
  C10           4.8713800000      0.0000000000      1.5468080000 
  H11           4.9303050000      0.0000000000      0.4448340000 
  H12           3.5858030000      0.0000000000      3.2412790000 
  H13           5.7870990000      0.0000000000      2.1003050000 
  C14          -1.2882050000      0.0000000000     -0.7404630000 
  H15          -1.2043770000      0.0000000000     -1.8355570000 
  C16          -2.4899530000      0.0000000000     -0.1410860000 
  H17          -2.5488780000      0.0000000000      0.9608880000 
  H18          -3.4056720000      0.0000000000     -0.6945830000 
  C19           1.1815150000      0.0000000000     -0.6859010000 
  H20           1.1875660000      0.0000000000     -1.7818700000 
   
  principal moments of inertia:
        amu*angstrom^2:      108.01708      693.41270      801.42979
                g*cm^2: 1.79366567E-38 1.15143874E-37 1.33080530E-37
   
  rotational constants:
               cm^(-1):      0.15606447      0.02431111      0.02103444
                   GHz:      4.67869512      0.72882860      0.63059674
   
  Molecular weight:     130.08 amu
   
  Stoichiometry: C10H10
  Molecular Point Group: C2h     
	Molecule translated to center of mass 
	Molecule reoriented along symmetry axes
  Point Group used: C2h
  
 
Number of optimization coordinates:    60
Number of independent coordinates:     60
Number of non-redundant coordinates:   54
Number of frozen coordinates:           0
Number of harmonic constraints:         0
 
Number of geometric degrees of freedom:    54
Maximum geometric degrees of freedom:      54
 " " " " " excluding dummy atoms:          54
 
  
 Symmetrized geometry:
                                   angstroms
  atom               x                 y                 z
  C1            1.1907135000      0.7028610000      0.0000000000 
  C2            1.1907135000     -0.6886965000      0.0000000000 
  C3           -0.0091985000     -1.3887620000      0.0000000000 
  C4           -1.1907135000     -0.7028610000      0.0000000000 
  C5           -1.1907135000      0.6886965000      0.0000000000 
  H6            2.1399005000     -1.2344875000      0.0000000000 
  H7           -0.0031475000     -2.4847310000      0.0000000000 
  H8           -2.1399005000      1.2344875000      0.0000000000 
  C9           -2.4789185000     -1.4433240000      0.0000000000 
  C10          -3.6806665000     -0.8439470000      0.0000000000 
  H11          -3.7395915000      0.2580270000      0.0000000000 
  H12          -2.3950900000     -2.5384180000      0.0000000000 
  H13          -4.5963855000     -1.3974440000      0.0000000000 
  C14           2.4789185000      1.4433240000      0.0000000000 
  H15           2.3950900000      2.5384180000      0.0000000000 
  C16           3.6806665000      0.8439470000      0.0000000000 
  H17           3.7395915000     -0.2580270000      0.0000000000 
  H18           4.5963855000      1.3974440000      0.0000000000 
  C19           0.0091985000      1.3887620000      0.0000000000 
  H20           0.0031475000      2.4847310000      0.0000000000 
   
  nuclear repulsion energy.......     455.307295701 hartrees
 
 Non-default options chosen:
   Geometry will be optimized in redundant internal coordinates
  
 Temporary integer options set:
     73=  2
  
  Peak memory usage:    479 Mb
  
  end of program pre
   
 Time(pre)  user:        0.0  user+sys:        0.0  wallclock:        0.1
  
  start of program onee
  
  smallest eigenvalue of S:    1.640E-01
  number of canonical orbitals.....           60
  Peak memory usage:    621 Mb
  
  end of program onee
   
 Time(onee)  user:        0.0  user+sys:        0.0  wallclock:        0.1
  
  start of program hfig
  
  initial wavefunction generated automatically from atomic wavefunctions
 
  Irreducible     Total no   No of occupied orbitals 
  representation  orbitals   Shell_1  Shell_2    ...
  Ag                25         15
  Bg                 5          3
  Au                 5          2
  Bu                25         15
  ------------------------
  Orbital occupation/shell    1.000
 
  Peak memory usage:    561 Mb
  
  end of program hfig
   
 Time(hfig)  user:        0.0  user+sys:        0.0  wallclock:        0.3
  
  start of program probe
  
  Peak memory usage:    560 Mb
  
  end of program probe
   
 Time(probe)  user:        0.0  user+sys:        0.0  wallclock:        0.1
  
  start of program scf
  
 number of electrons..........         70
 number of alpha electrons....         35
 number of beta electrons.....         35
 number of orbitals, total....         60
 number of doubly-occ'd orbs..         35
 number of open shell orbs....          0
 number of occupied orbitals..         35
 number of virtual orbitals...         25
 number of hamiltonians.......          1
 number of shells.............          1
 SCF type: HF
  
       i  u  d  i  g                   
       t  p  i  c  r                                 RMS    maximum
       e  d  i  u  i                       energy  density   DIIS  
       r  t  s  t  d       total energy    change  change    error 
  
etot    1  N  N  0  N    -379.56323646163           2.9E-03  1.2E-01
etot    2  Y  Y  0  N    -379.75715443896  1.9E-01  7.0E-04  2.0E-02
etot    3  N  Y  0  N    -379.76518858420  8.0E-03  1.8E-04  4.0E-03
etot    4  Y  Y  0  N    -379.76555157934  3.6E-04  5.3E-05  2.0E-03
etot    5  Y  Y  0  N    -379.76561341679  6.2E-05  6.8E-06  2.8E-04
etot    6  N  Y  0  N    -379.76560360979 -9.8E-06  2.5E-06  6.3E-05
etot    7  N  N  0  N    -379.76560371388  1.0E-07  0.0E+00  0.0E+00
  
  
 Energy components, in hartrees:
   (A)  Nuclear repulsion............     455.30729570129
   (E)  Total one-electron terms.....   -1418.64952626920
   (I)  Total two-electron terms.....     583.57662685403
   (L)  Electronic energy............    -835.07289941517  (E+I)
   (N)  Total energy.................    -379.76560371388  (A+L)
  
 SCFE: SCF energy: HF      -379.76560371388 hartrees   iterations:   7
  
 
 HOMO energy:    -0.23003
 LUMO energy:     0.20942
 
  Orbital energies (hartrees)/symmetry label: 
   -11.03907 Bu        -11.03899 Ag        -11.02957 Bu        -11.02948 Ag     
   -11.02908 Bu        -11.02908 Ag        -11.02775 Bu        -11.02767 Ag     
   -11.01427 Bu        -11.01427 Ag         -1.11269 Ag         -1.03209 Bu     
    -0.97837 Ag         -0.96192 Bu         -0.91403 Bu         -0.80752 Ag     
    -0.77102 Ag         -0.73090 Bu         -0.70319 Ag         -0.63670 Ag     
    -0.61414 Bu         -0.57655 Bu         -0.56064 Bu         -0.55506 Ag     
    -0.52988 Bu         -0.50155 Bu         -0.49407 Ag         -0.48194 Au     
    -0.44836 Bu         -0.42897 Ag         -0.41531 Ag         -0.38446 Bg     
    -0.31539 Au         -0.28414 Bg         -0.23003 Bg          0.20942 Au     
     0.26985 Au          0.31141 Bg          0.40499 Au          0.54346 Bg     
     0.57106 Ag          0.57339 Bu          0.62029 Ag          0.63618 Bu     
     0.66773 Bu     
 
  Peak memory usage:    653 Mb
  
  end of program scf
   
 Time(scf)  user:        2.0  user+sys:        2.0  wallclock:        2.8
  
  start of program cutabab2
  
  Peak memory usage:    577 Mb
  
  end of program cutabab2
   
 Time(cutabab2)  user:        0.0  user+sys:        0.0  wallclock:        0.1
  
  start of program der1a
  
  Peak memory usage:    621 Mb
  
  end of program der1a
   
 Time(der1a)  user:        0.0  user+sys:        0.0  wallclock:        0.1
  
  start of program der1b
  
   
  forces (hartrees/bohr) : total     
   
 atom  label           x              y              z
 ---- --------   -------------  -------------  -------------
    1 C1          3.398671E-02  -1.203615E-02   0.000000E+00
    2 C2         -2.448927E-03  -1.717942E-02   0.000000E+00
    3 C3          3.902758E-02  -1.751639E-02   0.000000E+00
    4 C4         -3.398671E-02   1.203615E-02   0.000000E+00
    5 C5          2.448927E-03   1.717942E-02   0.000000E+00
    6 H6         -1.484440E-02   4.897356E-03   0.000000E+00
    7 H7         -6.570117E-04   1.243257E-02   0.000000E+00
    8 H8          1.484440E-02  -4.897356E-03   0.000000E+00
    9 C9         -4.614901E-02   5.851467E-03   0.000000E+00
   10 C10         5.005045E-02   1.457665E-03   0.000000E+00
   11 H11        -7.608641E-03  -2.392431E-02   0.000000E+00
   12 H12        -2.996300E-03   1.247915E-02   0.000000E+00
   13 H13        -9.425892E-03  -4.131889E-03   0.000000E+00
   14 C14         4.614901E-02  -5.851467E-03   0.000000E+00
   15 H15         2.996300E-03  -1.247915E-02   0.000000E+00
   16 C16        -5.005045E-02  -1.457665E-03   0.000000E+00
   17 H17         7.608641E-03   2.392431E-02   0.000000E+00
   18 H18         9.425892E-03   4.131889E-03   0.000000E+00
   19 C19        -3.902758E-02   1.751639E-02   0.000000E+00
   20 H20         6.570117E-04  -1.243257E-02   0.000000E+00
 -------------   -------------  -------------  -------------
     total        0.000000E+00   0.000000E+00   0.000000E+00
   
  Peak memory usage:    653 Mb
  
  end of program der1b
   
 Time(der1b)  user:        3.0  user+sys:        3.0  wallclock:        3.1
  
  start of program geopt
  
  geometry optimization step  1
  energy:            -379.76560371388 hartrees
  
  gradient maximum:        4.1417E-02 .  (  4.5000E-04 )
  gradient rms:            1.6806E-02 .  (  3.0000E-04 )
  displacement maximum:    7.6058E-02 .  (  1.8000E-03 )
  displacement rms:        3.2346E-02 .  (  1.2000E-03 )
  
  predicted energy change:  -1.6346E-02
  step size:     0.25055
  trust radius:  0.30000
  
  molecular structure not yet converged...
  
  center of mass moved by:
     x:     9.9500E-17     y:    -1.4339E-16     z:     0.0000E+00
  
  new geometry: 
                                   angstroms
  atom               x                 y                 z
  C1            1.2572467553      0.6482385935      0.0000000000 
  C2            1.1697039734     -0.7471657205      0.0000000000 
  C3           -0.0622615418     -1.3774768343      0.0000000000 
  C4           -1.2572467553     -0.6482385935      0.0000000000 
  C5           -1.1697039734      0.7471657205      0.0000000000 
  H6            2.0620474267     -1.3512269900      0.0000000000 
  H7           -0.1009902339     -2.4586283675      0.0000000000 
  H8           -2.0620474267      1.3512269900      0.0000000000 
  C9           -2.5639047912     -1.4043738380      0.0000000000 
  C10          -3.7756730602     -0.9151950765      0.0000000000 
  H11          -3.9693042286      0.1434774076      0.0000000000 
  H12          -2.4500494656     -2.4821653305      0.0000000000 
  H13          -4.6430369881     -1.5598633694      0.0000000000 
  C14           2.5639047912      1.4043738380      0.0000000000 
  H15           2.4500494656      2.4821653305      0.0000000000 
  C16           3.7756730602      0.9151950765      0.0000000000 
  H17           3.9693042286     -0.1434774076      0.0000000000 
  H18           4.6430369881      1.5598633694      0.0000000000 
  C19           0.0622615418      1.3774768343      0.0000000000 
  H20           0.1009902339      2.4586283675      0.0000000000 
   
  nuclear repulsion energy.......     450.668906551 hartrees
  -------------------------------------------------
 /  end of geometry optimization iteration   1   /
 -------------------------------------------------
   
  Peak memory usage:    483 Mb
  
  end of program geopt
   
 Time(geopt)  user:        0.0  user+sys:        0.0  wallclock:        0.2
  
  start of program onee
  
  smallest eigenvalue of S:    1.702E-01
  number of canonical orbitals.....           60
  Peak memory usage:    621 Mb
  
  end of program onee
   
 Time(onee)  user:        0.0  user+sys:        0.0  wallclock:        0.1
  
  start of program probe
  
  Peak memory usage:    560 Mb
  
  end of program probe
   
 Time(probe)  user:        0.0  user+sys:        0.0  wallclock:        0.1
  
  start of program scf
  
  
       i  u  d  i  g                   
       t  p  i  c  r                                 RMS    maximum
       e  d  i  u  i                       energy  density   DIIS  
       r  t  s  t  d       total energy    change  change    error 
  
etot    1  N  N  0  N    -379.76664856845           6.5E-04  1.9E-02
etot    2  Y  Y  0  N    -379.77627177998  9.6E-03  2.3E-04  4.8E-03
etot    3  N  Y  0  N    -379.77699632458  7.2E-04  2.9E-05  9.8E-04
etot    4  N  Y  0  N    -379.77701403948  1.8E-05  6.5E-06  1.9E-04
etot    5  N  Y  0  N    -379.77701478927  7.5E-07  1.4E-06  3.8E-05
etot    6  N  N  0  N    -379.77701485038  6.1E-08  0.0E+00  0.0E+00
  
  
 Energy components, in hartrees:
   (A)  Nuclear repulsion............     450.66890655068
   (E)  Total one-electron terms.....   -1409.23536950444
   (I)  Total two-electron terms.....     578.78944810338
   (L)  Electronic energy............    -830.44592140106  (E+I)
   (N)  Total energy.................    -379.77701485038  (A+L)
  
 SCFE: SCF energy: HF      -379.77701485038 hartrees   iterations:   6
  
 
 HOMO energy:    -0.23543
 LUMO energy:     0.20835
 
  Orbital energies (hartrees)/symmetry label: 
   -11.04198 Bu        -11.04191 Ag        -11.03246 Bu        -11.03246 Ag     
   -11.02972 Bu        -11.02961 Ag        -11.02878 Bu        -11.02872 Ag     
   -11.01795 Bu        -11.01795 Ag         -1.10453 Ag         -1.03004 Bu     
    -0.99023 Ag         -0.96080 Bu         -0.92466 Bu         -0.80480 Ag     
    -0.77033 Ag         -0.73138 Bu         -0.70802 Ag         -0.63880 Ag     
    -0.61491 Bu         -0.57859 Bu         -0.56538 Ag         -0.56368 Bu     
    -0.53330 Bu         -0.50784 Bu         -0.49714 Ag         -0.47541 Au     
    -0.44730 Bu         -0.42637 Ag         -0.41723 Ag         -0.38580 Bg     
    -0.32926 Au         -0.28546 Bg         -0.23543 Bg          0.20835 Au     
     0.27207 Au          0.32106 Bg          0.40486 Au          0.53418 Bg     
     0.56306 Ag          0.58247 Bu          0.62561 Bu          0.63877 Ag     
     0.68350 Ag     
 
  Peak memory usage:    653 Mb
  
  end of program scf
   
 Time(scf)  user:        2.0  user+sys:        2.0  wallclock:        2.7
  
  start of program cutabab2
  
  Peak memory usage:    577 Mb
  
  end of program cutabab2
   
 Time(cutabab2)  user:        0.0  user+sys:        0.0  wallclock:        0.1
  
  start of program der1a
  
  Peak memory usage:    621 Mb
  
  end of program der1a
   
 Time(der1a)  user:        0.0  user+sys:        0.0  wallclock:        0.1
  
  start of program der1b
  
   
  forces (hartrees/bohr) : total     
   
 atom  label           x              y              z
 ---- --------   -------------  -------------  -------------
    1 C1          4.176709E-03   4.221393E-03   0.000000E+00
    2 C2         -4.247023E-03   5.082097E-03   0.000000E+00
    3 C3         -1.612686E-03   4.135319E-03   0.000000E+00
    4 C4         -4.176709E-03  -4.221393E-03   0.000000E+00
    5 C5          4.247023E-03  -5.082097E-03   0.000000E+00
    6 H6          3.997355E-03  -1.144019E-03   0.000000E+00
    7 H7         -5.114332E-04  -6.607309E-04   0.000000E+00
    8 H8         -3.997355E-03   1.144019E-03   0.000000E+00
    9 C9          1.603352E-02  -2.784226E-03   0.000000E+00
   10 C10        -5.268277E-03   5.002816E-03   0.000000E+00
   11 H11        -2.754758E-03   3.978783E-03   0.000000E+00
   12 H12         2.331956E-03  -6.578114E-04   0.000000E+00
   13 H13        -3.508199E-04   4.627607E-04   0.000000E+00
   14 C14        -1.603352E-02   2.784226E-03   0.000000E+00
   15 H15        -2.331956E-03   6.578114E-04   0.000000E+00
   16 C16         5.268277E-03  -5.002816E-03   0.000000E+00
   17 H17         2.754758E-03  -3.978783E-03   0.000000E+00
   18 H18         3.508199E-04  -4.627607E-04   0.000000E+00
   19 C19         1.612686E-03  -4.135319E-03   0.000000E+00
   20 H20         5.114332E-04   6.607309E-04   0.000000E+00
 -------------   -------------  -------------  -------------
     total        0.000000E+00   0.000000E+00   0.000000E+00
   
  Peak memory usage:    653 Mb
  
  end of program der1b
   
 Time(der1b)  user:        3.0  user+sys:        3.0  wallclock:        3.0
  
  start of program geopt
  
  geometry optimization step  2
  energy:            -379.77701485038 hartrees
  
  energy change:          -1.1411E-02 .  (  5.0000E-05 )
  gradient maximum:        1.1654E-02 .  (  4.5000E-04 )
  gradient rms:            4.3885E-03 .  (  3.0000E-04 )
  displacement maximum:    2.6377E-02 .  (  1.8000E-03 )
  displacement rms:        7.0442E-03 .  (  1.2000E-03 )
  
  predicted energy change:  -8.6367E-04
  step size:     0.05456
  trust radius:  0.30000
  
  molecular structure not yet converged...
  
  center of mass moved by:
     x:    -1.3229E-16     y:    -3.4140E-17     z:     0.0000E+00
  
  new geometry: 
                                   angstroms
  atom               x                 y                 z
  C1            1.2492157417      0.6561103302      0.0000000000 
  C2            1.1731804740     -0.7359619738      0.0000000000 
  C3           -0.0517006792     -1.3757895513      0.0000000000 
  C4           -1.2492157417     -0.6561103302      0.0000000000 
  C5           -1.1731804740      0.7359619738      0.0000000000 
  H6            2.0761008951     -1.3302250678      0.0000000000 
  H7           -0.0844390754     -2.4574391128      0.0000000000 
  H8           -2.0761008951      1.3302250678      0.0000000000 
  C9           -2.5436191740     -1.4055540839      0.0000000000 
  C10          -3.7553922878     -0.8973585577      0.0000000000 
  H11          -3.9474381827      0.1653415228      0.0000000000 
  H12          -2.4268184997     -2.4835449591      0.0000000000 
  H13          -4.6295768585     -1.5334601244      0.0000000000 
  C14           2.5436191740      1.4055540839      0.0000000000 
  H15           2.4268184997      2.4835449591      0.0000000000 
  C16           3.7553922878      0.8973585577      0.0000000000 
  H17           3.9474381827     -0.1653415228      0.0000000000 
  H18           4.6295768585      1.5334601244      0.0000000000 
  C19           0.0517006792      1.3757895513      0.0000000000 
  H20           0.0844390754      2.4574391128      0.0000000000 
   
  nuclear repulsion energy.......     452.025583278 hartrees
  -------------------------------------------------
 /  end of geometry optimization iteration   2   /
 -------------------------------------------------
   
  Peak memory usage:    483 Mb
  
  end of program geopt
   
 Time(geopt)  user:        0.0  user+sys:        0.0  wallclock:        0.1
  
  start of program onee
  
  smallest eigenvalue of S:    1.687E-01
  number of canonical orbitals.....           60
  Peak memory usage:    621 Mb
  
  end of program onee
   
 Time(onee)  user:        0.0  user+sys:        0.0  wallclock:        0.1
  
  start of program probe
  
  Peak memory usage:    560 Mb
  
  end of program probe
   
 Time(probe)  user:        0.0  user+sys:        0.0  wallclock:        0.1
  
  start of program scf
  
  
       i  u  d  i  g                   
       t  p  i  c  r                                 RMS    maximum
       e  d  i  u  i                       energy  density   DIIS  
       r  t  s  t  d       total energy    change  change    error 
  
etot    1  N  N  0  N    -379.77769277114           9.7E-05  2.6E-03
etot    2  Y  Y  0  N    -379.77790167265  2.1E-04  3.5E-05  5.7E-04
etot    3  N  Y  0  N    -379.77791915539  1.7E-05  7.5E-06  3.1E-04
etot    4  N  Y  0  N    -379.77792039496  1.2E-06  1.8E-06  6.0E-05
etot    5  N  N  0  N    -379.77792047309  7.8E-08  0.0E+00  0.0E+00
  
  
 Energy components, in hartrees:
   (A)  Nuclear repulsion............     452.02558327818
   (E)  Total one-electron terms.....   -1411.95435872723
   (I)  Total two-electron terms.....     580.15085497596
   (L)  Electronic energy............    -831.80350375127  (E+I)
   (N)  Total energy.................    -379.77792047309  (A+L)
  
 SCFE: SCF energy: HF      -379.77792047309 hartrees   iterations:   5
  
 
 HOMO energy:    -0.23326
 LUMO energy:     0.20673
 
  Orbital energies (hartrees)/symmetry label: 
   -11.04104 Bu        -11.04097 Ag        -11.03226 Bu        -11.03226 Ag     
   -11.02912 Bu        -11.02900 Ag        -11.02838 Bu        -11.02832 Ag     
   -11.01794 Bu        -11.01794 Ag         -1.10675 Ag         -1.03161 Bu     
    -0.98832 Ag         -0.96110 Bu         -0.92292 Bu         -0.80669 Ag     
    -0.77148 Ag         -0.73281 Bu         -0.70750 Ag         -0.63873 Ag     
    -0.61511 Bu         -0.57789 Bu         -0.56408 Bu         -0.56312 Ag     
    -0.53270 Bu         -0.50730 Bu         -0.49802 Ag         -0.47735 Au     
    -0.44865 Bu         -0.42601 Ag         -0.41844 Ag         -0.38677 Bg     
    -0.32677 Au         -0.28571 Bg         -0.23326 Bg          0.20673 Au     
     0.27302 Au          0.31852 Bg          0.40613 Au          0.53744 Bg     
     0.56820 Ag          0.58325 Bu          0.63202 Bu          0.63603 Ag     
     0.68316 Ag     
 
  Peak memory usage:    653 Mb
  
  end of program scf
   
 Time(scf)  user:        2.0  user+sys:        2.0  wallclock:        2.3
  
  start of program cutabab2
  
  Peak memory usage:    577 Mb
  
  end of program cutabab2
   
 Time(cutabab2)  user:        0.0  user+sys:        0.0  wallclock:        0.1
  
  start of program der1a
  
  Peak memory usage:    621 Mb
  
  end of program der1a
   
 Time(der1a)  user:        0.0  user+sys:        0.0  wallclock:        0.1
  
  start of program der1b
  
   
  forces (hartrees/bohr) : total     
   
 atom  label           x              y              z
 ---- --------   -------------  -------------  -------------
    1 C1         -6.959374E-04   1.801989E-03   0.000000E+00
    2 C2         -7.705797E-04  -7.018213E-04   0.000000E+00
    3 C3         -5.153170E-04   8.353763E-04   0.000000E+00
    4 C4          6.959374E-04  -1.801989E-03   0.000000E+00
    5 C5          7.705797E-04   7.018213E-04   0.000000E+00
    6 H6          5.634348E-04   3.657021E-05   0.000000E+00
    7 H7         -2.563031E-04  -3.833985E-04   0.000000E+00
    8 H8         -5.634348E-04  -3.657021E-05   0.000000E+00
    9 C9         -6.463442E-04  -5.414060E-04   0.000000E+00
   10 C10         1.516185E-03  -2.797292E-04   0.000000E+00
   11 H11        -4.109022E-04   4.863759E-04   0.000000E+00
   12 H12        -3.524151E-04  -1.690527E-04   0.000000E+00
   13 H13        -1.196573E-04   2.524616E-04   0.000000E+00
   14 C14         6.463442E-04   5.414060E-04   0.000000E+00
   15 H15         3.524151E-04   1.690527E-04   0.000000E+00
   16 C16        -1.516185E-03   2.797292E-04   0.000000E+00
   17 H17         4.109022E-04  -4.863759E-04   0.000000E+00
   18 H18         1.196573E-04  -2.524616E-04   0.000000E+00
   19 C19         5.153170E-04  -8.353763E-04   0.000000E+00
   20 H20         2.563031E-04   3.833985E-04   0.000000E+00
 -------------   -------------  -------------  -------------
     total        0.000000E+00   0.000000E+00   0.000000E+00
   
  Peak memory usage:    653 Mb
  
  end of program der1b
   
 Time(der1b)  user:        3.0  user+sys:        3.0  wallclock:        3.0
  
  start of program geopt
  
  geometry optimization step  3
  energy:            -379.77792047309 hartrees
  
  energy change:          -9.0562E-04 .  (  5.0000E-05 )
  gradient maximum:        2.0725E-03 .  (  4.5000E-04 )
  gradient rms:            6.9961E-04 .  (  3.0000E-04 )
  displacement maximum:    5.4700E-03 .  (  1.8000E-03 )
  displacement rms:        1.7649E-03 .  (  1.2000E-03 )
  
  predicted energy change:  -3.3786E-05
  step size:     0.01367
  trust radius:  0.30000
  
  molecular structure not yet converged...
  
  center of mass moved by:
     x:     2.1146E-16     y:     6.1452E-17     z:     0.0000E+00
  
  new geometry: 
                                   angstroms
  atom               x                 y                 z
  C1            1.2469432122      0.6612843492      0.0000000000 
  C2            1.1739561505     -0.7322225214      0.0000000000 
  C3           -0.0484934777     -1.3769855171      0.0000000000 
  C4           -1.2469432122     -0.6612843492      0.0000000000 
  C5           -1.1739561505      0.7322225214      0.0000000000 
  H6            2.0802387334     -1.3223837337      0.0000000000 
  H7           -0.0789920313     -2.4591583906      0.0000000000 
  H8           -2.0802387334      1.3223837337      0.0000000000 
  C9           -2.5420022197     -1.4097862313      0.0000000000 
  C10          -3.7501019646     -0.8942513097      0.0000000000 
  H11          -3.9373373568      0.1700111426      0.0000000000 
  H12          -2.4308266963     -2.4885146081      0.0000000000 
  H13          -4.6286191362     -1.5243205421      0.0000000000 
  C14           2.5420022197      1.4097862313      0.0000000000 
  H15           2.4308266963      2.4885146081      0.0000000000 
  C16           3.7501019646      0.8942513097      0.0000000000 
  H17           3.9373373568     -0.1700111426      0.0000000000 
  H18           4.6286191362      1.5243205421      0.0000000000 
  C19           0.0484934777      1.3769855171      0.0000000000 
  H20           0.0789920313      2.4591583906      0.0000000000 
   
  nuclear repulsion energy.......     452.139167153 hartrees
  -------------------------------------------------
 /  end of geometry optimization iteration   3   /
 -------------------------------------------------
   
  Peak memory usage:    483 Mb
  
  end of program geopt
   
 Time(geopt)  user:        0.0  user+sys:        0.0  wallclock:        0.1
  
  start of program onee
  
  smallest eigenvalue of S:    1.687E-01
  number of canonical orbitals.....           60
  Peak memory usage:    621 Mb
  
  end of program onee
   
 Time(onee)  user:        0.0  user+sys:        0.0  wallclock:        0.1
  
  start of program probe
  
  Peak memory usage:    560 Mb
  
  end of program probe
   
 Time(probe)  user:        0.0  user+sys:        0.0  wallclock:        0.1
  
  start of program scf
  
  
       i  u  d  i  g                   
       t  p  i  c  r                                 RMS    maximum
       e  d  i  u  i                       energy  density   DIIS  
       r  t  s  t  d       total energy    change  change    error 
  
etot    1  N  N  0  N    -379.77791192755           4.1E-05  1.3E-03
etot    2  N  Y  0  N    -379.77795126140  3.9E-05  1.5E-05  3.4E-04
etot    3  N  Y  0  N    -379.77795425113  3.0E-06  1.2E-06  3.7E-05
etot    4  N  N  0  N    -379.77795433161  8.0E-08  0.0E+00  0.0E+00
  
  
 Energy components, in hartrees:
   (A)  Nuclear repulsion............     452.13916715266
   (E)  Total one-electron terms.....   -1412.18628309599
   (I)  Total two-electron terms.....     580.26916161172
   (L)  Electronic energy............    -831.91712148427  (E+I)
   (N)  Total energy.................    -379.77795433161  (A+L)
  
 SCFE: SCF energy: HF      -379.77795433161 hartrees   iterations:   4
  
 
 HOMO energy:    -0.23321
 LUMO energy:     0.20695
 
  Orbital energies (hartrees)/symmetry label: 
   -11.04089 Bu        -11.04082 Ag        -11.03233 Bu        -11.03233 Ag     
   -11.02894 Bu        -11.02881 Ag        -11.02833 Bu        -11.02828 Ag     
   -11.01797 Bu        -11.01797 Ag         -1.10664 Ag         -1.03179 Bu     
    -0.98848 Ag         -0.96089 Bu         -0.92268 Bu         -0.80647 Ag     
    -0.77121 Ag         -0.73291 Bu         -0.70717 Ag         -0.63909 Ag     
    -0.61515 Bu         -0.57758 Bu         -0.56383 Bu         -0.56291 Ag     
    -0.53247 Bu         -0.50733 Bu         -0.49809 Ag         -0.47725 Au     
    -0.44867 Bu         -0.42588 Ag         -0.41825 Ag         -0.38690 Bg     
    -0.32692 Au         -0.28553 Bg         -0.23321 Bg          0.20695 Au     
     0.27315 Au          0.31864 Bg          0.40615 Au          0.53752 Bg     
     0.56856 Ag          0.58279 Bu          0.63237 Bu          0.63492 Ag     
     0.68220 Ag     
 
  Peak memory usage:    653 Mb
  
  end of program scf
   
 Time(scf)  user:        1.0  user+sys:        1.0  wallclock:        2.0
  
  start of program cutabab2
  
  Peak memory usage:    577 Mb
  
  end of program cutabab2
   
 Time(cutabab2)  user:        0.0  user+sys:        0.0  wallclock:        0.1
  
  start of program der1a
  
  Peak memory usage:    621 Mb
  
  end of program der1a
   
 Time(der1a)  user:        0.0  user+sys:        0.0  wallclock:        0.1
  
  start of program der1b
  
   
  forces (hartrees/bohr) : total     
   
 atom  label           x              y              z
 ---- --------   -------------  -------------  -------------
    1 C1         -1.038482E-04  -3.044214E-04   0.000000E+00
    2 C2          7.092140E-05  -2.043439E-05   0.000000E+00
    3 C3          3.568350E-04   8.495403E-05   0.000000E+00
    4 C4          1.038482E-04   3.044214E-04   0.000000E+00
    5 C5         -7.092140E-05   2.043439E-05   0.000000E+00
    6 H6         -1.180703E-04   9.607559E-05   0.000000E+00
    7 H7          3.353106E-05   1.781670E-05   0.000000E+00
    8 H8          1.180703E-04  -9.607559E-05   0.000000E+00
    9 C9          1.997170E-05  -1.338763E-04   0.000000E+00
   10 C10        -7.030162E-05   1.643558E-04   0.000000E+00
   11 H11        -8.511989E-05  -2.201754E-04   0.000000E+00
   12 H12        -7.937132E-05   3.318339E-05   0.000000E+00
   13 H13        -9.961974E-05   1.004886E-04   0.000000E+00
   14 C14        -1.997170E-05   1.338763E-04   0.000000E+00
   15 H15         7.937132E-05  -3.318339E-05   0.000000E+00
   16 C16         7.030162E-05  -1.643558E-04   0.000000E+00
   17 H17         8.511989E-05   2.201754E-04   0.000000E+00
   18 H18         9.961974E-05  -1.004886E-04   0.000000E+00
   19 C19        -3.568350E-04  -8.495403E-05   0.000000E+00
   20 H20        -3.353106E-05  -1.781670E-05   0.000000E+00
 -------------   -------------  -------------  -------------
     total        0.000000E+00   0.000000E+00   0.000000E+00
   
  Peak memory usage:    653 Mb
  
  end of program der1b
   
 Time(der1b)  user:        3.0  user+sys:        3.0  wallclock:        3.0
  
  start of program geopt
  
  geometry optimization step  4
  energy:            -379.77795433161 hartrees
  
  energy change:          -3.3859E-05 *  (  5.0000E-05 )
  gradient maximum:        3.5685E-04 *  (  4.5000E-04 )
  gradient rms:            1.5317E-04 *  (  3.0000E-04 )
  displacement maximum:    7.9621E-04 *  (  1.8000E-03 )
  displacement rms:        2.9878E-04 *  (  1.2000E-03 )
  
  predicted energy change:  -1.2873E-06
  step size:     0.00231
  trust radius:  0.30000
  
  ********************************************************
  **           Geometry optimization complete           **
  ********************************************************
  
  Checking the geometry optimization convergence pattern ...
  
  best                    worst
  ==0=====1=====2=====3=====4==
    ^                          
  
  Convergence category 0: monotonic convergence.
  Geometry optimization was OK.
  
  Number of imaginary frequencies:   0
  
  center of mass moved by:
     x:     0.0000E+00     y:     0.0000E+00     z:     0.0000E+00
  
  final geometry: 
                                   angstroms
  atom               x                 y                 z
  C1            1.2469432122      0.6612843492      0.0000000000 
  C2            1.1739561505     -0.7322225214      0.0000000000 
  C3           -0.0484934777     -1.3769855171      0.0000000000 
  C4           -1.2469432122     -0.6612843492      0.0000000000 
  C5           -1.1739561505      0.7322225214      0.0000000000 
  H6            2.0802387334     -1.3223837337      0.0000000000 
  H7           -0.0789920313     -2.4591583906      0.0000000000 
  H8           -2.0802387334      1.3223837337      0.0000000000 
  C9           -2.5420022197     -1.4097862313      0.0000000000 
  C10          -3.7501019646     -0.8942513097      0.0000000000 
  H11          -3.9373373568      0.1700111426      0.0000000000 
  H12          -2.4308266963     -2.4885146081      0.0000000000 
  H13          -4.6286191362     -1.5243205421      0.0000000000 
  C14           2.5420022197      1.4097862313      0.0000000000 
  H15           2.4308266963      2.4885146081      0.0000000000 
  C16           3.7501019646      0.8942513097      0.0000000000 
  H17           3.9373373568     -0.1700111426      0.0000000000 
  H18           4.6286191362      1.5243205421      0.0000000000 
  C19           0.0484934777      1.3769855171      0.0000000000 
  H20           0.0789920313      2.4591583906      0.0000000000 
   
  principal moments of inertia:
        amu*angstrom^2:      105.32832      721.49847      826.82678
                g*cm^2: 1.74901762E-38 1.19807625E-37 1.37297801E-37
   
  rotational constants:
               cm^(-1):      0.16004841      0.02336475      0.02038834
                   GHz:      4.79813052      0.70045749      0.61122718
   
  nuclear repulsion energy.......     452.139167153 hartrees
  -------------------------------------------------
 /  end of geometry optimization iteration   4   /
 -------------------------------------------------
   
  Peak memory usage:    483 Mb
  
  end of program geopt
   
 Time(geopt)  user:        0.0  user+sys:        0.0  wallclock:        0.2

 Total cpu seconds     user:      19.000   user+sys:      19.000
  
 Total elapsed time:    28 seconds

Job dvb_gopt_hf completed on silenziosa at Wed Apr  9 22:25:12 2014
