Job dvb_sp started on rubidium at Fri Jul 15 22:29:21 2005
jobid: rubidium-0-42d89b31 
Jaguar version 6.0, release  11
 Running on   2 processors
Molecular Point Group: C2h     
Point Group used: C1 (symmetry turned off)
pre (input checking) done.
onee (1-electron integrals) done.
hfig (HF initial guess) done.
probe (project orbitals) done.
grid (grid generation) done.
rwr (Q operators) done.
scf type: DFT=Becke_3_Parameter/HF+Slater+Becke88+VWN+LYP (B3LYP)
  
       i  u  d  i  g
       t  p  i  c  r                                 RMS    maximum
       e  d  i  u  i                       energy  density   DIIS  
       r  t  s  t  d       total energy    change  change    error 
  
etot   1  N  N  5  M    -385.92296159450           2.5E-03  1.3E-01
etot   2  Y  Y  6  M    -386.48578249842  5.6E-01  3.0E-03  9.1E-02
etot   3  Y  Y  6  M    -386.80042831100  3.1E-01  1.8E-03  6.1E-02
etot   4  N  Y  2  U    -386.94002309808  1.4E-01  1.6E-03  4.1E-02
etot   5  Y  Y  6  M    -387.00393843018  6.4E-02  1.1E-03  2.7E-02
etot   6  N  Y  2  U    -387.03260193331  2.9E-02  5.0E-04  1.9E-02
etot   7  Y  Y  6  M    -387.04705506274  1.4E-02  4.0E-04  1.6E-02
etot   8  N  Y  2  U    -387.05470344305  7.6E-03  5.9E-04  1.1E-02
etot   9  Y  Y  6  M    -387.05944102293  4.7E-03  2.9E-04  7.7E-03
etot  10  Y  Y  6  M    -387.06183953594  2.4E-03  1.9E-04  6.5E-03
etot  11  N  Y  2  U    -387.06242586123  5.9E-04  1.5E-04  4.3E-03
etot  12  Y  Y  6  M    -387.06322165906  8.0E-04  2.0E-04  3.3E-03
etot  13  Y  Y  6  M    -387.06367684938  4.6E-04  1.5E-04  2.1E-03
etot  14  Y  Y  6  M    -387.06397652464  3.0E-04  1.2E-04  1.8E-03
etot  15  Y  Y  6  M    -387.06417909402  2.0E-04  8.4E-05  1.5E-03
etot  16  N  N  2  U    -387.06414442630 -3.5E-05  0.0E+00  0.0E+00
scf (DFT) done.
ch (properties) done.
post (output conversion) done.
Job dvb_sp completed on rubidium at Fri Jul 15 22:31:41 2005
