[Molden Format]
[Title]
water_mp2
[Atoms] Angs
O      1  8     0.000000     0.000000     0.000000
H      2  1     0.990000     0.000000     0.000000
H      3  1    -0.272880     0.951649     0.000000
[GTO]
  1 0
s     3 1.00
1.307093214e+02 1.543289673e-01
2.380886610e+01 5.353281423e-01
6.443608300e+00 4.446345422e-01
s     3 1.00
5.033151300e+00 -9.996722919e-02
1.169596100e+00 3.995128261e-01
3.803890000e-01 7.001154689e-01
p     3 1.00
5.033151300e+00 1.559162750e-01
1.169596100e+00 6.076837186e-01
3.803890000e-01 3.919573931e-01

  2 0
s     3 1.00
3.425250900e+00 1.543289673e-01
6.239137000e-01 5.353281423e-01
1.688554000e-01 4.446345422e-01

  3 0
s     3 1.00
3.425250900e+00 1.543289673e-01
6.239137000e-01 5.353281423e-01
1.688554000e-01 4.446345422e-01


[MO]
 Sym= A
 Ene=   -20.2438
 Spin= Alpha
 Occup=   2.000000
   1    0.994203
   2    0.025916
   3    0.002403
   4    0.003189
   5    0.000000
   6   -0.005627
   7   -0.005627
 Sym= A
 Ene=    -1.2506
 Spin= Alpha
 Occup=   2.000000
   1   -0.234218
   2    0.845882
   3    0.070441
   4    0.093479
   5   -0.000000
   6    0.156449
   7    0.156449
 Sym= A
 Ene=    -0.6032
 Spin= Alpha
 Occup=   2.000000
   1   -0.000000
   2    0.000000
   3    0.481821
   4   -0.363078
   5    0.000000
   6    0.446377
   7   -0.446377
 Sym= A
 Ene=    -0.4455
 Spin= Alpha
 Occup=   2.000000
   1    0.100458
   2   -0.521395
   3    0.465965
   4    0.618357
   5    0.000000
   6    0.289064
   7    0.289064
 Sym= A
 Ene=    -0.3882
 Spin= Alpha
 Occup=   2.000000
   1   -0.000000
   2   -0.000000
   3   -0.000000
   4   -0.000000
   5    1.000000
   6   -0.000000
   7   -0.000000
 Sym= A
 Ene=     0.5707
 Spin= Alpha
 Occup=   0.000000
   1   -0.128351
   2    0.832526
   3    0.440906
   4    0.585101
   5   -0.000000
   6   -0.775801
   7   -0.775801
 Sym= A
 Ene=     0.7086
 Spin= Alpha
 Occup=   0.000000
   1    0.000000
   2   -0.000000
   3    0.779855
   4   -0.587663
   5    0.000000
   6   -0.808915
   7    0.808916