[Molden Format]
[Title]
C_bigbasis
[Atoms] Angs
C      1  6     0.000000     0.000000     0.000000
[GTO]
  1 0
s     9 1.00
3.398000000e+04 9.163454600e-05
5.089000000e+03 7.089090130e-04
1.157000000e+03 3.718751399e-03
3.266000000e+02 1.546710574e-02
1.061000000e+02 5.329807549e-02
3.811000000e+01 1.480683352e-01
1.475000000e+01 3.077621740e-01
6.035000000e+00 4.021296445e-01
2.530000000e+00 2.185645031e-01
s     9 1.00
3.398000000e+04 -5.571036000e-05
5.089000000e+03 -4.427507570e-04
1.157000000e+03 -2.301717514e-03
3.266000000e+02 -9.746380913e-03
1.061000000e+02 -3.375461404e-02
3.811000000e+01 -1.001613634e-01
1.475000000e+01 -2.262808226e-01
6.035000000e+00 -4.148750525e-01
2.530000000e+00 -3.460463685e-01
s     1 1.00
7.355000000e-01 1.000000000e+00
s     1 1.00
2.905000000e-01 1.000000000e+00
s     1 1.00
1.111000000e-01 1.000000000e+00
p     3 1.00
3.451000000e+01 3.168785521e-02
7.915000000e+00 2.128943073e-01
2.368000000e+00 8.395867520e-01
p     1 1.00
8.132000000e-01 1.000000000e+00
p     1 1.00
2.890000000e-01 1.000000000e+00
p     1 1.00
1.007000000e-01 1.000000000e+00
d     1 1.00
1.848000000e+00 1.000000000e+00
d     1 1.00
6.490000000e-01 1.000000000e+00
d     1 1.00
2.280000000e-01 1.000000000e+00
f     1 1.00
1.419000000e+00 1.000000000e+00
f     1 1.00
4.850000000e-01 1.000000000e+00
g     1 1.00
1.011000000e+00 1.000000000e+00
s     1 1.00
7.216000000e+00 1.000000000e+00
s     1 1.00
1.957000000e+01 1.000000000e+00
s     1 1.00
5.307300000e+01 1.000000000e+00
p     1 1.00
8.182000000e+00 1.000000000e+00
p     1 1.00
2.418600000e+01 1.000000000e+00
p     1 1.00
7.149400000e+01 1.000000000e+00
d     1 1.00
8.656000000e+00 1.000000000e+00
d     1 1.00
3.321300000e+01 1.000000000e+00
f     1 1.00
2.469400000e+01 1.000000000e+00
s     1 1.00
4.145000000e-02 1.000000000e+00
p     1 1.00
3.218000000e-02 1.000000000e+00
d     1 1.00
7.660000000e-02 1.000000000e+00
f     1 1.00
1.870000000e-01 1.000000000e+00
g     1 1.00
4.240000000e-01 1.000000000e+00


[MO]
 Sym= A
 Ene=   -11.3649
 Spin= Alpha
 Occup=   2.000000
   1    0.993702
   2    0.001029
   3    0.015985
   4   -0.003677
   5    0.001712
   6   -0.000000
   7   -0.000000
   8   -0.000000
   9   -0.000000
  10   -0.000000
  11   -0.000000
  12   -0.000000
  13   -0.000000
  14   -0.000000
  15   -0.000000
  16   -0.000000
  17   -0.000000
  18    0.000086
  19   -0.000043
  20   -0.000043
  21   -0.000000
  22   -0.000000
  23   -0.000000
  24    0.000803
  25   -0.000401
  26   -0.000401
  27   -0.000000
  28   -0.000000
  29   -0.000000
  30    0.000009
  31   -0.000005
  32   -0.000005
  33   -0.000000
  34   -0.000000
  35   -0.000000
  36   -0.000000
  37   -0.000000
  38   -0.000000
  39   -0.000000
  40   -0.000000
  41   -0.000000
  42   -0.000000
  43   -0.000000
  44   -0.000000
  45   -0.000000
  46   -0.000000
  47   -0.000000
  48   -0.000000
  49   -0.000000
  50   -0.000000
  51   -0.000000
  52   -0.000000
  53   -0.000000
  54   -0.000000
  55   -0.000000
  56   -0.000014
  57   -0.000005
  58   -0.000005
  59   -0.000000
  60   -0.000000
  61   -0.000000
  62   -0.000000
  63   -0.000000
  64   -0.000000
  65    0.000012
  66    0.000012
  67   -0.000003
  68   -0.000000
  69   -0.000000
  70   -0.000000
  71    0.000436
  72   -0.000018
  73    0.000047
  74   -0.000000
  75   -0.000000
  76   -0.000000
  77   -0.000000
  78   -0.000000
  79   -0.000000
  80   -0.000000
  81   -0.000000
  82   -0.000000
  83   -0.000496
  84    0.000248
  85    0.000248
  86   -0.000000
  87   -0.000000
  88   -0.000000
  89   -0.000013
  90    0.000006
  91    0.000006
  92   -0.000000
  93   -0.000000
  94   -0.000000
  95   -0.000000
  96   -0.000000
  97   -0.000000
  98   -0.000000
  99   -0.000000
 100   -0.000000
 101   -0.000000
 102   -0.000000
 103   -0.000000
 104   -0.000000
 105   -0.000436
 106   -0.000000
 107   -0.000000
 108   -0.000000
 109    0.000049
 110   -0.000025
 111   -0.000025
 112   -0.000000
 113   -0.000000
 114   -0.000000
 115   -0.000000
 116   -0.000000
 117   -0.000000
 118   -0.000000
 119   -0.000000
 120   -0.000000
 121   -0.000000
 122   -0.000000
 123   -0.000000
 124   -0.000000
 125   -0.000003
 126   -0.000001
 127   -0.000001
 128   -0.000000
 129   -0.000000
 130   -0.000000
 131   -0.000000
 132   -0.000000
 133   -0.000000
 134    0.000003
 135    0.000003
 136   -0.000001
 137   -0.000000
 138   -0.000000
 139   -0.000000
 Sym= A
 Ene=    -0.7256
 Spin= Alpha
 Occup=   2.000000
   1    0.000589
   2    0.344912
   3    0.281045
   4    0.591838
   5    0.271536
   6    0.000000
   7    0.000000
   8    0.000000
   9    0.000000
  10    0.000000
  11    0.000000
  12    0.000000
  13    0.000000
  14    0.000000
  15    0.000000
  16    0.000000
  17    0.000000
  18    0.001917
  19   -0.000959
  20   -0.000959
  21    0.000000
  22    0.000000
  23    0.000000
  24   -0.000366
  25    0.000183
  26    0.000183
  27    0.000000
  28    0.000000
  29    0.000000
  30    0.008401
  31   -0.004201
  32   -0.004201
  33    0.000000
  34    0.000000
  35    0.000000
  36    0.000000
  37    0.000000
  38    0.000000
  39    0.000000
  40    0.000000
  41    0.000000
  42    0.000000
  43    0.000000
  44    0.000000
  45    0.000000
  46    0.000000
  47    0.000000
  48    0.000000
  49    0.000000
  50    0.000000
  51    0.000000
  52    0.000000
  53    0.000000
  54    0.000000
  55    0.000000
  56   -0.000067
  57   -0.000025
  58   -0.000025
  59    0.000000
  60    0.000000
  61    0.000000
  62    0.000000
  63    0.000000
  64    0.000000
  65    0.000059
  66    0.000059
  67   -0.000015
  68    0.000000
  69    0.000000
  70    0.000000
  71    0.000261
  72   -0.000077
  73    0.000073
  74    0.000000
  75    0.000000
  76    0.000000
  77    0.000000
  78    0.000000
  79    0.000000
  80    0.000000
  81    0.000000
  82    0.000000
  83    0.000481
  84   -0.000241
  85   -0.000241
  86    0.000000
  87    0.000000
  88    0.000000
  89   -0.000012
  90    0.000006
  91    0.000006
  92    0.000000
  93    0.000000
  94    0.000000
  95    0.000000
  96    0.000000
  97    0.000000
  98    0.000000
  99    0.000000
 100    0.000000
 101    0.000000
 102    0.000000
 103    0.000000
 104    0.000000
 105    0.002911
 106    0.000000
 107    0.000000
 108    0.000000
 109    0.004443
 110   -0.002221
 111   -0.002221
 112    0.000000
 113    0.000000
 114    0.000000
 115    0.000000
 116    0.000000
 117    0.000000
 118    0.000000
 119    0.000000
 120    0.000000
 121    0.000000
 122    0.000000
 123    0.000000
 124    0.000000
 125   -0.000403
 126   -0.000151
 127   -0.000151
 128    0.000000
 129    0.000000
 130    0.000000
 131    0.000000
 132    0.000000
 133    0.000000
 134    0.000354
 135    0.000354
 136   -0.000089
 137    0.000000
 138    0.000000
 139    0.000000
 Sym= A
 Ene=    -0.3584
 Spin= Alpha
 Occup=   2.000000
   1   -0.000000
   2   -0.000000
   3   -0.000000
   4   -0.000000
   5   -0.000000
   6    0.166515
   7   -0.000000
   8   -0.000000
   9    0.325448
  10   -0.000000
  11   -0.000000
  12    0.441854
  13   -0.000000
  14   -0.000000
  15    0.288936
  16   -0.000000
  17   -0.000000
  18   -0.000000
  19   -0.000000
  20   -0.000000
  21   -0.000000
  22   -0.000000
  23   -0.000000
  24   -0.000000
  25   -0.000000
  26   -0.000000
  27   -0.000000
  28   -0.000000
  29   -0.000000
  30   -0.000000
  31   -0.000000
  32   -0.000000
  33   -0.000000
  34   -0.000000
  35   -0.000000
  36   -0.004129
  37   -0.000000
  38   -0.000000
  39    0.002770
  40   -0.000000
  41   -0.000000
  42    0.002770
  43   -0.000000
  44   -0.000000
  45   -0.000000
  46   -0.009329
  47   -0.000000
  48   -0.000000
  49    0.006258
  50   -0.000000
  51   -0.000000
  52    0.006258
  53   -0.000000
  54   -0.000000
  55   -0.000000
  56   -0.000000
  57   -0.000000
  58   -0.000000
  59   -0.000000
  60   -0.000000
  61   -0.000000
  62   -0.000000
  63   -0.000000
  64   -0.000000
  65   -0.000000
  66   -0.000000
  67   -0.000000
  68   -0.000000
  69   -0.000000
  70   -0.000000
  71   -0.000000
  72   -0.000000
  73   -0.000000
  74    0.000184
  75   -0.000000
  76   -0.000000
  77   -0.000327
  78   -0.000000
  79   -0.000000
  80    0.000250
  81   -0.000000
  82   -0.000000
  83   -0.000000
  84   -0.000000
  85   -0.000000
  86   -0.000000
  87   -0.000000
  88   -0.000000
  89   -0.000000
  90   -0.000000
  91   -0.000000
  92   -0.000000
  93   -0.000000
  94   -0.000000
  95   -0.000025
  96   -0.000000
  97   -0.000000
  98    0.000017
  99   -0.000000
 100   -0.000000
 101    0.000017
 102   -0.000000
 103   -0.000000
 104   -0.000000
 105   -0.000000
 106    0.023777
 107   -0.000000
 108   -0.000000
 109   -0.000000
 110   -0.000000
 111   -0.000000
 112   -0.000000
 113   -0.000000
 114   -0.000000
 115   -0.007762
 116   -0.000000
 117   -0.000000
 118    0.005207
 119   -0.000000
 120   -0.000000
 121    0.005207
 122   -0.000000
 123   -0.000000
 124   -0.000000
 125   -0.000000
 126   -0.000000
 127   -0.000000
 128   -0.000000
 129   -0.000000
 130   -0.000000
 131   -0.000000
 132   -0.000000
 133   -0.000000
 134   -0.000000
 135   -0.000000
 136   -0.000000
 137   -0.000000
 138   -0.000000
 139   -0.000000
 Sym= A
 Ene=     0.0189
 Spin= Alpha
 Occup=   0.000000
   1    0.000000
   2    0.000000
   3    0.000000
   4    0.000000
   5    0.000000
   6    0.000000
   7   -0.061903
   8    0.074157
   9    0.000000
  10   -0.117499
  11    0.140759
  12    0.000000
  13   -0.192278
  14    0.230341
  15    0.000000
  16   -0.152350
  17    0.182508
  18    0.000000
  19    0.000000
  20    0.000000
  21    0.000000
  22    0.000000
  23    0.000000
  24    0.000000
  25    0.000000
  26    0.000000
  27    0.000000
  28    0.000000
  29    0.000000
  30    0.000000
  31    0.000000
  32    0.000000
  33    0.000000
  34    0.000000
  35    0.000000
  36    0.000000
  37   -0.000826
  38    0.000989
  39    0.000000
  40    0.001477
  41   -0.001769
  42    0.000000
  43   -0.000369
  44    0.000442
  45    0.000000
  46    0.000000
  47   -0.001536
  48    0.001840
  49    0.000000
  50    0.002748
  51   -0.003292
  52    0.000000
  53   -0.000687
  54    0.000823
  55    0.000000
  56    0.000000
  57    0.000000
  58    0.000000
  59    0.000000
  60    0.000000
  61    0.000000
  62    0.000000
  63    0.000000
  64    0.000000
  65    0.000000
  66    0.000000
  67    0.000000
  68    0.000000
  69    0.000000
  70    0.000000
  71    0.000000
  72    0.000000
  73    0.000000
  74    0.000000
  75    0.000004
  76   -0.000005
  77    0.000000
  78    0.000036
  79   -0.000043
  80    0.000000
  81   -0.000093
  82    0.000112
  83    0.000000
  84    0.000000
  85    0.000000
  86    0.000000
  87    0.000000
  88    0.000000
  89    0.000000
  90    0.000000
  91    0.000000
  92    0.000000
  93    0.000000
  94    0.000000
  95    0.000000
  96   -0.000004
  97    0.000005
  98    0.000000
  99    0.000008
 100   -0.000009
 101    0.000000
 102   -0.000002
 103    0.000002
 104    0.000000
 105    0.000000
 106    0.000000
 107   -0.338422
 108    0.405416
 109    0.000000
 110    0.000000
 111    0.000000
 112    0.000000
 113    0.000000
 114    0.000000
 115    0.000000
 116   -0.004633
 117    0.005550
 118    0.000000
 119    0.008287
 120   -0.009928
 121    0.000000
 122   -0.002072
 123    0.002482
 124    0.000000
 125    0.000000
 126    0.000000
 127    0.000000
 128    0.000000
 129    0.000000
 130    0.000000
 131    0.000000
 132    0.000000
 133    0.000000
 134    0.000000
 135    0.000000
 136    0.000000
 137    0.000000
 138    0.000000
 139    0.000000
 Sym= A
 Ene=     0.0189
 Spin= Alpha
 Occup=   0.000000
   1    0.000000
   2    0.000000
   3    0.000000
   4    0.000000
   5    0.000000
   6    0.000000
   7    0.074157
   8    0.061903
   9    0.000000
  10    0.140759
  11    0.117499
  12    0.000000
  13    0.230341
  14    0.192278
  15    0.000000
  16    0.182508
  17    0.152350
  18    0.000000
  19    0.000000
  20    0.000000
  21    0.000000
  22    0.000000
  23    0.000000
  24    0.000000
  25    0.000000
  26    0.000000
  27    0.000000
  28    0.000000
  29    0.000000
  30    0.000000
  31    0.000000
  32    0.000000
  33    0.000000
  34    0.000000
  35    0.000000
  36    0.000000
  37    0.000989
  38    0.000826
  39    0.000000
  40   -0.001769
  41   -0.001477
  42    0.000000
  43    0.000442
  44    0.000369
  45    0.000000
  46    0.000000
  47    0.001840
  48    0.001536
  49    0.000000
  50   -0.003292
  51   -0.002748
  52    0.000000
  53    0.000823
  54    0.000687
  55    0.000000
  56    0.000000
  57    0.000000
  58    0.000000
  59    0.000000
  60    0.000000
  61    0.000000
  62    0.000000
  63    0.000000
  64    0.000000
  65    0.000000
  66    0.000000
  67    0.000000
  68    0.000000
  69    0.000000
  70    0.000000
  71    0.000000
  72    0.000000
  73    0.000000
  74    0.000000
  75   -0.000005
  76   -0.000004
  77    0.000000
  78   -0.000043
  79   -0.000036
  80    0.000000
  81    0.000112
  82    0.000093
  83    0.000000
  84    0.000000
  85    0.000000
  86    0.000000
  87    0.000000
  88    0.000000
  89    0.000000
  90    0.000000
  91    0.000000
  92    0.000000
  93    0.000000
  94    0.000000
  95    0.000000
  96    0.000005
  97    0.000004
  98    0.000000
  99   -0.000009
 100   -0.000008
 101    0.000000
 102    0.000002
 103    0.000002
 104    0.000000
 105    0.000000
 106    0.000000
 107    0.405416
 108    0.338422
 109    0.000000
 110    0.000000
 111    0.000000
 112    0.000000
 113    0.000000
 114    0.000000
 115    0.000000
 116    0.005550
 117    0.004633
 118    0.000000
 119   -0.009928
 120   -0.008287
 121    0.000000
 122    0.002482
 123    0.002072
 124    0.000000
 125    0.000000
 126    0.000000
 127    0.000000
 128    0.000000
 129    0.000000
 130    0.000000
 131    0.000000
 132    0.000000
 133    0.000000
 134    0.000000
 135    0.000000
 136    0.000000
 137    0.000000
 138    0.000000
 139    0.000000
 Sym= A
 Ene=     0.0832
 Spin= Alpha
 Occup=   0.000000
   1   -0.073277
   2   -0.200476
   3   -0.201430
   4    0.256983
   5   -1.382089
   6   -0.000000
   7   -0.000000
   8   -0.000000
   9   -0.000000
  10   -0.000000
  11   -0.000000
  12   -0.000000
  13   -0.000000
  14   -0.000000
  15   -0.000000
  16   -0.000000
  17   -0.000000
  18    0.000583
  19   -0.000291
  20   -0.000291
  21   -0.000000
  22   -0.000000
  23   -0.000000
  24   -0.000058
  25    0.000029
  26    0.000029
  27   -0.000000
  28   -0.000000
  29   -0.000000
  30    0.010596
  31   -0.005298
  32   -0.005298
  33   -0.000000
  34   -0.000000
  35   -0.000000
  36   -0.000000
  37   -0.000000
  38   -0.000000
  39   -0.000000
  40   -0.000000
  41   -0.000000
  42   -0.000000
  43   -0.000000
  44   -0.000000
  45   -0.000000
  46   -0.000000
  47   -0.000000
  48   -0.000000
  49   -0.000000
  50   -0.000000
  51   -0.000000
  52   -0.000000
  53   -0.000000
  54   -0.000000
  55   -0.000000
  56   -0.000087
  57   -0.000033
  58   -0.000033
  59   -0.000000
  60   -0.000000
  61   -0.000000
  62   -0.000000
  63   -0.000000
  64   -0.000000
  65    0.000077
  66    0.000077
  67   -0.000019
  68   -0.000000
  69   -0.000000
  70   -0.000000
  71   -0.029017
  72    0.000586
  73   -0.001598
  74   -0.000000
  75   -0.000000
  76   -0.000000
  77   -0.000000
  78   -0.000000
  79   -0.000000
  80   -0.000000
  81   -0.000000
  82   -0.000000
  83   -0.000139
  84    0.000069
  85    0.000069
  86   -0.000000
  87   -0.000000
  88   -0.000000
  89    0.000011
  90   -0.000005
  91   -0.000005
  92   -0.000000
  93   -0.000000
  94   -0.000000
  95   -0.000000
  96   -0.000000
  97   -0.000000
  98   -0.000000
  99   -0.000000
 100   -0.000000
 101   -0.000000
 102   -0.000000
 103   -0.000000
 104   -0.000000
 105    1.822074
 106   -0.000000
 107   -0.000000
 108   -0.000000
 109   -0.062004
 110    0.031002
 111    0.031002
 112   -0.000000
 113   -0.000000
 114   -0.000000
 115   -0.000000
 116   -0.000000
 117   -0.000000
 118   -0.000000
 119   -0.000000
 120   -0.000000
 121   -0.000000
 122   -0.000000
 123   -0.000000
 124   -0.000000
 125    0.000304
 126    0.000114
 127    0.000114
 128   -0.000000
 129   -0.000000
 130   -0.000000
 131   -0.000000
 132   -0.000000
 133   -0.000000
 134   -0.000267
 135   -0.000267
 136    0.000067
 137   -0.000000
 138   -0.000000
 139   -0.000000
 Sym= A
 Ene=     0.0898
 Spin= Alpha
 Occup=   0.000000
   1   -0.000000
   2   -0.000000
   3   -0.000000
   4   -0.000000
   5   -0.000000
   6   -0.027232
   7   -0.000000
   8   -0.000000
   9   -0.110617
  10   -0.000000
  11   -0.000000
  12    0.025643
  13   -0.000000
  14   -0.000000
  15   -0.533393
  16   -0.000000
  17   -0.000000
  18   -0.000000
  19   -0.000000
  20   -0.000000
  21   -0.000000
  22   -0.000000
  23   -0.000000
  24   -0.000000
  25   -0.000000
  26   -0.000000
  27   -0.000000
  28   -0.000000
  29   -0.000000
  30   -0.000000
  31   -0.000000
  32   -0.000000
  33   -0.000000
  34   -0.000000
  35   -0.000000
  36    0.000602
  37   -0.000000
  38   -0.000000
  39   -0.000404
  40   -0.000000
  41   -0.000000
  42   -0.000404
  43   -0.000000
  44   -0.000000
  45   -0.000000
  46    0.004241
  47   -0.000000
  48   -0.000000
  49   -0.002845
  50   -0.000000
  51   -0.000000
  52   -0.002845
  53   -0.000000
  54   -0.000000
  55   -0.000000
  56   -0.000000
  57   -0.000000
  58   -0.000000
  59   -0.000000
  60   -0.000000
  61   -0.000000
  62   -0.000000
  63   -0.000000
  64   -0.000000
  65   -0.000000
  66   -0.000000
  67   -0.000000
  68   -0.000000
  69   -0.000000
  70   -0.000000
  71   -0.000000
  72   -0.000000
  73   -0.000000
  74   -0.003986
  75   -0.000000
  76   -0.000000
  77    0.000309
  78   -0.000000
  79   -0.000000
  80   -0.000233
  81   -0.000000
  82   -0.000000
  83   -0.000000
  84   -0.000000
  85   -0.000000
  86   -0.000000
  87   -0.000000
  88   -0.000000
  89   -0.000000
  90   -0.000000
  91   -0.000000
  92   -0.000000
  93   -0.000000
  94   -0.000000
  95    0.000006
  96   -0.000000
  97   -0.000000
  98   -0.000004
  99   -0.000000
 100   -0.000000
 101   -0.000004
 102   -0.000000
 103   -0.000000
 104   -0.000000
 105   -0.000000
 106    1.269422
 107   -0.000000
 108   -0.000000
 109   -0.000000
 110   -0.000000
 111   -0.000000
 112   -0.000000
 113   -0.000000
 114   -0.000000
 115   -0.006431
 116   -0.000000
 117   -0.000000
 118    0.004314
 119   -0.000000
 120   -0.000000
 121    0.004314
 122   -0.000000
 123   -0.000000
 124   -0.000000
 125   -0.000000
 126   -0.000000
 127   -0.000000
 128   -0.000000
 129   -0.000000
 130   -0.000000
 131   -0.000000
 132   -0.000000
 133   -0.000000
 134   -0.000000
 135   -0.000000
 136   -0.000000
 137   -0.000000
 138   -0.000000
 139   -0.000000
 Sym= A
 Ene=     0.1082
 Spin= Alpha
 Occup=   0.000000
   1   -0.000000
   2   -0.000000
   3   -0.000000
   4   -0.000000
   5   -0.000000
   6   -0.000000
   7    0.010543
   8   -0.071743
   9   -0.000000
  10    0.030537
  11   -0.207801
  12   -0.000000
  13    0.015384
  14   -0.104687
  15   -0.000000
  16    0.118063
  17   -0.803406
  18   -0.000000
  19   -0.000000
  20   -0.000000
  21   -0.000000
  22   -0.000000
  23   -0.000000
  24   -0.000000
  25   -0.000000
  26   -0.000000
  27   -0.000000
  28   -0.000000
  29   -0.000000
  30   -0.000000
  31   -0.000000
  32   -0.000000
  33   -0.000000
  34   -0.000000
  35   -0.000000
  36   -0.000000
  37    0.000136
  38   -0.000924
  39   -0.000000
  40   -0.000243
  41    0.001652
  42   -0.000000
  43    0.000061
  44   -0.000413
  45   -0.000000
  46   -0.000000
  47    0.000510
  48   -0.003471
  49   -0.000000
  50   -0.000912
  51    0.006209
  52   -0.000000
  53    0.000228
  54   -0.001552
  55   -0.000000
  56   -0.000000
  57   -0.000000
  58   -0.000000
  59   -0.000000
  60   -0.000000
  61   -0.000000
  62   -0.000000
  63   -0.000000
  64   -0.000000
  65   -0.000000
  66   -0.000000
  67   -0.000000
  68   -0.000000
  69   -0.000000
  70   -0.000000
  71   -0.000000
  72   -0.000000
  73   -0.000000
  74   -0.000000
  75    0.000723
  76   -0.004923
  77   -0.000000
  78   -0.000050
  79    0.000340
  80   -0.000000
  81    0.000051
  82   -0.000348
  83   -0.000000
  84   -0.000000
  85   -0.000000
  86   -0.000000
  87   -0.000000
  88   -0.000000
  89   -0.000000
  90   -0.000000
  91   -0.000000
  92   -0.000000
  93   -0.000000
  94   -0.000000
  95   -0.000000
  96    0.000001
  97   -0.000006
  98   -0.000000
  99   -0.000002
 100    0.000011
 101   -0.000000
 102    0.000000
 103   -0.000003
 104   -0.000000
 105   -0.000000
 106   -0.000000
 107   -0.172964
 108    1.176999
 109   -0.000000
 110   -0.000000
 111   -0.000000
 112   -0.000000
 113   -0.000000
 114   -0.000000
 115   -0.000000
 116    0.000180
 117   -0.001222
 118   -0.000000
 119   -0.000321
 120    0.002186
 121   -0.000000
 122    0.000080
 123   -0.000546
 124   -0.000000
 125   -0.000000
 126   -0.000000
 127   -0.000000
 128   -0.000000
 129   -0.000000
 130   -0.000000
 131   -0.000000
 132   -0.000000
 133   -0.000000
 134   -0.000000
 135   -0.000000
 136   -0.000000
 137   -0.000000
 138   -0.000000
 139   -0.000000
 Sym= A
 Ene=     0.1082
 Spin= Alpha
 Occup=   0.000000
   1   -0.000000
   2   -0.000000
   3   -0.000000
   4   -0.000000
   5   -0.000000
   6   -0.000000
   7   -0.071743
   8   -0.010543
   9   -0.000000
  10   -0.207801
  11   -0.030537
  12   -0.000000
  13   -0.104687
  14   -0.015384
  15   -0.000000
  16   -0.803406
  17   -0.118063
  18   -0.000000
  19   -0.000000
  20   -0.000000
  21   -0.000000
  22   -0.000000
  23   -0.000000
  24   -0.000000
  25   -0.000000
  26   -0.000000
  27   -0.000000
  28   -0.000000
  29   -0.000000
  30   -0.000000
  31   -0.000000
  32   -0.000000
  33   -0.000000
  34   -0.000000
  35   -0.000000
  36   -0.000000
  37   -0.000924
  38   -0.000136
  39   -0.000000
  40    0.001652
  41    0.000243
  42   -0.000000
  43   -0.000413
  44   -0.000061
  45   -0.000000
  46   -0.000000
  47   -0.003471
  48   -0.000510
  49   -0.000000
  50    0.006209
  51    0.000912
  52   -0.000000
  53   -0.001552
  54   -0.000228
  55   -0.000000
  56   -0.000000
  57   -0.000000
  58   -0.000000
  59   -0.000000
  60   -0.000000
  61   -0.000000
  62   -0.000000
  63   -0.000000
  64   -0.000000
  65   -0.000000
  66   -0.000000
  67   -0.000000
  68   -0.000000
  69   -0.000000
  70   -0.000000
  71   -0.000000
  72   -0.000000
  73   -0.000000
  74   -0.000000
  75   -0.004923
  76   -0.000723
  77   -0.000000
  78    0.000340
  79    0.000050
  80   -0.000000
  81   -0.000348
  82   -0.000051
  83   -0.000000
  84   -0.000000
  85   -0.000000
  86   -0.000000
  87   -0.000000
  88   -0.000000
  89   -0.000000
  90   -0.000000
  91   -0.000000
  92   -0.000000
  93   -0.000000
  94   -0.000000
  95   -0.000000
  96   -0.000006
  97   -0.000001
  98   -0.000000
  99    0.000011
 100    0.000002
 101   -0.000000
 102   -0.000003
 103   -0.000000
 104   -0.000000
 105   -0.000000
 106   -0.000000
 107    1.176999
 108    0.172964
 109   -0.000000
 110   -0.000000
 111   -0.000000
 112   -0.000000
 113   -0.000000
 114   -0.000000
 115   -0.000000
 116   -0.001222
 117   -0.000180
 118   -0.000000
 119    0.002186
 120    0.000321
 121   -0.000000
 122   -0.000546
 123   -0.000080
 124   -0.000000
 125   -0.000000
 126   -0.000000
 127   -0.000000
 128   -0.000000
 129   -0.000000
 130   -0.000000
 131   -0.000000
 132   -0.000000
 133   -0.000000
 134   -0.000000
 135   -0.000000
 136   -0.000000
 137   -0.000000
 138   -0.000000
 139   -0.000000
 Sym= A
 Ene=     0.2323
 Spin= Alpha
 Occup=   0.000000
   1   -0.000000
   2   -0.000000
   3   -0.000000
   4   -0.000000
   5   -0.000000
   6   -0.000000
   7   -0.000000
   8   -0.000000
   9   -0.000000
  10   -0.000000
  11   -0.000000
  12   -0.000000
  13   -0.000000
  14   -0.000000
  15   -0.000000
  16   -0.000000
  17   -0.000000
  18   -0.000000
  19    0.008791
  20   -0.008791
  21   -0.000000
  22   -0.000000
  23   -0.000063
  24   -0.000000
  25   -0.059247
  26    0.059247
  27   -0.000000
  28   -0.000000
  29    0.000425
  30   -0.000000
  31    0.168957
  32   -0.168957
  33   -0.000000
  34   -0.000000
  35   -0.001212
  36   -0.000000
  37   -0.000000
  38   -0.000000
  39   -0.000000
  40   -0.000000
  41   -0.000000
  42   -0.000000
  43   -0.000000
  44   -0.000000
  45   -0.000000
  46   -0.000000
  47   -0.000000
  48   -0.000000
  49   -0.000000
  50   -0.000000
  51   -0.000000
  52   -0.000000
  53   -0.000000
  54   -0.000000
  55   -0.000000
  56   -0.000000
  57    0.000385
  58   -0.000385
  59   -0.000000
  60   -0.000000
  61   -0.000000
  62   -0.000002
  63   -0.000000
  64   -0.000002
  65   -0.000677
  66    0.000677
  67   -0.000000
  68    0.000005
  69   -0.000000
  70   -0.000000
  71   -0.000000
  72   -0.000000
  73   -0.000000
  74   -0.000000
  75   -0.000000
  76   -0.000000
  77   -0.000000
  78   -0.000000
  79   -0.000000
  80   -0.000000
  81   -0.000000
  82   -0.000000
  83   -0.000000
  84   -0.001140
  85    0.001140
  86   -0.000000
  87   -0.000000
  88    0.000008
  89   -0.000000
  90    0.000142
  91   -0.000142
  92   -0.000000
  93   -0.000000
  94   -0.000001
  95   -0.000000
  96   -0.000000
  97   -0.000000
  98   -0.000000
  99   -0.000000
 100   -0.000000
 101   -0.000000
 102   -0.000000
 103   -0.000000
 104   -0.000000
 105   -0.000000
 106   -0.000000
 107   -0.000000
 108   -0.000000
 109   -0.000000
 110   -0.952084
 111    0.952084
 112   -0.000000
 113   -0.000000
 114    0.006831
 115   -0.000000
 116   -0.000000
 117   -0.000000
 118   -0.000000
 119   -0.000000
 120   -0.000000
 121   -0.000000
 122   -0.000000
 123   -0.000000
 124   -0.000000
 125   -0.000000
 126   -0.002274
 127    0.002274
 128   -0.000000
 129   -0.000000
 130   -0.000000
 131    0.000011
 132   -0.000000
 133    0.000011
 134    0.003995
 135   -0.003995
 136   -0.000000
 137   -0.000029
 138   -0.000000
 139   -0.000000
 Sym= A
 Ene=     0.2323
 Spin= Alpha
 Occup=   0.000000
   1    0.000000
   2    0.000000
   3    0.000000
   4    0.000000
   5    0.000000
   6    0.000000
   7    0.000000
   8    0.000000
   9    0.000000
  10    0.000000
  11    0.000000
  12    0.000000
  13    0.000000
  14    0.000000
  15    0.000000
  16    0.000000
  17    0.000000
  18    0.000000
  19   -0.000055
  20    0.000055
  21    0.000000
  22    0.000000
  23   -0.010151
  24    0.000000
  25    0.000368
  26   -0.000368
  27    0.000000
  28    0.000000
  29    0.068413
  30    0.000000
  31   -0.001050
  32    0.001050
  33    0.000000
  34    0.000000
  35   -0.195095
  36    0.000000
  37    0.000000
  38    0.000000
  39    0.000000
  40    0.000000
  41    0.000000
  42    0.000000
  43    0.000000
  44    0.000000
  45    0.000000
  46    0.000000
  47    0.000000
  48    0.000000
  49    0.000000
  50    0.000000
  51    0.000000
  52    0.000000
  53    0.000000
  54    0.000000
  55    0.000000
  56    0.000000
  57   -0.000002
  58    0.000002
  59    0.000000
  60    0.000000
  61    0.000000
  62   -0.000291
  63    0.000000
  64   -0.000291
  65    0.000004
  66   -0.000004
  67    0.000000
  68    0.000781
  69    0.000000
  70    0.000000
  71    0.000000
  72    0.000000
  73    0.000000
  74    0.000000
  75    0.000000
  76    0.000000
  77    0.000000
  78    0.000000
  79    0.000000
  80    0.000000
  81    0.000000
  82    0.000000
  83    0.000000
  84    0.000007
  85   -0.000007
  86    0.000000
  87    0.000000
  88    0.001316
  89    0.000000
  90   -0.000001
  91    0.000001
  92    0.000000
  93    0.000000
  94   -0.000164
  95    0.000000
  96    0.000000
  97    0.000000
  98    0.000000
  99    0.000000
 100    0.000000
 101    0.000000
 102    0.000000
 103    0.000000
 104    0.000000
 105    0.000000
 106    0.000000
 107    0.000000
 108    0.000000
 109    0.000000
 110    0.005916
 111   -0.005916
 112    0.000000
 113    0.000000
 114    1.099372
 115    0.000000
 116    0.000000
 117    0.000000
 118    0.000000
 119    0.000000
 120    0.000000
 121    0.000000
 122    0.000000
 123    0.000000
 124    0.000000
 125    0.000000
 126    0.000014
 127   -0.000014
 128    0.000000
 129    0.000000
 130    0.000000
 131    0.001719
 132    0.000000
 133    0.001719
 134   -0.000025
 135    0.000025
 136    0.000000
 137   -0.004613
 138    0.000000
 139    0.000000
 Sym= A
 Ene=     0.2416
 Spin= Alpha
 Occup=   0.000000
   1   -0.000000
   2   -0.000000
   3   -0.000000
   4   -0.000000
   5   -0.000000
   6   -0.000000
   7   -0.000000
   8   -0.000000
   9   -0.000000
  10   -0.000000
  11   -0.000000
  12   -0.000000
  13   -0.000000
  14   -0.000000
  15   -0.000000
  16   -0.000000
  17   -0.000000
  18   -0.000000
  19   -0.000000
  20   -0.000000
  21   -0.008496
  22    0.005477
  23   -0.000000
  24   -0.000000
  25   -0.000000
  26   -0.000000
  27    0.061057
  28   -0.039359
  29   -0.000000
  30   -0.000000
  31   -0.000000
  32   -0.000000
  33   -0.165619
  34    0.106762
  35   -0.000000
  36   -0.000000
  37   -0.000000
  38   -0.000000
  39   -0.000000
  40   -0.000000
  41   -0.000000
  42   -0.000000
  43   -0.000000
  44   -0.000000
  45   -0.000000
  46   -0.000000
  47   -0.000000
  48   -0.000000
  49   -0.000000
  50   -0.000000
  51   -0.000000
  52   -0.000000
  53   -0.000000
  54   -0.000000
  55   -0.000000
  56   -0.000000
  57   -0.000000
  58   -0.000000
  59    0.000930
  60   -0.000599
  61   -0.000697
  62   -0.000000
  63    0.000449
  64   -0.000000
  65   -0.000000
  66   -0.000000
  67   -0.000000
  68   -0.000000
  69    0.000201
  70   -0.000312
  71   -0.000000
  72   -0.000000
  73   -0.000000
  74   -0.000000
  75   -0.000000
  76   -0.000000
  77   -0.000000