[Molden Format]
[Atoms] Angs
 C     1  6     0.000000     0.000000     0.000000
[GTO]
  1 0
 s    9 1.00
  0.3398000000D+05  0.9163454600D-04
  0.5089000000D+04  0.7089090130D-03
  0.1157000000D+04  0.3718751399D-02
  0.3266000000D+03  0.1546710574D-01
  0.1061000000D+03  0.5329807549D-01
  0.3811000000D+02  0.1480683352D+00
  0.1475000000D+02  0.3077621740D+00
  0.6035000000D+01  0.4021296445D+00
  0.2530000000D+01  0.2185645031D+00
 s    9 1.00
  0.3398000000D+05 -0.5571036000D-04
  0.5089000000D+04 -0.4427507570D-03
  0.1157000000D+04 -0.2301717514D-02
  0.3266000000D+03 -0.9746380913D-02
  0.1061000000D+03 -0.3375461404D-01
  0.3811000000D+02 -0.1001613634D+00
  0.1475000000D+02 -0.2262808226D+00
  0.6035000000D+01 -0.4148750525D+00
  0.2530000000D+01 -0.3460463685D+00
 s    1 1.00
  0.7355000000D+00  0.1000000000D+01
 s    1 1.00
  0.2905000000D+00  0.1000000000D+01
 s    1 1.00
  0.1111000000D+00  0.1000000000D+01
 p    3 1.00
  0.3451000000D+02  0.3168785521D-01
  0.7915000000D+01  0.2128943073D+00
  0.2368000000D+01  0.8395867520D+00
 p    1 1.00
  0.8132000000D+00  0.1000000000D+01
 p    1 1.00
  0.2890000000D+00  0.1000000000D+01
 p    1 1.00
  0.1007000000D+00  0.1000000000D+01
 d    1 1.00
  0.1848000000D+01  0.1000000000D+01
 d    1 1.00
  0.6490000000D+00  0.1000000000D+01
 d    1 1.00
  0.2280000000D+00  0.1000000000D+01
 f    1 1.00
  0.1419000000D+01  0.1000000000D+01
 f    1 1.00
  0.4850000000D+00  0.1000000000D+01
 g    1 1.00
  0.1011000000D+01  0.1000000000D+01
 s    1 1.00
  0.7216000000D+01  0.1000000000D+01
 s    1 1.00
  0.1957000000D+02  0.1000000000D+01
 s    1 1.00
  0.5307300000D+02  0.1000000000D+01
 p    1 1.00
  0.8182000000D+01  0.1000000000D+01
 p    1 1.00
  0.2418600000D+02  0.1000000000D+01
 p    1 1.00
  0.7149400000D+02  0.1000000000D+01
 d    1 1.00
  0.8656000000D+01  0.1000000000D+01
 d    1 1.00
  0.3321300000D+02  0.1000000000D+01
 f    1 1.00
  0.2469400000D+02  0.1000000000D+01
 s    1 1.00
  0.4145000000D-01  0.1000000000D+01
 p    1 1.00
  0.3218000000D-01  0.1000000000D+01
 d    1 1.00
  0.7660000000D-01  0.1000000000D+01
 f    1 1.00
  0.1870000000D+00  0.1000000000D+01
 g    1 1.00
  0.4240000000D+00  0.1000000000D+01
 

[MO]
 Ene=   -11.3649
 Spin= Alpha
 Occup=   2.000000
   1   0.993702
   2   0.001029
   3   0.015985
   4  -0.003677
   5   0.001712
   6  -0.000000
   7  -0.000000
   8  -0.000000
   9  -0.000000
  10  -0.000000
  11  -0.000000
  12  -0.000000
  13  -0.000000
  14  -0.000000
  15  -0.000000
  16  -0.000000
  17  -0.000000
  18   0.000086
  19  -0.000043
  20  -0.000043
  21  -0.000000
  22  -0.000000
  23  -0.000000
  24   0.000803
  25  -0.000401
  26  -0.000401
  27  -0.000000
  28  -0.000000
  29  -0.000000
  30   0.000009
  31  -0.000005
  32  -0.000005
  33  -0.000000
  34  -0.000000
  35  -0.000000
  36  -0.000000
  37  -0.000000
  38  -0.000000
  39  -0.000000
  40  -0.000000
  41  -0.000000
  42  -0.000000
  43  -0.000000
  44  -0.000000
  45  -0.000000
  46  -0.000000
  47  -0.000000
  48  -0.000000
  49  -0.000000
  50  -0.000000
  51  -0.000000
  52  -0.000000
  53  -0.000000
  54  -0.000000
  55  -0.000000
  56  -0.000014
  57  -0.000005
  58  -0.000005
  59  -0.000000
  60  -0.000000
  61  -0.000000
  62  -0.000000
  63  -0.000000
  64  -0.000000
  65   0.000012
  66   0.000012
  67  -0.000003
  68  -0.000000
  69  -0.000000
  70  -0.000000
  71   0.000436
  72  -0.000018
  73   0.000047
  74  -0.000000
  75  -0.000000
  76  -0.000000
  77  -0.000000
  78  -0.000000
  79  -0.000000
  80  -0.000000
  81  -0.000000
  82  -0.000000
  83  -0.000496
  84   0.000248
  85   0.000248
  86  -0.000000
  87  -0.000000
  88  -0.000000
  89  -0.000013
  90   0.000006
  91   0.000006
  92  -0.000000
  93  -0.000000
  94  -0.000000
  95  -0.000000
  96  -0.000000
  97  -0.000000
  98  -0.000000
  99  -0.000000
 100  -0.000000
 101  -0.000000
 102  -0.000000
 103  -0.000000
 104  -0.000000
 105  -0.000436
 106  -0.000000
 107  -0.000000
 108  -0.000000
 109   0.000049
 110  -0.000025
 111  -0.000025
 112  -0.000000
 113  -0.000000
 114  -0.000000
 115  -0.000000
 116  -0.000000
 117  -0.000000
 118  -0.000000
 119  -0.000000
 120  -0.000000
 121  -0.000000
 122  -0.000000
 123  -0.000000
 124  -0.000000
 125  -0.000003
 126  -0.000001
 127  -0.000001
 128  -0.000000
 129  -0.000000
 130  -0.000000
 131  -0.000000
 132  -0.000000
 133  -0.000000
 134   0.000003
 135   0.000003
 136  -0.000001
 137  -0.000000
 138  -0.000000
 139  -0.000000
 Ene=    -0.7256
 Spin= Alpha
 Occup=   2.000000
   1   0.000589
   2   0.344912
   3   0.281045
   4   0.591838
   5   0.271536
   6  -0.000000
   7  -0.000000
   8  -0.000000
   9  -0.000000
  10  -0.000000
  11  -0.000000
  12  -0.000000
  13  -0.000000
  14  -0.000000
  15  -0.000000
  16  -0.000000
  17  -0.000000
  18   0.001917
  19  -0.000959
  20  -0.000959
  21  -0.000000
  22  -0.000000
  23  -0.000000
  24  -0.000366
  25   0.000183
  26   0.000183
  27  -0.000000
  28  -0.000000
  29  -0.000000
  30   0.008401
  31  -0.004201
  32  -0.004201
  33  -0.000000
  34  -0.000000
  35  -0.000000
  36  -0.000000
  37  -0.000000
  38  -0.000000
  39  -0.000000
  40  -0.000000
  41  -0.000000
  42  -0.000000
  43  -0.000000
  44  -0.000000
  45  -0.000000
  46  -0.000000
  47  -0.000000
  48  -0.000000
  49  -0.000000
  50  -0.000000
  51  -0.000000
  52  -0.000000
  53  -0.000000
  54  -0.000000
  55  -0.000000
  56  -0.000067
  57  -0.000025
  58  -0.000025
  59  -0.000000
  60  -0.000000
  61  -0.000000
  62  -0.000000
  63  -0.000000
  64  -0.000000
  65   0.000059
  66   0.000059
  67  -0.000015
  68  -0.000000
  69  -0.000000
  70  -0.000000
  71   0.000261
  72  -0.000077
  73   0.000073
  74  -0.000000
  75  -0.000000
  76  -0.000000
  77  -0.000000
  78  -0.000000
  79  -0.000000
  80  -0.000000
  81  -0.000000
  82  -0.000000
  83   0.000481
  84  -0.000241
  85  -0.000241
  86  -0.000000
  87  -0.000000
  88  -0.000000
  89  -0.000012
  90   0.000006
  91   0.000006
  92  -0.000000
  93  -0.000000
  94  -0.000000
  95  -0.000000
  96  -0.000000
  97  -0.000000
  98  -0.000000
  99  -0.000000
 100  -0.000000
 101  -0.000000
 102  -0.000000
 103  -0.000000
 104  -0.000000
 105   0.002911
 106  -0.000000
 107  -0.000000
 108  -0.000000
 109   0.004443
 110  -0.002221
 111  -0.002221
 112  -0.000000
 113  -0.000000
 114  -0.000000
 115  -0.000000
 116  -0.000000
 117  -0.000000
 118  -0.000000
 119  -0.000000
 120  -0.000000
 121  -0.000000
 122  -0.000000
 123  -0.000000
 124  -0.000000
 125  -0.000403
 126  -0.000151
 127  -0.000151
 128  -0.000000
 129  -0.000000
 130  -0.000000
 131  -0.000000
 132  -0.000000
 133  -0.000000
 134   0.000354
 135   0.000354
 136  -0.000089
 137  -0.000000
 138  -0.000000
 139  -0.000000
 Ene=    -0.3584
 Spin= Alpha
 Occup=   2.000000
   1  -0.000000
   2  -0.000000
   3  -0.000000
   4  -0.000000
   5  -0.000000
   6   0.166515
   7  -0.000000
   8  -0.000000
   9   0.325448
  10  -0.000000
  11  -0.000000
  12   0.441854
  13  -0.000000
  14  -0.000000
  15   0.288936
  16  -0.000000
  17  -0.000000
  18  -0.000000
  19  -0.000000
  20  -0.000000
  21  -0.000000
  22  -0.000000
  23  -0.000000
  24  -0.000000
  25  -0.000000
  26  -0.000000
  27  -0.000000
  28  -0.000000
  29  -0.000000
  30  -0.000000
  31  -0.000000
  32  -0.000000
  33  -0.000000
  34  -0.000000
  35  -0.000000
  36  -0.004129
  37  -0.000000
  38  -0.000000
  39   0.002770
  40  -0.000000
  41  -0.000000
  42   0.002770
  43  -0.000000
  44  -0.000000
  45  -0.000000
  46  -0.009329
  47  -0.000000
  48  -0.000000
  49   0.006258
  50  -0.000000
  51  -0.000000
  52   0.006258
  53  -0.000000
  54  -0.000000
  55  -0.000000
  56  -0.000000
  57  -0.000000
  58  -0.000000
  59  -0.000000
  60  -0.000000
  61  -0.000000
  62  -0.000000
  63  -0.000000
  64  -0.000000
  65  -0.000000
  66  -0.000000
  67  -0.000000
  68  -0.000000
  69  -0.000000
  70  -0.000000
  71  -0.000000
  72  -0.000000
  73  -0.000000
  74   0.000184
  75  -0.000000
  76  -0.000000
  77  -0.000327
  78  -0.000000
  79  -0.000000
  80   0.000250
  81  -0.000000
  82  -0.000000
  83  -0.000000
  84  -0.000000
  85  -0.000000
  86  -0.000000
  87  -0.000000
  88  -0.000000
  89  -0.000000
  90  -0.000000
  91  -0.000000
  92  -0.000000
  93  -0.000000
  94  -0.000000
  95  -0.000025
  96  -0.000000
  97  -0.000000
  98   0.000017
  99  -0.000000
 100  -0.000000
 101   0.000017
 102  -0.000000
 103  -0.000000
 104  -0.000000
 105  -0.000000
 106   0.023777
 107  -0.000000
 108  -0.000000
 109  -0.000000
 110  -0.000000
 111  -0.000000
 112  -0.000000
 113  -0.000000
 114  -0.000000
 115  -0.007762
 116  -0.000000
 117  -0.000000
 118   0.005207
 119  -0.000000
 120  -0.000000
 121   0.005207
 122  -0.000000
 123  -0.000000
 124  -0.000000
 125  -0.000000
 126  -0.000000
 127  -0.000000
 128  -0.000000
 129  -0.000000
 130  -0.000000
 131  -0.000000
 132  -0.000000
 133  -0.000000
 134  -0.000000
 135  -0.000000
 136  -0.000000
 137  -0.000000
 138  -0.000000
 139  -0.000000
 Ene=     0.0189
 Spin= Alpha
 Occup=   0.000000
   1  -0.000000
   2  -0.000000
   3  -0.000000
   4  -0.000000
   5  -0.000000
   6  -0.000000
   7  -0.000000
   8   0.096598
   9  -0.000000
  10  -0.000000
  11   0.183356
  12  -0.000000
  13  -0.000000
  14   0.300046
  15  -0.000000
  16  -0.000000
  17   0.237739
  18  -0.000000
  19  -0.000000
  20  -0.000000
  21  -0.000000
  22  -0.000000
  23  -0.000000
  24  -0.000000
  25  -0.000000
  26  -0.000000
  27  -0.000000
  28  -0.000000
  29  -0.000000
  30  -0.000000
  31  -0.000000
  32  -0.000000
  33  -0.000000
  34  -0.000000
  35  -0.000000
  36  -0.000000
  37  -0.000000
  38   0.001288
  39  -0.000000
  40  -0.000000
  41  -0.002305
  42  -0.000000
  43  -0.000000
  44   0.000576
  45  -0.000000
  46  -0.000000
  47  -0.000000
  48   0.002397
  49  -0.000000
  50  -0.000000
  51  -0.004288
  52  -0.000000
  53  -0.000000
  54   0.001072
  55  -0.000000
  56  -0.000000
  57  -0.000000
  58  -0.000000
  59  -0.000000
  60  -0.000000
  61  -0.000000
  62  -0.000000
  63  -0.000000
  64  -0.000000
  65  -0.000000
  66  -0.000000
  67  -0.000000
  68  -0.000000
  69  -0.000000
  70  -0.000000
  71  -0.000000
  72  -0.000000
  73  -0.000000
  74  -0.000000
  75  -0.000000
  76  -0.000007
  77  -0.000000
  78  -0.000000
  79  -0.000056
  80  -0.000000
  81  -0.000000
  82   0.000145
  83  -0.000000
  84  -0.000000
  85  -0.000000
  86  -0.000000
  87  -0.000000
  88  -0.000000
  89  -0.000000
  90  -0.000000
  91  -0.000000
  92  -0.000000
  93  -0.000000
  94  -0.000000
  95  -0.000000
  96  -0.000000
  97   0.000007
  98  -0.000000
  99  -0.000000
 100  -0.000012
 101  -0.000000
 102  -0.000000
 103   0.000003
 104  -0.000000
 105  -0.000000
 106  -0.000000
 107  -0.000000
 108   0.528102
 109  -0.000000
 110  -0.000000
 111  -0.000000
 112  -0.000000
 113  -0.000000
 114  -0.000000
 115  -0.000000
 116  -0.000000
 117   0.007229
 118  -0.000000
 119  -0.000000
 120  -0.012932
 121  -0.000000
 122  -0.000000
 123   0.003233
 124  -0.000000
 125  -0.000000
 126  -0.000000
 127  -0.000000
 128  -0.000000
 129  -0.000000
 130  -0.000000
 131  -0.000000
 132  -0.000000
 133  -0.000000
 134  -0.000000
 135  -0.000000
 136  -0.000000
 137  -0.000000
 138  -0.000000
 139  -0.000000
 Ene=     0.0189
 Spin= Alpha
 Occup=   0.000000
   1  -0.000000
   2  -0.000000
   3  -0.000000
   4  -0.000000
   5  -0.000000
   6  -0.000000
   7   0.096598
   8  -0.000000
   9  -0.000000
  10   0.183356
  11  -0.000000
  12  -0.000000
  13   0.300046
  14  -0.000000
  15  -0.000000
  16   0.237739
  17  -0.000000
  18  -0.000000
  19  -0.000000
  20  -0.000000
  21  -0.000000
  22  -0.000000
  23  -0.000000
  24  -0.000000
  25  -0.000000
  26  -0.000000
  27  -0.000000
  28  -0.000000
  29  -0.000000
  30  -0.000000
  31  -0.000000
  32  -0.000000
  33  -0.000000
  34  -0.000000
  35  -0.000000
  36  -0.000000
  37   0.001288
  38  -0.000000
  39  -0.000000
  40  -0.002305
  41  -0.000000
  42  -0.000000
  43   0.000576
  44  -0.000000
  45  -0.000000
  46  -0.000000
  47   0.002397
  48  -0.000000
  49  -0.000000
  50  -0.004288
  51  -0.000000
  52  -0.000000
  53   0.001072
  54  -0.000000
  55  -0.000000
  56  -0.000000
  57  -0.000000
  58  -0.000000
  59  -0.000000
  60  -0.000000
  61  -0.000000
  62  -0.000000
  63  -0.000000
  64  -0.000000
  65  -0.000000
  66  -0.000000
  67  -0.000000
  68  -0.000000
  69  -0.000000
  70  -0.000000
  71  -0.000000
  72  -0.000000
  73  -0.000000
  74  -0.000000
  75  -0.000007
  76  -0.000000
  77  -0.000000
  78  -0.000056
  79  -0.000000
  80  -0.000000
  81   0.000145
  82  -0.000000
  83  -0.000000
  84  -0.000000
  85  -0.000000
  86  -0.000000
  87  -0.000000
  88  -0.000000
  89  -0.000000
  90  -0.000000
  91  -0.000000
  92  -0.000000
  93  -0.000000
  94  -0.000000
  95  -0.000000
  96   0.000007
  97  -0.000000
  98  -0.000000
  99  -0.000012
 100  -0.000000
 101  -0.000000
 102   0.000003
 103  -0.000000
 104  -0.000000
 105  -0.000000
 106  -0.000000
 107   0.528102
 108  -0.000000
 109  -0.000000
 110  -0.000000
 111  -0.000000
 112  -0.000000
 113  -0.000000
 114  -0.000000
 115  -0.000000
 116   0.007229
 117  -0.000000
 118  -0.000000
 119  -0.012932
 120  -0.000000
 121  -0.000000
 122   0.003233
 123  -0.000000
 124  -0.000000
 125  -0.000000
 126  -0.000000
 127  -0.000000
 128  -0.000000
 129  -0.000000
 130  -0.000000
 131  -0.000000
 132  -0.000000
 133  -0.000000
 134  -0.000000
 135  -0.000000
 136  -0.000000
 137  -0.000000
 138  -0.000000
 139  -0.000000
 Ene=     0.0832
 Spin= Alpha
 Occup=   0.000000
   1  -0.073277
   2  -0.200476
   3  -0.201430
   4   0.256983
   5  -1.382089
   6   0.000000
   7   0.000000
   8   0.000000
   9   0.000000
  10   0.000000
  11   0.000000
  12   0.000000
  13   0.000000
  14   0.000000
  15   0.000000
  16   0.000000
  17   0.000000
  18   0.000583
  19  -0.000291
  20  -0.000291
  21   0.000000
  22   0.000000
  23   0.000000
  24  -0.000058
  25   0.000029
  26   0.000029
  27   0.000000
  28   0.000000
  29   0.000000
  30   0.010596
  31  -0.005298
  32  -0.005298
  33   0.000000
  34   0.000000
  35   0.000000
  36   0.000000
  37   0.000000
  38   0.000000
  39   0.000000
  40   0.000000
  41   0.000000
  42   0.000000
  43   0.000000
  44   0.000000
  45   0.000000
  46   0.000000
  47   0.000000
  48   0.000000
  49   0.000000
  50   0.000000
  51   0.000000
  52   0.000000
  53   0.000000
  54   0.000000
  55   0.000000
  56  -0.000087
  57  -0.000033
  58  -0.000033
  59   0.000000
  60   0.000000
  61   0.000000
  62   0.000000
  63   0.000000
  64   0.000000
  65   0.000077
  66   0.000077
  67  -0.000019
  68   0.000000
  69   0.000000
  70   0.000000
  71  -0.029017
  72   0.000586
  73  -0.001598
  74   0.000000
  75   0.000000
  76   0.000000
  77   0.000000
  78   0.000000
  79   0.000000
  80   0.000000
  81   0.000000
  82   0.000000
  83  -0.000139
  84   0.000069
  85   0.000069
  86   0.000000
  87   0.000000
  88   0.000000
  89   0.000011
  90  -0.000005
  91  -0.000005
  92   0.000000
  93   0.000000
  94   0.000000
  95   0.000000
  96   0.000000
  97   0.000000
  98   0.000000
  99   0.000000
 100   0.000000
 101   0.000000
 102   0.000000
 103   0.000000
 104   0.000000
 105   1.822074
 106   0.000000
 107   0.000000
 108   0.000000
 109  -0.062004
 110   0.031002
 111   0.031002
 112   0.000000
 113   0.000000
 114   0.000000
 115   0.000000
 116   0.000000
 117   0.000000
 118   0.000000
 119   0.000000
 120   0.000000
 121   0.000000
 122   0.000000
 123   0.000000
 124   0.000000
 125   0.000304
 126   0.000114
 127   0.000114
 128   0.000000
 129   0.000000
 130   0.000000
 131   0.000000
 132   0.000000
 133   0.000000
 134  -0.000267
 135  -0.000267
 136   0.000067
 137   0.000000
 138   0.000000
 139   0.000000
 Ene=     0.0898
 Spin= Alpha
 Occup=   0.000000
   1   0.000000
   2   0.000000
   3   0.000000
   4   0.000000
   5   0.000000
   6  -0.027232
   7   0.000000
   8   0.000000
   9  -0.110617
  10   0.000000
  11   0.000000
  12   0.025643
  13   0.000000
  14   0.000000
  15  -0.533393
  16   0.000000
  17   0.000000
  18   0.000000
  19   0.000000
  20   0.000000
  21   0.000000
  22   0.000000
  23   0.000000
  24   0.000000
  25   0.000000
  26   0.000000
  27   0.000000
  28   0.000000
  29   0.000000
  30   0.000000
  31   0.000000
  32   0.000000
  33   0.000000
  34   0.000000
  35   0.000000
  36   0.000602
  37   0.000000
  38   0.000000
  39  -0.000404
  40   0.000000
  41   0.000000
  42  -0.000404
  43   0.000000
  44   0.000000
  45   0.000000
  46   0.004241
  47   0.000000
  48   0.000000
  49  -0.002845
  50   0.000000
  51   0.000000
  52  -0.002845
  53   0.000000
  54   0.000000
  55   0.000000
  56   0.000000
  57   0.000000
  58   0.000000
  59   0.000000
  60   0.000000
  61   0.000000
  62   0.000000
  63   0.000000
  64   0.000000
  65   0.000000
  66   0.000000
  67   0.000000
  68   0.000000
  69   0.000000
  70   0.000000
  71   0.000000
  72   0.000000
  73   0.000000
  74  -0.003986
  75   0.000000
  76   0.000000
  77   0.000309
  78   0.000000
  79   0.000000
  80  -0.000233
  81   0.000000
  82   0.000000
  83   0.000000
  84   0.000000
  85   0.000000
  86   0.000000
  87   0.000000
  88   0.000000
  89   0.000000
  90   0.000000
  91   0.000000
  92   0.000000
  93   0.000000
  94   0.000000
  95   0.000006
  96   0.000000
  97   0.000000
  98  -0.000004
  99   0.000000
 100   0.000000
 101  -0.000004
 102   0.000000
 103   0.000000
 104   0.000000
 105   0.000000
 106   1.269422
 107   0.000000
 108   0.000000
 109   0.000000
 110   0.000000
 111   0.000000
 112   0.000000
 113   0.000000
 114   0.000000
 115  -0.006431
 116   0.000000
 117   0.000000
 118   0.004314
 119   0.000000
 120   0.000000
 121   0.004314
 122   0.000000
 123   0.000000
 124   0.000000
 125   0.000000
 126   0.000000
 127   0.000000
 128   0.000000
 129   0.000000
 130   0.000000
 131   0.000000
 132   0.000000
 133   0.000000
 134   0.000000
 135   0.000000
 136   0.000000
 137   0.000000
 138   0.000000
 139   0.000000
 Ene=     0.1082
 Spin= Alpha
 Occup=   0.000000
   1   0.000000
   2   0.000000
   3   0.000000
   4   0.000000
   5   0.000000
   6   0.000000
   7  -0.072513
   8   0.000000
   9   0.000000
  10  -0.210033
  11   0.000000
  12   0.000000
  13  -0.105811
  14   0.000000
  15   0.000000
  16  -0.812035
  17   0.000000
  18   0.000000
  19   0.000000
  20   0.000000
  21   0.000000
  22   0.000000
  23   0.000000
  24   0.000000
  25   0.000000
  26   0.000000
  27   0.000000
  28   0.000000
  29   0.000000
  30   0.000000
  31   0.000000
  32   0.000000
  33   0.000000
  34   0.000000
  35   0.000000
  36   0.000000
  37  -0.000934
  38   0.000000
  39   0.000000
  40   0.001670
  41   0.000000
  42   0.000000
  43  -0.000418
  44   0.000000
  45   0.000000
  46   0.000000
  47  -0.003508
  48   0.000000
  49   0.000000
  50   0.006275
  51   0.000000
  52   0.000000
  53  -0.001569
  54   0.000000
  55   0.000000
  56   0.000000
  57   0.000000
  58   0.000000
  59   0.000000
  60   0.000000
  61   0.000000
  62   0.000000
  63   0.000000
  64   0.000000
  65   0.000000
  66   0.000000
  67   0.000000
  68   0.000000
  69   0.000000
  70   0.000000
  71   0.000000
  72   0.000000
  73   0.000000
  74   0.000000
  75  -0.004975
  76   0.000000
  77   0.000000
  78   0.000344
  79   0.000000
  80   0.000000
  81  -0.000352
  82   0.000000
  83   0.000000
  84   0.000000
  85   0.000000
  86   0.000000
  87   0.000000
  88   0.000000
  89   0.000000
  90   0.000000
  91   0.000000
  92   0.000000
  93   0.000000
  94   0.000000
  95   0.000000
  96  -0.000006
  97   0.000000
  98   0.000000
  99   0.000012
 100   0.000000
 101   0.000000
 102  -0.000003
 103   0.000000
 104   0.000000
 105   0.000000
 106   0.000000
 107   1.189640
 108   0.000000
 109   0.000000
 110   0.000000
 111   0.000000
 112   0.000000
 113   0.000000
 114   0.000000
 115   0.000000
 116  -0.001235
 117   0.000000
 118   0.000000
 119   0.002209
 120   0.000000
 121   0.000000
 122  -0.000552
 123   0.000000
 124   0.000000
 125   0.000000
 126   0.000000
 127   0.000000
 128   0.000000
 129   0.000000
 130   0.000000
 131   0.000000
 132   0.000000
 133   0.000000
 134   0.000000
 135   0.000000
 136   0.000000
 137   0.000000
 138   0.000000
 139   0.000000
 Ene=     0.1082
 Spin= Alpha
 Occup=   0.000000
   1   0.000000
   2   0.000000
   3   0.000000
   4   0.000000
   5   0.000000
   6   0.000000
   7   0.000000
   8  -0.072513
   9   0.000000
  10   0.000000
  11  -0.210033
  12   0.000000
  13   0.000000
  14  -0.105811
  15   0.000000
  16   0.000000
  17  -0.812035
  18   0.000000
  19   0.000000
  20   0.000000
  21   0.000000
  22   0.000000
  23   0.000000
  24   0.000000
  25   0.000000
  26   0.000000
  27   0.000000
  28   0.000000
  29   0.000000
  30   0.000000
  31   0.000000
  32   0.000000
  33   0.000000
  34   0.000000
  35   0.000000
  36   0.000000
  37   0.000000
  38  -0.000934
  39   0.000000
  40   0.000000
  41   0.001670
  42   0.000000
  43   0.000000
  44  -0.000418
  45   0.000000
  46   0.000000
  47   0.000000
  48  -0.003508
  49   0.000000
  50   0.000000
  51   0.006275
  52   0.000000
  53   0.000000
  54  -0.001569
  55   0.000000
  56   0.000000
  57   0.000000
  58   0.000000
  59   0.000000
  60   0.000000
  61   0.000000
  62   0.000000
  63   0.000000
  64   0.000000
  65   0.000000
  66   0.000000
  67   0.000000
  68   0.000000
  69   0.000000
  70   0.000000
  71   0.000000
  72   0.000000
  73   0.000000
  74   0.000000
  75   0.000000
  76  -0.004975
  77   0.000000
  78   0.000000
  79   0.000344
  80   0.000000
  81   0.000000
  82  -0.000352
  83   0.000000
  84   0.000000
  85   0.000000
  86   0.000000
  87   0.000000
  88   0.000000
  89   0.000000
  90   0.000000
  91   0.000000
  92   0.000000
  93   0.000000
  94   0.000000
  95   0.000000
  96   0.000000
  97  -0.000006
  98   0.000000
  99   0.000000
 100   0.000012
 101   0.000000
 102   0.000000
 103  -0.000003
 104   0.000000
 105   0.000000
 106   0.000000
 107   0.000000
 108   1.189640
 109   0.000000
 110   0.000000
 111   0.000000
 112   0.000000
 113   0.000000
 114   0.000000
 115   0.000000
 116   0.000000
 117  -0.001235
 118   0.000000
 119   0.000000
 120   0.002209
 121   0.000000
 122   0.000000
 123  -0.000552
 124   0.000000
 125   0.000000
 126   0.000000
 127   0.000000
 128   0.000000
 129   0.000000
 130   0.000000
 131   0.000000
 132   0.000000
 133   0.000000
 134   0.000000
 135   0.000000
 136   0.000000
 137   0.000000
 138   0.000000
 139   0.000000
 Ene=     0.2323
 Spin= Alpha
 Occup=   0.000000
   1   0.000000
   2   0.000000
   3   0.000000
   4   0.000000
   5   0.000000
   6   0.000000
   7   0.000000
   8   0.000000
   9   0.000000
  10   0.000000
  11   0.000000
  12   0.000000
  13   0.000000
  14   0.000000
  15   0.000000
  16   0.000000
  17   0.000000
  18   0.000000
  19   0.008791
  20  -0.008791
  21   0.000000
  22   0.000000
  23   0.000000
  24   0.000000
  25  -0.059249
  26   0.059249
  27   0.000000
  28   0.000000
  29   0.000000
  30   0.000000
  31   0.168960
  32  -0.168960
  33   0.000000
  34   0.000000
  35   0.000000
  36   0.000000
  37   0.000000
  38   0.000000
  39   0.000000
  40   0.000000
  41   0.000000
  42   0.000000
  43   0.000000
  44   0.000000
  45   0.000000
  46   0.000000
  47   0.000000
  48   0.000000
  49   0.000000
  50   0.000000
  51   0.000000
  52   0.000000
  53   0.000000
  54   0.000000
  55   0.000000
  56   0.000000
  57   0.000385
  58  -0.000385
  59   0.000000
  60   0.000000
  61   0.000000
  62   0.000000
  63   0.000000
  64   0.000000
  65  -0.000677
  66   0.000677
  67   0.000000
  68   0.000000
  69   0.000000
  70   0.000000
  71   0.000000
  72   0.000000
  73   0.000000
  74   0.000000
  75   0.000000
  76   0.000000
  77   0.000000
  78   0.000000
  79   0.000000
  80   0.000000
  81   0.000000
  82   0.000000
  83   0.000000
  84  -0.001140
  85   0.001140
  86   0.000000
  87   0.000000
  88   0.000000
  89   0.000000
  90   0.000142
  91  -0.000142
  92   0.000000
  93   0.000000
  94   0.000000
  95   0.000000
  96   0.000000
  97   0.000000
  98   0.000000
  99   0.000000
 100   0.000000
 101   0.000000
 102   0.000000
 103   0.000000
 104   0.000000
 105   0.000000
 106   0.000000
 107   0.000000
 108   0.000000
 109   0.000000
 110  -0.952102
 111   0.952102
 112   0.000000
 113   0.000000
 114   0.000000
 115   0.000000
 116   0.000000
 117   0.000000
 118   0.000000
 119   0.000000
 120   0.000000
 121   0.000000
 122   0.000000
 123   0.000000
 124   0.000000
 125   0.000000
 126  -0.002274
 127   0.002274
 128   0.000000
 129   0.000000
 130   0.000000
 131   0.000000
 132   0.000000
 133   0.000000
 134   0.003995
 135  -0.003995
 136   0.000000
 137   0.000000
 138   0.000000
 139   0.000000
 Ene=     0.2323
 Spin= Alpha
 Occup=   0.000000
   1   0.000000
   2   0.000000
   3   0.000000
   4   0.000000
   5   0.000000
   6   0.000000
   7   0.000000
   8   0.000000
   9   0.000000
  10   0.000000
  11   0.000000
  12   0.000000
  13   0.000000
  14   0.000000
  15   0.000000
  16   0.000000
  17   0.000000
  18   0.000000
  19   0.000000
  20   0.000000
  21   0.000000
  22   0.000000
  23  -0.010151
  24   0.000000
  25   0.000000
  26   0.000000
  27   0.000000
  28   0.000000
  29   0.068414
  30   0.000000
  31   0.000000
  32   0.000000
  33   0.000000
  34   0.000000
  35  -0.195099
  36   0.000000
  37   0.000000
  38   0.000000
  39   0.000000
  40   0.000000
  41   0.000000
  42   0.000000
  43   0.000000
  44   0.000000
  45   0.000000
  46   0.000000
  47   0.000000
  48   0.000000
  49   0.000000
  50   0.000000
  51   0.000000
  52   0.000000
  53   0.000000
  54   0.000000
  55   0.000000
  56   0.000000
  57   0.000000
  58   0.000000
  59   0.000000
  60   0.000000
  61   0.000000
  62  -0.000291
  63   0.000000
  64  -0.000291
  65   0.000000
  66   0.000000
  67   0.000000
  68   0.000781
  69   0.000000
  70   0.000000
  71   0.000000
  72   0.000000
  73   0.000000
  74   0.000000
  75   0.000000
  76   0.000000
  77   0.000000
  78   0.000000
  79   0.000000
  80   0.000000
  81   0.000000
  82   0.000000
  83   0.000000
  84   0.000000
  85   0.000000
  86   0.000000
  87   0.000000
  88   0.001316
  89   0.000000
  90   0.000000
  91   0.000000
  92   0.000000
  93   0.000000
  94  -0.000164
  95   0.000000
  96   0.000000
  97   0.000000
  98   0.000000
  99   0.000000
 100   0.000000
 101   0.000000
 102   0.000000
 103   0.000000
 104   0.000000
 105   0.000000
 106   0.000000
 107   0.000000
 108   0.000000
 109   0.000000
 110   0.000000
 111   0.000000
 112   0.000000
 113   0.000000
 114   1.099393
 115   0.000000
 116   0.000000
 117   0.000000
 118   0.000000
 119   0.000000
 120   0.000000
 121   0.000000
 122   0.000000
 123   0.000000
 124   0.000000
 125   0.000000
 126   0.000000
 127   0.000000
 128   0.000000
 129   0.000000
 130   0.000000
 131   0.001719
 132   0.000000
 133   0.001719
 134   0.000000
 135   0.000000
 136   0.000000
 137  -0.004613
 138   0.000000
 139   0.000000
 Ene=     0.2416
 Spin= Alpha
 Occup=   0.000000
   1   0.000000
   2   0.000000
   3   0.000000
   4   0.000000
   5   0.000000
   6   0.000000
   7   0.000000
   8   0.000000
   9   0.000000
  10   0.000000
  11   0.000000
  12   0.000000
  13   0.000000
  14   0.000000
  15   0.000000
  16   0.000000
  17   0.000000
  18   0.000000
  19   0.000000
  20   0.000000
  21  -0.010108
  22   0.000000
  23   0.000000
  24   0.000000
  25   0.000000
  26   0.000000
  27   0.072644
  28   0.000000
  29   0.000000
  30   0.000000
  31   0.000000
  32   0.000000
  33  -0.197048
  34   0.000000
  35   0.000000
  36   0.000000
  37   0.000000
  38   0.000000
  39   0.000000
  40   0.000000
  41   0.000000
  42   0.000000
  43   0.000000
  44   0.000000
  45   0.000000
  46   0.000000
  47   0.000000
  48   0.000000
  49   0.000000
  50   0.000000
  51   0.000000
  52   0.000000
  53   0.000000
  54   0.000000
  55   0.000000
  56   0.000000
  57   0.000000
  58   0.000000
  59   0.001106
  60   0.000000
  61  -0.000830
  62   0.000000
  63   0.000000
  64   0.000000
  65   0.000000
  66   0.000000
  67   0.000000
  68   0.000000
  69   0.000000
  70  -0.000371
  71   0.000000
  72   0.000000
  73   0.000000
  74   0.000000
  75   0.000000
  76   0.000000
  77   0.000000
  78   0.000000
  79   0.000000
  80   0.000000
  81   0.000000
  82   0.000000
  83   0.000000
  84   0.000000
  85   0.000000
  86   0.001397
  87   0.000000
  88   0.000000
  89   0.000000
  90   0.000000
  91   0.000000
  92  -0.000171
  93   0.000000
  94   0.000000
  95   0.000000
  96   0.000000
  97   0.000000
  98   0.000000
  99   0.000000
 100   0.000000
 101   0.000000
 102   0.000000
 103   0.000000
 104   0.000000
 105   0.000000
 106   0.000000
 107   0.000000
 108   0.000000
 109   0.000000
 110   0.000000
 111   0.000000
 112   1.099798
 113   0.000000
 114   0.000000
 115   0.000000
 116   0.000000
 117   0.000000
 118   0.000000
 119   0.000000
 120   0.000000
 121   0.000000
 122   0.000000
 123   0.000000
 124   0.000000
 125   0.000000
 126   0.000000
 127   0.000000
 128  -0.006931
 129   0.000000
 130   0.005198
 131   0.000000
 132   0.000000
 133   0.000000
 134   0.000000
 135   0.000000
 136   0.000000
 137   0.000000
 138   0.000000
 139   0.002325
 Ene=     0.2416
 Spin= Alpha
 Occup=   0.000000
   1   0.000000
   2   0.000000
   3   0.000000
   4   0.000000
   5   0.000000
   6   0.000000
   7   0.000000
   8   0.000000
   9   0.000000
  10   0.000000
  11   0.000000
  12   0.000000
  13   0.000000
  14   0.000000
  15   0.000000
  16   0.000000
  17   0.000000
  18   0.000000
  19   0.000000
  20   0.000000
  21   0.000000
  22  -0.010108
  23   0.000000
  24   0.000000
  25   0.000000
  26   0.000000
  27   0.000000
  28   0.072644