[Molden Format]
[Atoms] Angs
 C     1  6    -1.393988     0.221375     0.000000
 C     2  6     1.393988    -0.221375     0.000000
 C     3  6    -0.491970     1.286840     0.000000
 C     4  6     0.491970    -1.286840     0.000000
 C     5  6     0.873345     1.073147     0.000000
 C     6  6    -0.873345    -1.073147     0.000000
 H     7  1    -0.871584     2.300750     0.000000
 H     8  1     0.871584    -2.300750     0.000000
 H     9  1     1.538928     1.925317     0.000000
 H    10  1    -1.538928    -1.925317     0.000000
 C    11  6     2.862107    -0.509780     0.000000
 C    12  6    -2.862107     0.509780     0.000000
 H    13  1     3.107057    -1.566220     0.000000
 H    14  1    -3.107057     1.566220     0.000000
 C    15  6     3.837515     0.370044     0.000000
 C    16  6    -3.837515    -0.370044     0.000000
 H    17  1     3.668890     1.437166     0.000000
 H    18  1    -3.668890    -1.437166     0.000000
 H    19  1     4.873384     0.060475     0.000000
 H    20  1    -4.873384    -0.060475     0.000000
[GTO]
  1 0
 s    3 1.00
  0.7161683730D+02  0.1543289673D+00
  0.1304509630D+02  0.5353281423D+00
  0.3530512200D+01  0.4446345422D+00
 sp   3 1.00
  0.2941249400D+01 -0.9996722919D-01  0.1559162750D+00
  0.6834831000D+00  0.3995128261D+00  0.6076837186D+00
  0.2222899000D+00  0.7001154689D+00  0.3919573931D+00
  
  2 0
 s    3 1.00
  0.7161683730D+02  0.1543289673D+00
  0.1304509630D+02  0.5353281423D+00
  0.3530512200D+01  0.4446345422D+00
 sp   3 1.00
  0.2941249400D+01 -0.9996722919D-01  0.1559162750D+00
  0.6834831000D+00  0.3995128261D+00  0.6076837186D+00
  0.2222899000D+00  0.7001154689D+00  0.3919573931D+00
  
  3 0
 s    3 1.00
  0.7161683730D+02  0.1543289673D+00
  0.1304509630D+02  0.5353281423D+00
  0.3530512200D+01  0.4446345422D+00
 sp   3 1.00
  0.2941249400D+01 -0.9996722919D-01  0.1559162750D+00
  0.6834831000D+00  0.3995128261D+00  0.6076837186D+00
  0.2222899000D+00  0.7001154689D+00  0.3919573931D+00
  
  4 0
 s    3 1.00
  0.7161683730D+02  0.1543289673D+00
  0.1304509630D+02  0.5353281423D+00
  0.3530512200D+01  0.4446345422D+00
 sp   3 1.00
  0.2941249400D+01 -0.9996722919D-01  0.1559162750D+00
  0.6834831000D+00  0.3995128261D+00  0.6076837186D+00
  0.2222899000D+00  0.7001154689D+00  0.3919573931D+00
  
  5 0
 s    3 1.00
  0.7161683730D+02  0.1543289673D+00
  0.1304509630D+02  0.5353281423D+00
  0.3530512200D+01  0.4446345422D+00
 sp   3 1.00
  0.2941249400D+01 -0.9996722919D-01  0.1559162750D+00
  0.6834831000D+00  0.3995128261D+00  0.6076837186D+00
  0.2222899000D+00  0.7001154689D+00  0.3919573931D+00
  
  6 0
 s    3 1.00
  0.7161683730D+02  0.1543289673D+00
  0.1304509630D+02  0.5353281423D+00
  0.3530512200D+01  0.4446345422D+00
 sp   3 1.00
  0.2941249400D+01 -0.9996722919D-01  0.1559162750D+00
  0.6834831000D+00  0.3995128261D+00  0.6076837186D+00
  0.2222899000D+00  0.7001154689D+00  0.3919573931D+00
  
  7 0
 s    3 1.00
  0.3425250900D+01  0.1543289673D+00
  0.6239137000D+00  0.5353281423D+00
  0.1688554000D+00  0.4446345422D+00
  
  8 0
 s    3 1.00
  0.3425250900D+01  0.1543289673D+00
  0.6239137000D+00  0.5353281423D+00
  0.1688554000D+00  0.4446345422D+00
  
  9 0
 s    3 1.00
  0.3425250900D+01  0.1543289673D+00
  0.6239137000D+00  0.5353281423D+00
  0.1688554000D+00  0.4446345422D+00
  
 10 0
 s    3 1.00
  0.3425250900D+01  0.1543289673D+00
  0.6239137000D+00  0.5353281423D+00
  0.1688554000D+00  0.4446345422D+00
  
 11 0
 s    3 1.00
  0.7161683730D+02  0.1543289673D+00
  0.1304509630D+02  0.5353281423D+00
  0.3530512200D+01  0.4446345422D+00
 sp   3 1.00
  0.2941249400D+01 -0.9996722919D-01  0.1559162750D+00
  0.6834831000D+00  0.3995128261D+00  0.6076837186D+00
  0.2222899000D+00  0.7001154689D+00  0.3919573931D+00
  
 12 0
 s    3 1.00
  0.7161683730D+02  0.1543289673D+00
  0.1304509630D+02  0.5353281423D+00
  0.3530512200D+01  0.4446345422D+00
 sp   3 1.00
  0.2941249400D+01 -0.9996722919D-01  0.1559162750D+00
  0.6834831000D+00  0.3995128261D+00  0.6076837186D+00
  0.2222899000D+00  0.7001154689D+00  0.3919573931D+00
  
 13 0
 s    3 1.00
  0.3425250900D+01  0.1543289673D+00
  0.6239137000D+00  0.5353281423D+00
  0.1688554000D+00  0.4446345422D+00
  
 14 0
 s    3 1.00
  0.3425250900D+01  0.1543289673D+00
  0.6239137000D+00  0.5353281423D+00
  0.1688554000D+00  0.4446345422D+00
  
 15 0
 s    3 1.00
  0.7161683730D+02  0.1543289673D+00
  0.1304509630D+02  0.5353281423D+00
  0.3530512200D+01  0.4446345422D+00
 sp   3 1.00
  0.2941249400D+01 -0.9996722919D-01  0.1559162750D+00
  0.6834831000D+00  0.3995128261D+00  0.6076837186D+00
  0.2222899000D+00  0.7001154689D+00  0.3919573931D+00
  
 16 0
 s    3 1.00
  0.7161683730D+02  0.1543289673D+00
  0.1304509630D+02  0.5353281423D+00
  0.3530512200D+01  0.4446345422D+00
 sp   3 1.00
  0.2941249400D+01 -0.9996722919D-01  0.1559162750D+00
  0.6834831000D+00  0.3995128261D+00  0.6076837186D+00
  0.2222899000D+00  0.7001154689D+00  0.3919573931D+00
  
 17 0
 s    3 1.00
  0.3425250900D+01  0.1543289673D+00
  0.6239137000D+00  0.5353281423D+00
  0.1688554000D+00  0.4446345422D+00
  
 18 0
 s    3 1.00
  0.3425250900D+01  0.1543289673D+00
  0.6239137000D+00  0.5353281423D+00
  0.1688554000D+00  0.4446345422D+00
  
 19 0
 s    3 1.00
  0.3425250900D+01  0.1543289673D+00
  0.6239137000D+00  0.5353281423D+00
  0.1688554000D+00  0.4446345422D+00
  
 20 0
 s    3 1.00
  0.3425250900D+01  0.1543289673D+00
  0.6239137000D+00  0.5353281423D+00
  0.1688554000D+00  0.4446345422D+00
 

[MO]
 Ene=   -10.2536
 Spin= Alpha
 Occup=   1.000000
   1   0.712044
   2   0.032467
   3   0.001338
   4  -0.000093
   5   0.000000
   6  -0.688219
   7  -0.031388
   8   0.001303
   9  -0.000092
  10   0.000000
  11  -0.006014
  12  -0.007608
  13   0.002783
  14   0.003681
  15   0.000000
  16   0.005795
  17   0.007375
  18   0.002682
  19   0.003563
  20   0.000000
  21   0.006095
  22   0.007350
  23   0.001426
  24  -0.004205
  25   0.000000
  26  -0.006321
  27  -0.007581
  28   0.001485
  29  -0.004348
  30   0.000000
  31   0.000240
  32  -0.000237
  33  -0.000230
  34   0.000234
  35   0.008324
  36   0.005792
  37  -0.003917
  38   0.000853
  39   0.000000
  40  -0.008616
  41  -0.005995
  42  -0.004054
  43   0.000882
  44   0.000000
  45  -0.000154
  46   0.000160
  47  -0.000022
  48  -0.000285
  49   0.000195
  50  -0.000091
  51   0.000000
  52   0.000024
  53   0.000295
  54   0.000202
  55  -0.000094
  56   0.000000
  57   0.000147
  58  -0.000151
  59   0.000024
  60  -0.000025
 Ene=   -10.2536
 Spin= Alpha
 Occup=   1.000000
   1   0.688245
   2   0.031189
   3   0.001009
   4  -0.000035
   5  -0.000000
   6   0.712070
   7   0.032275
   8  -0.001054
   9   0.000038
  10  -0.000000
  11  -0.006321
  12  -0.006719
  13   0.002927
  14   0.003420
  15  -0.000000
  16  -0.006522
  17  -0.006974
  18  -0.003020
  19  -0.003543
  20  -0.000000
  21  -0.006742
  22  -0.006923
  23  -0.001768
  24   0.004256
  25  -0.000000
  26  -0.006531
  27  -0.006669
  28   0.001719
  29  -0.004111
  30  -0.000000
  31   0.000104
  32   0.000112
  33   0.000110
  34   0.000102
  35  -0.008727
  36  -0.006061
  37   0.004100
  38  -0.000891
  39  -0.000000
  40  -0.008439
  41  -0.005861
  42  -0.003964
  43   0.000861
  44  -0.000000
  45   0.000169
  46   0.000163
  47   0.000030
  48   0.000295
  49  -0.000207
  50   0.000095
  51  -0.000000
  52   0.000029
  53   0.000285
  54   0.000200
  55  -0.000092
  56  -0.000000
  57  -0.000144
  58  -0.000139
  59  -0.000024
  60  -0.000023
 Ene=   -10.2184
 Spin= Alpha
 Occup=   1.000000
   1   0.008358
   2  -0.007940
   3  -0.002375
   4   0.003508
   5   0.000000
   6  -0.008217
   7   0.007826
   8  -0.002350
   9   0.003393
  10   0.000000
  11   0.123159
  12   0.012517
  13   0.004374
  14  -0.001036
  15   0.000000
  16  -0.126593
  17  -0.012830
  18   0.004481
  19  -0.001060
  20   0.000000
  21  -0.680691
  22  -0.032180
  23   0.001658
  24   0.000910
  25   0.000000
  26   0.697128
  27   0.032955
  28   0.001696
  29   0.000924
  30   0.000000
  31  -0.001337
  32   0.001370
  33   0.006275
  34  -0.006428
  35   0.001246
  36  -0.000209
  37   0.000078
  38  -0.000054
  39   0.000000
  40  -0.001340
  41   0.000207
  42   0.000077
  43  -0.000057
  44   0.000000
  45   0.000036
  46  -0.000036
  47   0.002221
  48   0.000171
  49  -0.000074
  50   0.000052
  51   0.000000
  52  -0.002265
  53  -0.000174
  54  -0.000075
  55   0.000053
  56   0.000000
  57  -0.000176
  58   0.000181
  59   0.000004
  60  -0.000004
 Ene=   -10.2184
 Spin= Alpha
 Occup=   1.000000
   1   0.005701
   2  -0.004582
   3  -0.000988
   4   0.004796
   5   0.000000
   6   0.005901
   7  -0.004773
   8   0.001046
   9  -0.004878
  10   0.000000
  11  -0.152746
  12  -0.013559
  13  -0.004506
  14   0.001019
  15   0.000000
  16  -0.149544
  17  -0.013246
  18   0.004400
  19  -0.000993
  20   0.000000
  21   0.691881
  22   0.032694
  23  -0.001662
  24  -0.000580
  25   0.000000
  26   0.675398
  27   0.031913
  28   0.001621
  29   0.000559
  30   0.000000
  31   0.001468
  32   0.001434
  33  -0.006460
  34  -0.006308
  35  -0.003875
  36  -0.000077
  37   0.000034
  38   0.000096
  39   0.000000
  40  -0.003846
  41  -0.000082
  42  -0.000036
  43  -0.000095
  44   0.000000
  45  -0.000024
  46  -0.000024
  47  -0.001828
  48  -0.000121
  49   0.000045
  50  -0.000056
  51   0.000000
  52  -0.001774
  53  -0.000117
  54  -0.000043
  55   0.000054
  56   0.000000
  57   0.000180
  58   0.000176
  59  -0.000004
  60  -0.000004
 Ene=   -10.2169
 Spin= Alpha
 Occup=   1.000000
   1   0.005406
   2  -0.005427
   3  -0.002731
   4  -0.003986
   5   0.000000
   6  -0.005327
   7   0.005360
   8  -0.002699
   9  -0.003966
  10   0.000000
  11   0.692205
  12   0.030135
  13  -0.000290
  14  -0.001097
  15   0.000000
  16  -0.685952
  17  -0.029869
  18  -0.000283
  19  -0.001092
  20   0.000000
  21   0.126651
  22  -0.001279
  23   0.004237
  24  -0.000724
  25   0.000000
  26  -0.125046
  27   0.001292
  28   0.004198
  29  -0.000718
  30   0.000000
  31  -0.006275
  32   0.006217
  33  -0.000951
  34   0.000936
  35   0.008539
  36   0.000195
  37   0.000043
  38  -0.000031
  39   0.000000
  40  -0.008834
  41  -0.000207
  42   0.000043
  43  -0.000030
  44   0.000000
  45  -0.000035
  46   0.000037
  47   0.000263
  48  -0.000025
  49   0.000008
  50   0.000018
  51   0.000000
  52  -0.000281
  53   0.000027
  54   0.000009
  55   0.000020
  56   0.000000
  57   0.000009
  58  -0.000009
  59  -0.000003
  60   0.000003
 Ene=   -10.2168
 Spin= Alpha
 Occup=   1.000000
   1   0.008399
   2  -0.007098
   3  -0.003396
   4  -0.002395
   5   0.000000
   6   0.008452
   7  -0.007151
   8   0.003421
   9   0.002431
  10   0.000000
  11   0.679918
  12   0.029185
  13  -0.000580
  14  -0.000664
  15   0.000000
  16   0.686306
  17   0.029465
  18   0.000582
  19   0.000674
  20   0.000000
  21   0.151218
  22   0.000287
  23   0.004223
  24  -0.000711
  25   0.000000
  26   0.152187
  27   0.000266
  28  -0.004262
  29   0.000717
  30   0.000000
  31  -0.006307
  32  -0.006365
  33  -0.001359
  34  -0.001366
  35  -0.034624
  36  -0.001403
  37  -0.000014
  38  -0.000053
  39   0.000000
  40  -0.034620
  41  -0.001404
  42   0.000013
  43   0.000054
  44   0.000000
  45   0.000241
  46   0.000241
  47  -0.001789
  48   0.000225
  49  -0.000080
  50  -0.000158
  51   0.000000
  52  -0.001784
  53   0.000226
  54   0.000081
  55   0.000158
  56   0.000000
  57   0.000019
  58   0.000019
  59  -0.000011
  60  -0.000011
 Ene=   -10.2161
 Spin= Alpha
 Occup=   1.000000
   1   0.011924
   2  -0.006460
   3   0.004927
   4  -0.000805
   5  -0.000000
   6  -0.006605
   7   0.003574
   8   0.002885
   9  -0.000442
  10  -0.000000
  11   0.017061
  12   0.000855
  13  -0.000058
  14   0.000027
  15  -0.000000
  16   0.000309
  17  -0.000117
  18   0.000012
  19  -0.000018
  20  -0.000000
  21   0.003368
  22  -0.000166
  23   0.000085
  24  -0.000012
  25  -0.000000
  26   0.002516
  27   0.000324
  28  -0.000087
  29  -0.000036
  30  -0.000000
  31  -0.000173
  32  -0.000002
  33   0.000071
  34  -0.000214
  35  -0.491343
  36  -0.022197
  37  -0.000926
  38  -0.000770
  39  -0.000000
  40   0.859319
  41   0.038815
  42  -0.001629
  43  -0.001345
  44  -0.000000
  45   0.004567
  46  -0.007990
  47   0.015273
  48   0.006152
  49  -0.002499
  50  -0.002210
  51  -0.000000
  52  -0.026847
  53  -0.010768
  54  -0.004374
  55  -0.003865
  56  -0.000000
  57  -0.000243
  58   0.000428
  59  -0.000260
  60   0.000455
 Ene=   -10.2161
 Spin= Alpha
 Occup=   1.000000
   1   0.007222
   2  -0.003921
   3   0.002679
   4  -0.000495
   5   0.000000
   6   0.012276
   7  -0.006658
   8  -0.004810
   9   0.000835
  10   0.000000
  11   0.029404
  12   0.001215
  13  -0.000122
  14   0.000081
  15   0.000000
  16   0.034000
  17   0.001481
  18   0.000134
  19  -0.000083
  20   0.000000
  21   0.010634
  22   0.000355
  23   0.000314
  24   0.000049
  25   0.000000
  26   0.010862
  27   0.000221
  28  -0.000313
  29  -0.000036
  30   0.000000
  31  -0.000296
  32  -0.000343
  33  -0.000301
  34  -0.000223
  35   0.858750
  36   0.038783
  37   0.001639
  38   0.001343
  39   0.000000
  40   0.490342
  41   0.022142
  42  -0.000942
  43  -0.000766
  44   0.000000
  45  -0.007987
  46  -0.004562
  47  -0.026964
  48  -0.010770
  49   0.004374
  50   0.003862
  51   0.000000
  52  -0.015474
  53  -0.006154
  54  -0.002499
  55  -0.002205
  56   0.000000
  57   0.000430
  58   0.000247
  59   0.000455
  60   0.000260
 Ene=   -10.2130
 Spin= Alpha
 Occup=   1.000000
   1   0.000439
   2   0.000089
   3   0.000016
   4  -0.000007
   5   0.000000
   6  -0.000003
   7  -0.000012
   8   0.000003
   9   0.000004
  10   0.000000
  11   0.002331
  12   0.000023
  13   0.000081
  14   0.000021
  15   0.000000
  16   0.000939
  17  -0.000035
  18   0.000059
  19  -0.000011
  20   0.000000
  21   0.000122
  22  -0.000026
  23   0.000029
  24  -0.000003
  25   0.000000
  26   0.003303
  27   0.000070
  28   0.000143
  29  -0.000004
  30   0.000000
  31  -0.000035
  32  -0.000009
  33  -0.000006
  34   0.000103
  35  -0.001200
  36   0.000374
  37   0.000189
  38   0.000174
  39   0.000000
  40   0.032023
  41  -0.009675
  42   0.004893
  43   0.004495
  44   0.000000
  45   0.000003
  46  -0.000089
  47  -0.038121
  48  -0.001715
  49   0.000064
  50   0.000059
  51   0.000000
  52   0.989373
  53   0.044481
  54   0.001639
  55   0.001524
  56   0.000000
  57   0.000353
  58  -0.009157
  59   0.000353
  60  -0.009159
 Ene=   -10.2130
 Spin= Alpha
 Occup=   1.000000
   1   0.000030
   2  -0.000005
   3  -0.000002
   4  -0.000004
   5  -0.000000
   6   0.000440
   7   0.000089
   8  -0.000016
   9   0.000008
  10  -0.000000
  11   0.001121
  12  -0.000033
  13  -0.000053
  14   0.000012
  15  -0.000000
  16   0.002410
  17   0.000020
  18  -0.000077
  19  -0.000022
  20  -0.000000
  21   0.003322
  22   0.000068
  23  -0.000141
  24   0.000004
  25  -0.000000
  26   0.000377
  27  -0.000020
  28  -0.000018
  29   0.000003
  30  -0.000000
  31  -0.000012
  32  -0.000036
  33   0.000103
  34   0.000002
  35   0.032028
  36  -0.009675
  37  -0.004893
  38  -0.004495
  39  -0.000000
  40   0.001268
  41  -0.000371
  42   0.000188
  43   0.000173
  44  -0.000000
  45  -0.000089
  46  -0.000004
  47   0.989373
  48   0.044481
  49  -0.001639
  50  -0.001524
  51  -0.000000
  52   0.038113
  53   0.001713
  54   0.000063
  55   0.000059
  56  -0.000000
  57  -0.009157
  58  -0.000353
  59  -0.009159
  60  -0.000353
 Ene=    -1.0340
 Spin= Alpha
 Occup=   1.000000
   1  -0.112611
   2   0.285705
   3   0.054148
   4  -0.008418
   5   0.000000
   6  -0.112610
   7   0.285702
   8  -0.054148
   9   0.008418
  10   0.000000
  11  -0.097160
  12   0.237680
  13   0.013147
  14  -0.063741
  15   0.000000
  16  -0.097160
  17   0.237679
  18  -0.013148
  19   0.063740
  20   0.000000
  21  -0.097552
  22   0.239354
  23  -0.031957
  24  -0.056973
  25   0.000000
  26  -0.097553
  27   0.239357
  28   0.031956
  29   0.056974
  30   0.000000
  31   0.036904
  32   0.036903
  33   0.037875
  34   0.037875
  35  -0.043538
  36   0.108824
  37  -0.027514
  38   0.013951
  39   0.000000
  40  -0.043539
  41   0.108827
  42   0.027515
  43  -0.013951
  44   0.000000
  45   0.018702
  46   0.018703
  47  -0.021252
  48   0.053790
  49  -0.019548
  50  -0.011631
  51   0.000000
  52  -0.021253
  53   0.053792
  54   0.019549
  55   0.011632
  56   0.000000
  57   0.010126
  58   0.010126
  59   0.007240
  60   0.007240
 Ene=    -0.9700
 Spin= Alpha
 Occup=   1.000000
   1   0.112663
   2  -0.298768
   3   0.021091
   4   0.000060
   5  -0.000000
   6  -0.112664
   7   0.298771
   8   0.021088
   9   0.000060
  10  -0.000000
  11   0.041640
  12  -0.105911
  13   0.064229
  14   0.035115
  15  -0.000000
  16  -0.041642
  17   0.105915
  18   0.064228
  19   0.035116
  20  -0.000000
  21  -0.047889
  22   0.122586
  23   0.049437
  24  -0.053627
  25  -0.000000
  26   0.047887
  27  -0.122581
  28   0.049439
  29  -0.053627
  30  -0.000000
  31  -0.023663
  32   0.023664
  33   0.028459
  34  -0.028459
  35  -0.108111
  36   0.274337
  37  -0.009078
  38   0.041184
  39  -0.000000
  40   0.108113
  41  -0.274343
  42  -0.009077
  43   0.041186
  44  -0.000000
  45   0.053712
  46  -0.053713
  47  -0.077504
  48   0.200157
  49  -0.055259
  50  -0.039148
  51  -0.000000
  52   0.077506
  53  -0.200163
  54  -0.055260
  55  -0.039149
  56  -0.000000
  57   0.039831
  58  -0.039832
  59   0.033905
  60  -0.033906
 Ene=    -0.9307
 Spin= Alpha
 Occup=   1.000000
   1  -0.006253
   2   0.020433
   3  -0.098935
   4   0.008717
   5  -0.000000
   6  -0.006257
   7   0.020444
   8   0.098934
   9  -0.008718
  10  -0.000000
  11   0.041201
  12  -0.105225
  13  -0.034009
  14   0.019912
  15  -0.000000
  16   0.041199
  17  -0.105220
  18   0.034012
  19  -0.019910
  20  -0.000000
  21   0.036132
  22  -0.091820
  23   0.046295
  24   0.006344
  25  -0.000000
  26   0.036134
  27  -0.091826
  28  -0.046293
  29  -0.006346
  30  -0.000000
  31  -0.017206
  32  -0.017205
  33  -0.011475
  34  -0.011476
  35  -0.121709
  36   0.312170
  37   0.061883
  38   0.058484
  39  -0.000000
  40  -0.121708
  41   0.312167
  42  -0.061886
  43  -0.058484
  44  -0.000000
  45   0.065826
  46   0.065825
  47  -0.121753
  48   0.319873
  49  -0.067038
  50  -0.056788
  51  -0.000000
  52  -0.121754
  53   0.319874
  54   0.067038
  55   0.056788
  56  -0.000000
  57   0.066258
  58   0.066258
  59   0.063008
  60   0.063008
 Ene=    -0.9070
 Spin= Alpha
 Occup=   1.000000
   1  -0.018329
   2   0.050048
   3   0.028981
   4   0.138903
   5  -0.000000
   6   0.018329
   7  -0.050048
   8   0.028982
   9   0.138902
  10  -0.000000
  11  -0.135801
  12   0.361156
  13   0.051103
  14  -0.012435
  15  -0.000000
  16   0.135800
  17  -0.361155
  18   0.051104
  19  -0.012436
  20  -0.000000
  21  -0.118299
  22   0.315324
  23  -0.071407
  24   0.025788
  25  -0.000000
  26   0.118299
  27  -0.315325
  28  -0.071407
  29   0.025788
  30  -0.000000
  31   0.086880
  32  -0.086879
  33   0.077973
  34  -0.077973
  35  -0.002974
  36   0.006634
  37   0.024222
  38   0.025060
  39  -0.000000
  40   0.002973
  41  -0.006632
  42   0.024222
  43   0.025060
  44  -0.000000
  45  -0.006701
  46   0.006702
  47  -0.019031
  48   0.049874
  49  -0.009554
  50  -0.001557
  51  -0.000000
  52   0.019031
  53  -0.049873
  54  -0.009554
  55  -0.001557
  56  -0.000000
  57   0.014772
  58  -0.014772
  59   0.010120
  60  -0.010119
 Ene=    -0.8861
 Spin= Alpha
 Occup=   1.000000
   1  -0.096409
   2   0.264823
   3   0.070956
   4  -0.029023
   5  -0.000000
   6   0.096409
   7  -0.264823
   8   0.070959
   9  -0.029023
  10  -0.000000
  11  -0.032100
  12   0.085770
  13  -0.089772
  14  -0.042734
  15  -0.000000
  16   0.032101
  17  -0.085772
  18  -0.089771
  19  -0.042734
  20  -0.000000
  21   0.076498
  22  -0.205525
  23  -0.039412
  24   0.059815
  25  -0.000000
  26  -0.076497
  27   0.205522
  28  -0.039414
  29   0.059815
  30  -0.000000
  31   0.020089
  32  -0.020089
  33  -0.047017
  34   0.047017
  35  -0.064217
  36   0.165522
  37   0.125120
  38   0.047772
  39  -0.000000
  40   0.064214
  41  -0.165516
  42   0.125120
  43   0.047772
  44  -0.000000
  45   0.038704
  46  -0.038702
  47  -0.113026
  48   0.304327
  49  -0.036030
  50  -0.045665
  51  -0.000000
  52   0.113024
  53  -0.304322
  54  -0.036029
  55  -0.045665
  56  -0.000000
  57   0.066617
  58  -0.066616
  59   0.071985
  60  -0.071984
 Ene=    -0.7912
 Spin= Alpha
 Occup=   1.000000
   1   0.073133
   2  -0.215733
   3   0.073833
   4  -0.147227
   5   0.000000
   6   0.073134
   7  -0.215734
   8  -0.073831
   9   0.147226
  10   0.000000
  11   0.007514
  12  -0.022597
  13   0.180184
  14   0.030749
  15   0.000000
  16   0.007515
  17  -0.022601
  18  -0.180184
  19  -0.030749
  20   0.000000
  21  -0.090151
  22   0.254846
  23  -0.026038
  24   0.055015
  25   0.000000
  26  -0.090151
  27   0.254848
  28   0.026036
  29  -0.055014
  30   0.000000
  31  -0.023538
  32  -0.023539
  33   0.100372
  34   0.100372
  35   0.047412
  36  -0.142160
  37   0.133046
  38   0.078887
  39   0.000000
  40   0.047413
  41  -0.142164
  42  -0.133047
  43  -0.078888
  44   0.000000
  45  -0.066643
  46  -0.066644
  47  -0.076761
  48   0.221265
  49   0.023892
  50   0.024236
  51   0.000000
  52  -0.076761
  53   0.221267
  54  -0.023892
  55  -0.024237
  56   0.000000
  57   0.081509
  58   0.081510
  59   0.074138
  60   0.074138
 Ene=    -0.7656
 Spin= Alpha
 Occup=   1.000000
   1   0.058238
   2  -0.174086
   3   0.075869
   4   0.200963
   5  -0.000000
   6   0.058238
   7  -0.174087
   8  -0.075868
   9  -0.200962
  10  -0.000000
  11  -0.112790
  12   0.327823
  13  -0.024100
  14   0.060911
  15  -0.000000
  16  -0.112790
  17   0.327824
  18   0.024098
  19  -0.060912
  20  -0.000000
  21   0.050856
  22  -0.148826
  23  -0.184160
  24   0.097908
  25  -0.000000
  26   0.050855
  27  -0.148824
  28   0.184161
  29  -0.097909
  30  -0.000000
  31   0.142076
  32   0.142076
  33  -0.066861
  34  -0.066860
  35   0.007136
  36  -0.023524
  37   0.089429
  38  -0.038387
  39  -0.000000
  40   0.007136
  41  -0.023525
  42  -0.089430
  43   0.038388
  44  -0.000000
  45   0.024521
  46   0.024521
  47  -0.043289
  48   0.129435
  49   0.043011
  50  -0.017500
  51  -0.000000
  52  -0.043289
  53   0.129436
  54  -0.043011
  55   0.017499
  56  -0.000000
  57   0.025533
  58   0.025534
  59   0.060227
  60   0.060228
 Ene=    -0.7246
 Spin= Alpha
 Occup=   1.000000
   1   0.008523
   2  -0.022810
   3  -0.160276
   4   0.065532
   5   0.000000
   6  -0.008520
   7   0.022802
   8  -0.160273
   9   0.065534
  10   0.000000
  11   0.048149
  12  -0.145914
  13  -0.006878
  14   0.014445
  15   0.000000
  16  -0.048150
  17   0.145916
  18  -0.006883
  19   0.014440
  20   0.000000
  21  -0.027335
  22   0.082250
  23   0.079175
  24  -0.046561
  25   0.000000
  26   0.027332
  27  -0.082243
  28   0.079176
  29  -0.046568
  30   0.000000
  31  -0.038017
  32   0.038020
  33   0.042646
  34  -0.042641
  35   0.099314
  36  -0.303943
  37   0.062693
  38   0.115528
  39   0.000000
  40  -0.099316
  41   0.303948
  42   0.062692
  43   0.115530
  44   0.000000
  45  -0.155336
  46   0.155340
  47  -0.085501
  48   0.266857
  49   0.089194
  50   0.120818
  51   0.000000
  52   0.085502
  53  -0.266861
  54   0.089196
  55   0.120821
  56   0.000000
  57   0.149313
  58  -0.149316
  59   0.114836
  60  -0.114838
 Ene=    -0.7107
 Spin= Alpha
 Occup=   1.000000
   1  -0.044406
   2   0.130738
   3   0.169020
   4   0.010947
   5   0.000000
   6  -0.044406
   7   0.130738
   8  -0.169024
   9  -0.010944
  10   0.000000
  11   0.015638
  12  -0.054776
  13  -0.077697
  14  -0.195294
  15   0.000000
  16   0.015636
  17  -0.054771
  18   0.077696
  19   0.195294
  20   0.000000
  21   0.053065
  22  -0.170374
  23  -0.036036
  24  -0.205433
  25   0.000000
  26   0.053066
  27  -0.170377
  28   0.036040
  29   0.205433
  30   0.000000
  31  -0.104029
  32  -0.104028
  33  -0.156834
  34  -0.156837
  35   0.057463
  36  -0.174884
  37   0.029862
  38   0.058651
  39   0.000000
  40   0.057460
  41  -0.174875
  42  -0.029860
  43  -0.058647
  44   0.000000
  45  -0.093286
  46  -0.093281
  47  -0.055892
  48   0.177223
  49   0.076814
  50   0.066685
  51   0.000000
  52  -0.055889
  53   0.177215
  54  -0.076811
  55  -0.066682
  56   0.000000
  57   0.084255
  58   0.084251
  59   0.088000
  60   0.087996
 Ene=    -0.6572
 Spin= Alpha
 Occup=   1.000000
   1   0.032277
   2  -0.108003
   3   0.117775
   4  -0.053640
   5  -0.000000
   6   0.032277
   7  -0.108003
   8  -0.117768
   9   0.053641
  10  -0.000000
  11   0.016709
  12  -0.062910
  13   0.138665
  14  -0.122900
  15  -0.000000
  16   0.016710
  17  -0.062913
  18  -0.138667
  19   0.122898
  20  -0.000000
  21  -0.016076
  22   0.042832
  23  -0.128459
  24  -0.084318
  25  -0.000000
  26  -0.016077
  27   0.042836
  28   0.128460
  29   0.084319
  30  -0.000000
  31  -0.115645
  32  -0.115646
  33  -0.080102
  34  -0.080102
  35  -0.052090
  36   0.164043
  37   0.178739
  38  -0.111412
  39  -0.000000
  40  -0.052089
  41   0.164040
  42  -0.178744
  43   0.111416
  44  -0.000000
  45   0.147617
  46   0.147619
  47   0.027993
  48  -0.102735
  49  -0.020306
  50  -0.233905
  51  -0.000000
  52   0.027992
  53  -0.102733
  54   0.020301
  55   0.233909
  56  -0.000000
  57  -0.181463
  58  -0.181465
  59  -0.011055
  60  -0.011052
 Ene=    -0.6416
 Spin= Alpha
 Occup=   1.000000
   1  -0.012988
   2   0.046251
   3  -0.147610
   4  -0.183733
   5  -0.000000
   6   0.012989
   7  -0.046254
   8  -0.147613
   9  -0.183732
  10  -0.000000
  11   0.013598
  12  -0.045584
  13   0.219806
  14   0.037397
  15  -0.000000
  16  -0.013598
  17   0.045586
  18   0.219803
  19   0.037399
  20  -0.000000
  21  -0.034069
  22   0.109508
  23  -0.151393
  24   0.105621
  25  -0.000000
  26   0.034069
  27  -0.109509
  28  -0.151388
  29   0.105623
  30  -0.000000
  31  -0.049808
  32   0.049807
  33   0.032972
  34  -0.032976
  35   0.014915
  36  -0.043343
  37   0.088762
  38  -0.206601
  39  -0.000000
  40  -0.014916
  41   0.043346
  42   0.088758
  43  -0.206602
  44  -0.000000
  45   0.125890
  46  -0.125889
  47  -0.016807
  48   0.062050
  49   0.203633
  50  -0.070972
  51  -0.000000
  52   0.016807
  53  -0.062052
  54   0.203636
  55  -0.070968
  56  -0.000000
  57  -0.039706
  58   0.039703
  59   0.152448
  60  -0.152450
 Ene=    -0.6079
 Spin= Alpha
 Occup=   1.000000
   1   0.029808
   2  -0.104335
   3   0.128017
   4  -0.214647
   5   0.000000
   6  -0.029809
   7   0.104337
   8   0.128017
   9  -0.214646
  10   0.000000
  11  -0.036474
  12   0.123011
  13   0.104034
  14   0.134709
  15   0.000000
  16   0.036474
  17  -0.123011
  18   0.104038
  19   0.134705
  20   0.000000
  21   0.040915
  22  -0.137801
  23  -0.145403
  24   0.107141
  25   0.000000
  26  -0.040914
  27   0.137799
  28  -0.145406
  29   0.107141
  30   0.000000
  31   0.118887
  32  -0.118884
  33  -0.050611
  34   0.050612
  35   0.007854
  36  -0.016351
  37  -0.234609
  38   0.011910
  39   0.000000
  40  -0.007853
  41   0.016348
  42  -0.234609
  43   0.011909
  44   0.000000
  45  -0.055959
  46   0.055957
  47  -0.011493
  48   0.054313
  49   0.014813
  50   0.253512
  51   0.000000
  52   0.011493
  53  -0.054312
  54   0.014812
  55   0.253512
  56   0.000000
  57   0.184081
  58  -0.184081
  59  -0.018163
  60   0.018164
 Ene=    -0.6003
 Spin= Alpha
 Occup=   1.000000
   1  -0.063106
   2   0.218673
   3   0.120722
   4  -0.074249
   5  -0.000000
   6   0.063106
   7  -0.218673
   8   0.120725
   9  -0.074249
  10  -0.000000
  11   0.042445
  12  -0.149416
  13   0.048811
  14  -0.175479
  15  -0.000000
  16  -0.042445
  17   0.149418
  18   0.048810
  19  -0.175480
  20  -0.000000
  21  -0.034794
  22   0.125725
  23   0.116972
  24   0.268420
  25  -0.000000
  26   0.034794
  27  -0.125725
  28   0.116971
  29   0.268419
  30  -0.000000
  31  -0.195488
  32   0.195489
  33   0.269071
  34  -0.269070
  35  -0.006877
  36   0.020685
  37  -0.029012
  38  -0.000114
  39  -0.000000
  40   0.006877
  41  -0.020685
  42  -0.029010
  43  -0.000116
  44  -0.000000
  45   0.018696
  46  -0.018697
  47   0.008429
  48  -0.027621
  49  -0.090828
  50   0.089905
  51  -0.000000
  52  -0.008429
  53   0.027621
  54  -0.090828
  55   0.089905
  56  -0.000000
  57   0.079053
  58  -0.079053
  59  -0.087205
  60   0.087204
 Ene=    -0.5934
 Spin= Alpha
 Occup=   1.000000
   1   0.017634
   2  -0.059346
   3   0.001759
   4  -0.004739
   5  -0.000000
   6   0.017633
   7  -0.059344
   8  -0.001753
   9   0.004744
  10  -0.000000
  11  -0.024902
  12   0.083081
  13   0.068009
  14  -0.006800
  15  -0.000000
  16  -0.024901
  17   0.083078
  18  -0.068016
  19   0.006798
  20  -0.000000
  21   0.020994
  22  -0.077370
  23  -0.127685
  24  -0.031759
  25  -0.000000
  26   0.020993
  27  -0.077366
  28   0.127690
  29   0.031756
  30  -0.000000
  31   0.009100
  32   0.009098
  33  -0.099321
  34  -0.099320
  35  -0.022553
  36   0.060232
  37   0.056844
  38   0.269570
  39  -0.000000
  40  -0.022552
  41   0.060232
  42  -0.056850
  43  -0.269573
  44  -0.000000
  45  -0.150862
  46  -0.150864
  47   0.003012
  48  -0.028060
  49  -0.352013
  50  -0.001258
  51  -0.000000
  52   0.003012
  53  -0.028059
  54   0.352018
  55   0.001262
  56  -0.000000
  57   0.016418
  58   0.016416
  59  -0.242887
  60  -0.242890
 Ene=    -0.5736
 Spin= Alpha
 Occup=   1.000000
   1   0.003413
   2  -0.011894
   3  -0.111966
   4  -0.109556
   5   0.000000
   6  -0.003413
   7   0.011894
   8  -0.111966
   9  -0.109553
  10   0.000000
  11   0.023200
  12  -0.070779
  13  -0.108142
  14   0.336493