[Molden Format]
[Title]
dvb_un_sp
[Atoms] Angs
C      1  6    -1.415253     0.230221     0.000000
C      2  6     1.415253    -0.230221     0.000000
C      3  6    -0.495133     1.314460     0.000000
C      4  6     0.495133    -1.314460     0.000000
C      5  6     0.889409     1.090949     0.000000
C      6  6    -0.889409    -1.090949     0.000000
H      7  1    -0.879551     2.343734     0.000000
H      8  1     0.879551    -2.343734     0.000000
H      9  1     1.577904     1.945005     0.000000
H     10  1    -1.577904    -1.945005     0.000000
C     11  6     2.884584    -0.521089     0.000000
C     12  6    -2.884584     0.521089     0.000000
H     13  1     3.140335    -1.591960     0.000000
H     14  1    -3.140335     1.591960     0.000000
C     15  6     3.880042     0.382253     0.000000
C     16  6    -3.880042    -0.382253     0.000000
H     17  1     3.694676     1.462439     0.000000
H     18  1    -3.694676    -1.462439     0.000000
H     19  1     4.931644     0.071104     0.000000
H     20  1    -4.931644    -0.071104     0.000000
[GTO]
  1 0
s     3 1.00
7.161683730e+01 1.543289673e-01
1.304509630e+01 5.353281423e-01
3.530512200e+00 4.446345422e-01
s     3 1.00
2.941249400e+00 -9.996722919e-02
6.834831000e-01 3.995128261e-01
2.222899000e-01 7.001154689e-01
p     3 1.00
2.941249400e+00 1.559162750e-01
6.834831000e-01 6.076837186e-01
2.222899000e-01 3.919573931e-01

  2 0
s     3 1.00
7.161683730e+01 1.543289673e-01
1.304509630e+01 5.353281423e-01
3.530512200e+00 4.446345422e-01
s     3 1.00
2.941249400e+00 -9.996722919e-02
6.834831000e-01 3.995128261e-01
2.222899000e-01 7.001154689e-01
p     3 1.00
2.941249400e+00 1.559162750e-01
6.834831000e-01 6.076837186e-01
2.222899000e-01 3.919573931e-01

  3 0
s     3 1.00
7.161683730e+01 1.543289673e-01
1.304509630e+01 5.353281423e-01
3.530512200e+00 4.446345422e-01
s     3 1.00
2.941249400e+00 -9.996722919e-02
6.834831000e-01 3.995128261e-01
2.222899000e-01 7.001154689e-01
p     3 1.00
2.941249400e+00 1.559162750e-01
6.834831000e-01 6.076837186e-01
2.222899000e-01 3.919573931e-01

  4 0
s     3 1.00
7.161683730e+01 1.543289673e-01
1.304509630e+01 5.353281423e-01
3.530512200e+00 4.446345422e-01
s     3 1.00
2.941249400e+00 -9.996722919e-02
6.834831000e-01 3.995128261e-01
2.222899000e-01 7.001154689e-01
p     3 1.00
2.941249400e+00 1.559162750e-01
6.834831000e-01 6.076837186e-01
2.222899000e-01 3.919573931e-01

  5 0
s     3 1.00
7.161683730e+01 1.543289673e-01
1.304509630e+01 5.353281423e-01
3.530512200e+00 4.446345422e-01
s     3 1.00
2.941249400e+00 -9.996722919e-02
6.834831000e-01 3.995128261e-01
2.222899000e-01 7.001154689e-01
p     3 1.00
2.941249400e+00 1.559162750e-01
6.834831000e-01 6.076837186e-01
2.222899000e-01 3.919573931e-01

  6 0
s     3 1.00
7.161683730e+01 1.543289673e-01
1.304509630e+01 5.353281423e-01
3.530512200e+00 4.446345422e-01
s     3 1.00
2.941249400e+00 -9.996722919e-02
6.834831000e-01 3.995128261e-01
2.222899000e-01 7.001154689e-01
p     3 1.00
2.941249400e+00 1.559162750e-01
6.834831000e-01 6.076837186e-01
2.222899000e-01 3.919573931e-01

  7 0
s     3 1.00
3.425250900e+00 1.543289673e-01
6.239137000e-01 5.353281423e-01
1.688554000e-01 4.446345422e-01

  8 0
s     3 1.00
3.425250900e+00 1.543289673e-01
6.239137000e-01 5.353281423e-01
1.688554000e-01 4.446345422e-01

  9 0
s     3 1.00
3.425250900e+00 1.543289673e-01
6.239137000e-01 5.353281423e-01
1.688554000e-01 4.446345422e-01

 10 0
s     3 1.00
3.425250900e+00 1.543289673e-01
6.239137000e-01 5.353281423e-01
1.688554000e-01 4.446345422e-01

 11 0
s     3 1.00
7.161683730e+01 1.543289673e-01
1.304509630e+01 5.353281423e-01
3.530512200e+00 4.446345422e-01
s     3 1.00
2.941249400e+00 -9.996722919e-02
6.834831000e-01 3.995128261e-01
2.222899000e-01 7.001154689e-01
p     3 1.00
2.941249400e+00 1.559162750e-01
6.834831000e-01 6.076837186e-01
2.222899000e-01 3.919573931e-01

 12 0
s     3 1.00
7.161683730e+01 1.543289673e-01
1.304509630e+01 5.353281423e-01
3.530512200e+00 4.446345422e-01
s     3 1.00
2.941249400e+00 -9.996722919e-02
6.834831000e-01 3.995128261e-01
2.222899000e-01 7.001154689e-01
p     3 1.00
2.941249400e+00 1.559162750e-01
6.834831000e-01 6.076837186e-01
2.222899000e-01 3.919573931e-01

 13 0
s     3 1.00
3.425250900e+00 1.543289673e-01
6.239137000e-01 5.353281423e-01
1.688554000e-01 4.446345422e-01

 14 0
s     3 1.00
3.425250900e+00 1.543289673e-01
6.239137000e-01 5.353281423e-01
1.688554000e-01 4.446345422e-01

 15 0
s     3 1.00
7.161683730e+01 1.543289673e-01
1.304509630e+01 5.353281423e-01
3.530512200e+00 4.446345422e-01
s     3 1.00
2.941249400e+00 -9.996722919e-02
6.834831000e-01 3.995128261e-01
2.222899000e-01 7.001154689e-01
p     3 1.00
2.941249400e+00 1.559162750e-01
6.834831000e-01 6.076837186e-01
2.222899000e-01 3.919573931e-01

 16 0
s     3 1.00
7.161683730e+01 1.543289673e-01
1.304509630e+01 5.353281423e-01
3.530512200e+00 4.446345422e-01
s     3 1.00
2.941249400e+00 -9.996722919e-02
6.834831000e-01 3.995128261e-01
2.222899000e-01 7.001154689e-01
p     3 1.00
2.941249400e+00 1.559162750e-01
6.834831000e-01 6.076837186e-01
2.222899000e-01 3.919573931e-01

 17 0
s     3 1.00
3.425250900e+00 1.543289673e-01
6.239137000e-01 5.353281423e-01
1.688554000e-01 4.446345422e-01

 18 0
s     3 1.00
3.425250900e+00 1.543289673e-01
6.239137000e-01 5.353281423e-01
1.688554000e-01 4.446345422e-01

 19 0
s     3 1.00
3.425250900e+00 1.543289673e-01
6.239137000e-01 5.353281423e-01
1.688554000e-01 4.446345422e-01

 20 0
s     3 1.00
3.425250900e+00 1.543289673e-01
6.239137000e-01 5.353281423e-01
1.688554000e-01 4.446345422e-01


[MO]
 Sym= A
 Ene=   -10.2496
 Spin= Alpha
 Occup=   1.000000
   1    0.723252
   2    0.032299
   3    0.001049
   4   -0.000044
   5    0.000000
   6   -0.676496
   7   -0.030224
   8    0.000999
   9   -0.000044
  10    0.000000
  11   -0.007279
  12   -0.007344
  13    0.002794
  14    0.003653
  15    0.000000
  16    0.006781
  17    0.006908
  18    0.002599
  19    0.003429
  20    0.000000
  21    0.007097
  22    0.006878
  23    0.001370
  24   -0.004052
  25    0.000000
  26   -0.007613
  27   -0.007312
  28    0.001484
  29   -0.004324
  30    0.000000
  31    0.000227
  32   -0.000219
  33   -0.000215
  34    0.000222
  35    0.008541
  36    0.005679
  37   -0.003851
  38    0.000836
  39    0.000000
  40   -0.009139
  41   -0.006076
  42   -0.004120
  43    0.000895
  44    0.000000
  45   -0.000148
  46    0.000159
  47   -0.000035
  48   -0.000264
  49    0.000183
  50   -0.000080
  51    0.000000
  52    0.000038
  53    0.000282
  54    0.000196
  55   -0.000086
  56    0.000000
  57    0.000136
  58   -0.000145
  59    0.000023
  60   -0.000025
 Sym= A
 Ene=   -10.2496
 Spin= Alpha
 Occup=   1.000000
   1    0.676521
   2    0.030023
   3    0.000716
   4    0.000007
   5    0.000000
   6    0.723275
   7    0.032111
   8   -0.000785
   9   -0.000004
  10    0.000000
  11   -0.007218
  12   -0.006295
  13    0.002827
  14    0.003246
  15    0.000000
  16   -0.007688
  17   -0.006771
  18   -0.003007
  19   -0.003482
  20    0.000000
  21   -0.007982
  22   -0.006722
  23   -0.001752
  24    0.004212
  25    0.000000
  26   -0.007490
  27   -0.006248
  28    0.001657
  29   -0.003932
  30    0.000000
  31    0.000103
  32    0.000118
  33    0.000116
  34    0.000102
  35   -0.009244
  36   -0.006136
  37    0.004162
  38   -0.000903
  39    0.000000
  40   -0.008654
  41   -0.005743
  42   -0.003896
  43    0.000845
  44    0.000000
  45    0.000167
  46    0.000156
  47    0.000045
  48    0.000282
  49   -0.000201
  50    0.000087
  51    0.000000
  52    0.000043
  53    0.000264
  54    0.000188
  55   -0.000081
  56    0.000000
  57   -0.000138
  58   -0.000128
  59   -0.000024
  60   -0.000022
 Sym= A
 Ene=   -10.2156
 Spin= Alpha
 Occup=   1.000000
   1    0.010065
   2   -0.007673
   3   -0.002428
   4    0.003332
   5   -0.000000
   6   -0.009770
   7    0.007478
   8   -0.002386
   9    0.003110
  10   -0.000000
  11    0.150930
  12    0.013145
  13    0.004256
  14   -0.001036
  15   -0.000000
  16   -0.158877
  17   -0.013786
  18    0.004456
  19   -0.001082
  20   -0.000000
  21   -0.666903
  22   -0.031054
  23    0.001730
  24    0.000732
  25   -0.000000
  26    0.698393
  27    0.032515
  28    0.001808
  29    0.000752
  30   -0.000000
  31   -0.001526
  32    0.001599
  33    0.006019
  34   -0.006306
  35    0.001604
  36   -0.000164
  37    0.000054
  38   -0.000064
  39   -0.000000
  40   -0.001793
  41    0.000159
  42    0.000052
  43   -0.000070
  44   -0.000000
  45    0.000027
  46   -0.000027
  47    0.002675
  48    0.000189
  49   -0.000068
  50    0.000050
  51   -0.000000
  52   -0.002771
  53   -0.000195
  54   -0.000070
  55    0.000053
  56   -0.000000
  57   -0.000188
  58    0.000197
  59   -0.000003
  60    0.000003
 Sym= A
 Ene=   -10.2155
 Spin= Alpha
 Occup=   1.000000
   1    0.006009
   2   -0.003925
   3   -0.000799
   4    0.004752
   5    0.000000
   6    0.006473
   7   -0.004279
   8    0.000912
   9   -0.004900
  10    0.000000
  11   -0.183052
  12   -0.014465
  13   -0.004421
  14    0.001015
  15    0.000000
  16   -0.175467
  17   -0.013824
  18    0.004219
  19   -0.000965
  20    0.000000
  21    0.692476
  22    0.032216
  23   -0.001763
  24   -0.000446
  25    0.000000
  26    0.660898
  27    0.030742
  28    0.001679
  29    0.000412
  30    0.000000
  31    0.001701
  32    0.001625
  33   -0.006316
  34   -0.006031
  35   -0.004034
  36   -0.000101
  37    0.000050
  38    0.000118
  39    0.000000
  40   -0.003957
  41   -0.000108
  42   -0.000052
  43   -0.000115
  44    0.000000
  45   -0.000013
  46   -0.000012
  47   -0.002106
  48   -0.000137
  49    0.000039
  50   -0.000054
  51    0.000000
  52   -0.001979
  53   -0.000128
  54   -0.000036
  55    0.000052
  56    0.000000
  57    0.000195
  58    0.000186
  59    0.000002
  60    0.000002
 Sym= A
 Ene=   -10.2141
 Spin= Alpha
 Occup=   1.000000
   1    0.005863
   2   -0.004726
   3   -0.002611
   4   -0.004062
   5    0.000000
   6   -0.005729
   7    0.004633
   8   -0.002565
   9   -0.004036
  10    0.000000
  11    0.687393
  12    0.028949
  13   -0.000479
  14   -0.000911
  15    0.000000
  16   -0.678466
  17   -0.028582
  18   -0.000467
  19   -0.000904
  20    0.000000
  21    0.157343
  22    0.000331
  23    0.004133
  24   -0.000763
  25    0.000000
  26   -0.154549
  27   -0.000290
  28    0.004079
  29   -0.000753
  30    0.000000
  31   -0.006084
  32    0.006003
  33   -0.001230
  34    0.001205
  35    0.012813
  36    0.000422
  37    0.000041
  38    0.000004
  39    0.000000
  40   -0.013463
  41   -0.000449
  42    0.000041
  43    0.000005
  44    0.000000
  45   -0.000071
  46    0.000075
  47   -0.000417
  48   -0.000109
  49    0.000037
  50    0.000038
  51    0.000000
  52    0.000413
  53    0.000115
  54    0.000039
  55    0.000041
  56    0.000000
  57    0.000026
  58   -0.000025
  59    0.000003
  60   -0.000004
 Sym= A
 Ene=   -10.2140
 Spin= Alpha
 Occup=   1.000000
   1    0.009614
   2   -0.006682
   3   -0.003452
   4   -0.002108
   5    0.000000
   6    0.009701
   7   -0.006751
   8    0.003487
   9    0.002161
  10    0.000000
  11    0.670591
  12    0.027874
  13   -0.000724
  14   -0.000532
  15    0.000000
  16    0.679810
  17    0.028266
  18    0.000728
  19    0.000545
  20    0.000000
  21    0.178531
  22    0.001673
  23    0.004052
  24   -0.000729
  25    0.000000
  26    0.180245
  27    0.001660
  28   -0.004107
  29    0.000739
  30    0.000000
  31   -0.006063
  32   -0.006144
  33   -0.001577
  34   -0.001590
  35   -0.053743
  36   -0.002260
  37   -0.000029
  38   -0.000095
  39    0.000000
  40   -0.053849
  41   -0.002267
  42    0.000029
  43    0.000096
  44    0.000000
  45    0.000403
  46    0.000405
  47    0.000192
  48    0.000496
  49   -0.000178
  50   -0.000245
  51    0.000000
  52    0.000210
  53    0.000499
  54    0.000179
  55    0.000245
  56    0.000000
  57    0.000006
  58    0.000006
  59   -0.000032
  60   -0.000032
 Sym= A
 Ene=   -10.2136
 Spin= Alpha
 Occup=   1.000000
   1    0.012768
   2   -0.006624
   3    0.004956
   4   -0.000889
   5   -0.000000
   6   -0.006305
   7    0.003261
   8    0.002699
   9   -0.000435
  10   -0.000000
  11    0.027763
  12    0.001270
  13   -0.000072
  14    0.000020
  15   -0.000000
  16    0.002910
  17   -0.000001
  18    0.000021
  19   -0.000021
  20   -0.000000
  21    0.006775
  22   -0.000095
  23    0.000152
  24   -0.000024
  25   -0.000000
  26    0.003706
  27    0.000332
  28   -0.000106
  29   -0.000039
  30   -0.000000
  31   -0.000266
  32   -0.000027
  33    0.000033
  34   -0.000226
  35   -0.457365
  36   -0.020512
  37   -0.000807
  38   -0.000767
  39   -0.000000
  40    0.873910
  41    0.039190
  42   -0.001556
  43   -0.001464
  44   -0.000000
  45    0.004145
  46   -0.007926
  47    0.039615
  48    0.006518
  49   -0.002314
  50   -0.002048
  51   -0.000000
  52   -0.076070
  53   -0.012476
  54   -0.004427
  55   -0.003913
  56   -0.000000
  57   -0.000439
  58    0.000844
  59   -0.000451
  60    0.000863
 Sym= A
 Ene=   -10.2136
 Spin= Alpha
 Occup=   1.000000
   1    0.007300
   2   -0.003802
   3    0.002397
   4   -0.000514
   5    0.000000
   6    0.013286
   7   -0.006905
   8   -0.004798
   9    0.000930
  10    0.000000
  11    0.044483
  12    0.001801
  13   -0.000139
  14    0.000067
  15    0.000000
  16    0.052361
  17    0.002204
  18    0.000155
  19   -0.000067
  20    0.000000
  21    0.016087
  22    0.000444
  23    0.000401
  24    0.000034
  25    0.000000
  26    0.017041
  27    0.000309
  28   -0.000416
  29   -0.000014
  30    0.000000
  31   -0.000424
  32   -0.000500
  33   -0.000348
  34   -0.000267
  35    0.872630
  36    0.039130
  37    0.001565
  38    0.001461
  39    0.000000
  40    0.454887
  41    0.020396
  42   -0.000824
  43   -0.000761
  44    0.000000
  45   -0.007918
  46   -0.004130
  47   -0.076258
  48   -0.012474
  49    0.004425
  50    0.003907
  51    0.000000
  52   -0.039948
  53   -0.006514
  54   -0.002310
  55   -0.002036
  56    0.000000
  57    0.000848
  58    0.000445
  59    0.000864
  60    0.000451
 Sym= A
 Ene=   -10.2113
 Spin= Alpha
 Occup=   1.000000
   1    0.001254
   2   -0.000370
   3    0.000341
   4   -0.000099
   5    0.000000
   6   -0.000017
   7   -0.000001
   8    0.000021
   9    0.000001
  10    0.000000
  11    0.003517
  12    0.000091
  13    0.000072
  14    0.000019
  15    0.000000
  16    0.001547
  17   -0.000015
  18    0.000063
  19   -0.000014
  20    0.000000
  21    0.000414
  22   -0.000027
  23    0.000039
  24   -0.000002
  25    0.000000
  26    0.004295
  27    0.000105
  28    0.000125
  29   -0.000008
  30    0.000000
  31   -0.000049
  32   -0.000015
  33   -0.000010
  34    0.000099
  35   -0.003391
  36    0.000265
  37    0.000189
  38    0.000173
  39    0.000000
  40    0.086962
  41   -0.006581
  42    0.004708
  43    0.004341
  44    0.000000
  45    0.000023
  46   -0.000610
  47   -0.039286
  48   -0.001706
  49    0.000048
  50    0.000043
  51    0.000000
  52    0.986153
  53    0.042788
  54    0.001176
  55    0.001075
  56    0.000000
  57    0.000356
  58   -0.008927
  59    0.000355
  60   -0.008905
 Sym= A
 Ene=   -10.2113
 Spin= Alpha
 Occup=   1.000000
   1    0.000083
   2   -0.000031
   3    0.000006
   4   -0.000009
   5   -0.000000
   6    0.001257
   7   -0.000371
   8   -0.000341
   9    0.000099
  10   -0.000000
  11    0.001830
  12   -0.000008
  13   -0.000057
  14    0.000015
  15   -0.000000
  16    0.003650
  17    0.000090
  18   -0.000067
  19   -0.000020
  20   -0.000000
  21    0.004341
  22    0.000103
  23   -0.000123
  24    0.000008
  25   -0.000000
  26    0.000758
  27   -0.000019
  28   -0.000029
  29    0.000001
  30   -0.000000
  31   -0.000019
  32   -0.000050
  33    0.000098
  34   -0.000002
  35    0.086981
  36   -0.006580
  37   -0.004708
  38   -0.004341
  39   -0.000000
  40    0.003535
  41   -0.000259
  42    0.000186
  43    0.000173
  44   -0.000000
  45   -0.000610
  46   -0.000025
  47    0.986151
  48    0.042787
  49   -0.001175
  50   -0.001075
  51   -0.000000
  52    0.039256
  53    0.001702
  54    0.000046
  55    0.000042
  56   -0.000000
  57   -0.008927
  58   -0.000355
  59   -0.008905
  60   -0.000355
 Sym= A
 Ene=    -1.0171
 Spin= Alpha
 Occup=   1.000000
   1   -0.112377
   2    0.290669
   3    0.047843
   4   -0.007588
   5    0.000000
   6   -0.112374
   7    0.290661
   8   -0.047843
   9    0.007588
  10    0.000000
  11   -0.095629
  12    0.239189
  13    0.012208
  14   -0.061130
  15    0.000000
  16   -0.095628
  17    0.239186
  18   -0.012210
  19    0.061129
  20    0.000000
  21   -0.096155
  22    0.241148
  23   -0.030207
  24   -0.054355
  25    0.000000
  26   -0.096157
  27    0.241153
  28    0.030205
  29    0.054357
  30    0.000000
  31    0.037393
  32    0.037393
  33    0.038601
  34    0.038602
  35   -0.046552
  36    0.118052
  37   -0.028999
  38    0.014718
  39    0.000000
  40   -0.046554
  41    0.118057
  42    0.028999
  43   -0.014719
  44    0.000000
  45    0.020367
  46    0.020368
  47   -0.022797
  48    0.058832
  49   -0.020419
  50   -0.012125
  51    0.000000
  52   -0.022798
  53    0.058835
  54    0.020420
  55    0.012125
  56    0.000000
  57    0.011192
  58    0.011193
  59    0.008012
  60    0.008012
 Sym= A
 Ene=    -0.9583
 Spin= Alpha
 Occup=   1.000000
   1    0.112308
   2   -0.302181
   3    0.025474
   4   -0.000821
   5    0.000000
   6   -0.112310
   7    0.302187
   8    0.025469
   9   -0.000820
  10    0.000000
  11    0.040819
  12   -0.105781
  13    0.062111
  14    0.033482
  15    0.000000
  16   -0.040823
  17    0.105790
  18    0.062109
  19    0.033484
  20    0.000000
  21   -0.046699
  22    0.121812
  23    0.048309
  24   -0.051523
  25    0.000000
  26    0.046696
  27   -0.121803
  28    0.048311
  29   -0.051522
  30    0.000000
  31   -0.023530
  32    0.023531
  33    0.028555
  34   -0.028553
  35   -0.108104
  36    0.278828
  37   -0.013193
  38    0.039992
  39    0.000000
  40    0.108107
  41   -0.278835
  42   -0.013191
  43    0.039993
  44    0.000000
  45    0.054238
  46   -0.054239
  47   -0.076262
  48    0.200944
  49   -0.053371
  50   -0.037396
  51    0.000000
  52    0.076264
  53   -0.200952
  54   -0.053372
  55   -0.037397
  56    0.000000
  57    0.040043
  58   -0.040044
  59    0.033861
  60   -0.033863
 Sym= A
 Ene=    -0.9180
 Spin= Alpha
 Occup=   1.000000
   1   -0.005250
   2    0.017276
   3   -0.100492
   4    0.009002
   5    0.000000
   6   -0.005256
   7    0.017292
   8    0.100490
   9   -0.009002
  10    0.000000
  11    0.043922
  12   -0.114767
  13   -0.034523
  14    0.020026
  15    0.000000
  16    0.043919
  17   -0.114759
  18    0.034527
  19   -0.020024
  20    0.000000
  21    0.038847
  22   -0.101168
  23    0.046864
  24    0.006081
  25    0.000000
  26    0.038850
  27   -0.101176
  28   -0.046861
  29   -0.006084
  30    0.000000
  31   -0.019116
  32   -0.019114
  33   -0.012986
  34   -0.012988
  35   -0.119461
  36    0.312239
  37    0.057919
  38    0.056243
  39    0.000000
  40   -0.119460
  41    0.312236
  42   -0.057923
  43   -0.056243
  44    0.000000
  45    0.065683
  46    0.065682
  47   -0.120175
  48    0.322626
  49   -0.063608
  50   -0.053627
  51    0.000000
  52   -0.120176
  53    0.322629
  54    0.063608
  55    0.053627
  56    0.000000
  57    0.066947
  58    0.066948
  59    0.063561
  60    0.063561
 Sym= A
 Ene=    -0.8956
 Spin= Alpha
 Occup=   1.000000
   1   -0.017454
   2    0.048401
   3    0.027783
   4    0.135282
   5    0.000000
   6    0.017454
   7   -0.048401
   8    0.027784
   9    0.135279
  10    0.000000
  11   -0.134571
  12    0.363942
  13    0.051179
  14   -0.011418
  15    0.000000
  16    0.134571
  17   -0.363940
  18    0.051181
  19   -0.011419
  20    0.000000
  21   -0.118247
  22    0.320338
  23   -0.069245
  24    0.025704
  25    0.000000
  26    0.118248
  27   -0.320340
  28   -0.069245
  29    0.025703
  30    0.000000
  31    0.087019
  32   -0.087019
  33    0.078810
  34   -0.078811
  35   -0.002328
  36    0.005235
  37    0.023319
  38    0.024713
  39    0.000000
  40    0.002327
  41   -0.005232
  42    0.023319
  43    0.024713
  44    0.000000
  45   -0.007031
  46    0.007032
  47   -0.018567
  48    0.049789
  49   -0.009026
  50   -0.000953
  51    0.000000
  52    0.018566
  53   -0.049787
  54   -0.009026
  55   -0.000953
  56    0.000000
  57    0.014993
  58   -0.014993
  59    0.010030
  60   -0.010030
 Sym= A
 Ene=    -0.8731
 Spin= Alpha
 Occup=   1.000000
   1   -0.095400
   2    0.266865
   3    0.067034
   4   -0.026770
   5    0.000000
   6    0.095400
   7   -0.266864
   8    0.067038
   9   -0.026770
  10    0.000000
  11   -0.032256
  12    0.088044
  13   -0.087493
  14   -0.040677
  15    0.000000
  16    0.032258
  17   -0.088049
  18   -0.087491
  19   -0.040677
  20    0.000000
  21    0.074945
  22   -0.205386
  23   -0.039139
  24    0.057334
  25    0.000000
  26   -0.074943
  27    0.205382
  28   -0.039142
  29    0.057334
  30    0.000000
  31    0.020844
  32   -0.020846
  33   -0.046989
  34    0.046989
  35   -0.061546
  36    0.162161
  37    0.124024
  38    0.046575
  39    0.000000
  40    0.061543
  41   -0.162152
  42    0.124024
  43    0.046574
  44    0.000000
  45    0.038014
  46   -0.038012
  47   -0.113878
  48    0.313630
  49   -0.033063
  50   -0.042536
  51    0.000000
  52    0.113875
  53   -0.313624
  54   -0.033062
  55   -0.042535
  56    0.000000
  57    0.069065
  58   -0.069063
  59    0.074394
  60   -0.074393
 Sym= A
 Ene=    -0.7835
 Spin= Alpha
 Occup=   1.000000
   1    0.075029
   2   -0.224048
   3    0.079981
   4   -0.132463
   5   -0.000000
   6    0.075030
   7   -0.224050
   8   -0.079978
   9    0.132462
  10   -0.000000
  11    0.000580
  12   -0.002863
  13    0.170814
  14    0.030684
  15   -0.000000
  16    0.000582
  17   -0.002869
  18   -0.170813
  19   -0.030685
  20   -0.000000
  21   -0.086657
  22    0.249095
  23   -0.032162
  24    0.057444
  25   -0.000000
  26   -0.086657
  27    0.249097
  28    0.032160
  29   -0.057443
  30   -0.000000
  31   -0.015805
  32   -0.015806
  33    0.096685
  34    0.096686
  35    0.049147
  36   -0.148241
  37    0.136838
  38    0.075867
  39   -0.000000
  40    0.049149
  41   -0.148247
  42   -0.136839
  43   -0.075868
  44   -0.000000
  45   -0.065720
  46   -0.065722
  47   -0.081304
  48    0.238904
  49    0.026460
  50    0.025097
  51   -0.000000
  52   -0.081304
  53    0.238907
  54   -0.026461
  55   -0.025098
  56   -0.000000
  57    0.086122
  58    0.086123
  59    0.079565
  60    0.079566
 Sym= A
 Ene=    -0.7562
 Spin= Alpha
 Occup=   1.000000
   1    0.052804
   2   -0.160197
   3    0.073208
   4    0.204328
   5   -0.000000
   6    0.052805
   7   -0.160198
   8   -0.073206
   9   -0.204326
  10   -0.000000
  11   -0.113076
  12    0.334337
  13   -0.036981
  14    0.057541
  15   -0.000000
  16   -0.113076
  17    0.334338
  18    0.036978
  19   -0.057542
  20   -0.000000
  21    0.056997
  22   -0.169813
  23   -0.178837
  24    0.088672
  25   -0.000000
  26    0.056996
  27   -0.169809
  28    0.178839
  29   -0.088673
  30   -0.000000
  31    0.144279
  32    0.144279
  33   -0.077133
  34   -0.077132
  35    0.005269
  36   -0.017505
  37    0.081141
  38   -0.042458
  39   -0.000000
  40    0.005269
  41   -0.017507
  42   -0.081141
  43    0.042459
  44   -0.000000
  45    0.028072
  46    0.028072
  47   -0.040239
  48    0.122536
  49    0.041646
  50   -0.016929
  51   -0.000000
  52   -0.040239
  53    0.122536
  54   -0.041647
  55    0.016929
  56   -0.000000
  57    0.022219
  58    0.022219
  59    0.057394
  60    0.057395
 Sym= A
 Ene=    -0.7189
 Spin= Alpha
 Occup=   1.000000
   1    0.008788
   2   -0.024853
   3   -0.161326
   4    0.062444
   5    0.000000
   6   -0.008785
   7    0.024843
   8   -0.161322
   9    0.062446
  10    0.000000
  11    0.050046
  12   -0.153601
  13   -0.000591
  14    0.012966
  15    0.000000
  16   -0.050047
  17    0.153604
  18   -0.000598
  19    0.012959
  20    0.000000
  21   -0.029880
  22    0.091474
  23    0.078699
  24   -0.043231
  25    0.000000
  26    0.029877
  27   -0.091463
  28    0.078700
  29   -0.043239
  30    0.000000
  31   -0.042064
  32    0.042067
  33    0.047568
  34   -0.047561
  35    0.100062
  36   -0.309271
  37    0.061721
  38    0.109752
  39    0.000000
  40   -0.100064
  41    0.309278
  42    0.061718
  43    0.109754
  44    0.000000
  45   -0.152881
  46    0.152885
  47   -0.084948
  48    0.268293
  49    0.087868
  50    0.117465
  51    0.000000
  52    0.084949
  53   -0.268297
  54    0.087871
  55    0.117469
  56    0.000000
  57    0.147244
  58   -0.147247
  59    0.114466
  60   -0.114468
 Sym= A
 Ene=    -0.7000
 Spin= Alpha
 Occup=   1.000000
   1   -0.049405
   2    0.150790
   3    0.162298
   4    0.009930
   5   -0.000000
   6   -0.049405
   7    0.150790
   8   -0.162304
   9   -0.009927
  10   -0.000000
  11    0.015847
  12   -0.054553
  13   -0.084529
  14   -0.190475
  15   -0.000000
  16    0.015844
  17   -0.054545
  18    0.084528
  19    0.190474
  20   -0.000000
  21    0.052887
  22   -0.170734
  23   -0.028806
  24   -0.203509
  25   -0.000000
  26    0.052888
  27   -0.170739
  28    0.028811
  29    0.203510
  30   -0.000000
  31   -0.102416
  32   -0.102413
  33   -0.154842
  34   -0.154847
  35    0.060066
  36   -0.185537
  37    0.017028
  38    0.060981
  39   -0.000000
  40    0.060062
  41   -0.185525
  42   -0.017026
  43   -0.060977
  44   -0.000000
  45   -0.099927
  46   -0.099921
  47   -0.054973
  48    0.177434
  49    0.077693
  50    0.074181
  51   -0.000000
  52   -0.054970
  53    0.177424
  54   -0.077690
  55   -0.074176
  56   -0.000000
  57    0.087765
  58    0.087759
  59    0.087951
  60    0.087947
 Sym= A
 Ene=    -0.6468
 Spin= Alpha
 Occup=   1.000000
   1    0.030741
   2   -0.103725
   3    0.126563
   4   -0.053130
   5    0.000000
   6    0.030741
   7   -0.103724
   8   -0.126553
   9    0.053131
  10    0.000000
  11    0.016501
  12   -0.062208
  13    0.135761
  14   -0.132107
  15    0.000000
  16    0.016502
  17   -0.062213
  18   -0.135765
  19    0.132105
  20    0.000000
  21   -0.015347
  22    0.042180
  23   -0.131487
  24   -0.091639
  25    0.000000
  26   -0.015349
  27    0.042186
  28    0.131489
  29    0.091640
  30    0.000000
  31   -0.122354
  32   -0.122356
  33   -0.088360
  34   -0.088359
  35   -0.049114
  36    0.158045
  37    0.182207
  38   -0.108140
  39    0.000000
  40   -0.049113
  41    0.158042
  42   -0.182215
  43    0.108146
  44    0.000000
  45    0.145910
  46    0.145914
  47    0.024575
  48   -0.091196
  49   -0.013287
  50   -0.228320
  51    0.000000
  52    0.024574
  53   -0.091193
  54    0.013281
  55    0.228327
  56    0.000000
  57   -0.177962
  58   -0.177966
  59   -0.003704
  60   -0.003698
 Sym= A
 Ene=    -0.6314
 Spin= Alpha
 Occup=   1.000000
   1   -0.016059
   2    0.056550
   3   -0.147565
   4   -0.173866
   5   -0.000000
   6    0.016061
   7   -0.056555
   8   -0.147570
   9   -0.173865
  10   -0.000000
  11    0.015919
  12   -0.054389
  13    0.214978
  14    0.023877
  15   -0.000000
  16   -0.015920
  17    0.054392
  18    0.214973
  19    0.023880
  20   -0.000000
  21   -0.036884
  22    0.120395
  23   -0.141506
  24    0.104459
  25   -0.000000
  26    0.036884
  27   -0.120396
  28   -0.141498
  29    0.104463
  30   -0.000000
  31   -0.061450
  32    0.061448
  33    0.037874
  34   -0.037881
  35    0.012210
  36   -0.035768
  37    0.096555
  38   -0.211425
  39   -0.000000
  40   -0.012212
  41    0.035774
  42    0.096548
  43   -0.211427
  44   -0.000000
  45    0.136550
  46   -0.136548
  47   -0.014414
  48    0.053339
  49    0.199595
  50   -0.081070
  51   -0.000000
  52    0.014415
  53   -0.053342
  54    0.199601
  55   -0.081063
  56   -0.000000
  57   -0.051344
  58    0.051338
  59    0.151363
  60   -0.151366
 Sym= A
 Ene=    -0.6004
 Spin= Alpha
 Occup=   1.000000
   1   -0.050170
   2    0.175208
   3   -0.072175
   4    0.181509
   5    0.000000
   6    0.050171
   7   -0.175212
   8   -0.072173
   9    0.181508
  10    0.000000
  11    0.048513
  12   -0.166561
  13   -0.089420
  14   -0.183573
  15    0.000000
  16   -0.048512
  17    0.166559
  18   -0.089426
  19   -0.183569
  20    0.000000
  21   -0.048637
  22    0.168232
  23    0.180033
  24   -0.013967
  25    0.000000
  26    0.048636
  27   -0.168229
  28    0.180037
  29   -0.013969
  30    0.000000
  31   -0.174412
  32    0.174407
  33    0.137380
  34   -0.137380
  35   -0.012474
  36    0.033588
  37    0.208570
  38    0.004480
  39    0.000000
  40    0.012472
  41   -0.033584
  42    0.208571
  43    0.004483
  44    0.000000
  45    0.053907
  46   -0.053904
  47    0.014899
  48   -0.063936
  49   -0.065174
  50   -0.203159
  51    0.000000
  52   -0.014898
  53    0.063934
  54   -0.065173
  55   -0.203159
  56    0.000000
  57   -0.143940
  58    0.143939
  59   -0.027784
  60    0.027783
 Sym= A
 Ene=    -0.5925
 Spin= Alpha
 Occup=   1.000000
   1   -0.049418
   2    0.173202
   3    0.154911
   4   -0.144486
   5    0.000000
   6    0.049418
   7   -0.173201
   8    0.154915
   9   -0.144484
  10    0.000000
  11    0.026730
  12   -0.095995
  13    0.079970
  14   -0.114908
  15    0.000000
  16   -0.026730
  17    0.095997
  18    0.079972
  19   -0.114913
  20    0.000000
  21   -0.018267
  22    0.068553
  23    0.057615
  24    0.284146
  25    0.000000
  26    0.018267
  27   -0.068554
  28    0.057612
  29    0.284145
  30    0.000000
  31   -0.140238
  32    0.140243
  33    0.234021
  34   -0.234020
  35   -0.005341
  36    0.018809
  37   -0.107229
  38   -0.001522