[Molden Format]
[Atoms] Angs
 O     1  8     0.000000    -0.066679     0.000000
 H     2  1     0.790649     0.529118     0.000000
 H     3  1    -0.790649     0.529118     0.000000
[GTO]
  1 0
 s    3 1.00
  0.1307093214D+03  0.1543289673D+00
  0.2380886610D+02  0.5353281423D+00
  0.6443608300D+01  0.4446345422D+00
 sp   3 1.00
  0.5033151300D+01 -0.9996722919D-01  0.1559162750D+00
  0.1169596100D+01  0.3995128261D+00  0.6076837186D+00
  0.3803890000D+00  0.7001154689D+00  0.3919573931D+00
  
  2 0
 s    3 1.00
  0.3425250900D+01  0.1543289673D+00
  0.6239137000D+00  0.5353281423D+00
  0.1688554000D+00  0.4446345422D+00
  
  3 0
 s    3 1.00
  0.3425250900D+01  0.1543289673D+00
  0.6239137000D+00  0.5353281423D+00
  0.1688554000D+00  0.4446345422D+00
 

[MO]
 Ene=   -20.2438
 Spin= Alpha
 Occup=   2.000000
   1   0.994203
   2   0.025916
   3  -0.000000
   4   0.003993
   5  -0.000000
   6  -0.005627
   7  -0.005627
 Ene=    -1.2506
 Spin= Alpha
 Occup=   2.000000
   1  -0.234218
   2   0.845882
   3  -0.000000
   4   0.117048
   5  -0.000000
   6   0.156449
   7   0.156449
 Ene=    -0.6032
 Spin= Alpha
 Occup=   2.000000
   1   0.000000
   2   0.000000
   3   0.603305
   4   0.000000
   5   0.000000
   6   0.446377
   7  -0.446377
 Ene=    -0.4455
 Spin= Alpha
 Occup=   2.000000
   1   0.100458
   2  -0.521395
   3  -0.000000
   4   0.774267
   5  -0.000000
   6   0.289064
   7   0.289064
 Ene=    -0.3882
 Spin= Alpha
 Occup=   2.000000
   1  -0.000000
   2  -0.000000
   3  -0.000000
   4  -0.000000
   5   1.000000
   6  -0.000000
   7  -0.000000
 Ene=     0.5707
 Spin= Alpha
 Occup=   0.000000
   1  -0.128351
   2   0.832526
   3   0.000000
   4   0.732626
   5   0.000000
   6  -0.775801
   7  -0.775801
 Ene=     0.7086
 Spin= Alpha
 Occup=   0.000000
   1   0.000000
   2   0.000000
   3   0.976485
   4   0.000000
   5   0.000000
   6  -0.808916
   7   0.808916
[SCFCONV]
scf-first    1 THROUGH   13
    -74.798154
    -74.949988
    -74.962691
    -74.964083
    -74.964285
    -74.964321
    -74.964329
    -74.964329
    -74.964329
    -74.964329
    -74.964329
    -74.964329
    -74.964329
