[Molden Format]
[Title]
dvb_ir
[Atoms] Angs
C      1  6     1.414166    -0.236805     0.000000
C      2  6    -1.414166     0.236805     0.000000
C      3  6     0.489010    -1.316750     0.000000
C      4  6    -0.489010     1.316750     0.000000
C      5  6    -0.894476    -1.086798     0.000000
C      6  6     0.894476     1.086798     0.000000
H      7  1     0.868634    -2.347802     0.000000
H      8  1    -0.868634     2.347802     0.000000
H      9  1    -1.586939    -1.937641     0.000000
H     10  1     1.586939     1.937641     0.000000
C     11  6    -2.882128     0.534507     0.000000
C     12  6     2.882128    -0.534507     0.000000
H     13  1    -3.132892     1.606557     0.000000
H     14  1     3.132892    -1.606557     0.000000
C     15  6    -3.881779    -0.364192     0.000000
C     16  6     3.881779     0.364192     0.000000
H     17  1    -3.701442    -1.445229     0.000000
H     18  1     3.701442     1.445229     0.000000
H     19  1    -4.931922    -0.048153     0.000000
H     20  1     4.931922     0.048153     0.000000
[GTO]
  1 0
s     3 1.00
7.161683730e+01 1.543289673e-01
1.304509630e+01 5.353281423e-01
3.530512200e+00 4.446345422e-01
s     3 1.00
2.941249400e+00 -9.996722919e-02
6.834831000e-01 3.995128261e-01
2.222899000e-01 7.001154689e-01
p     3 1.00
2.941249400e+00 1.559162750e-01
6.834831000e-01 6.076837186e-01
2.222899000e-01 3.919573931e-01

  2 0
s     3 1.00
7.161683730e+01 1.543289673e-01
1.304509630e+01 5.353281423e-01
3.530512200e+00 4.446345422e-01
s     3 1.00
2.941249400e+00 -9.996722919e-02
6.834831000e-01 3.995128261e-01
2.222899000e-01 7.001154689e-01
p     3 1.00
2.941249400e+00 1.559162750e-01
6.834831000e-01 6.076837186e-01
2.222899000e-01 3.919573931e-01

  3 0
s     3 1.00
7.161683730e+01 1.543289673e-01
1.304509630e+01 5.353281423e-01
3.530512200e+00 4.446345422e-01
s     3 1.00
2.941249400e+00 -9.996722919e-02
6.834831000e-01 3.995128261e-01
2.222899000e-01 7.001154689e-01
p     3 1.00
2.941249400e+00 1.559162750e-01
6.834831000e-01 6.076837186e-01
2.222899000e-01 3.919573931e-01

  4 0
s     3 1.00
7.161683730e+01 1.543289673e-01
1.304509630e+01 5.353281423e-01
3.530512200e+00 4.446345422e-01
s     3 1.00
2.941249400e+00 -9.996722919e-02
6.834831000e-01 3.995128261e-01
2.222899000e-01 7.001154689e-01
p     3 1.00
2.941249400e+00 1.559162750e-01
6.834831000e-01 6.076837186e-01
2.222899000e-01 3.919573931e-01

  5 0
s     3 1.00
7.161683730e+01 1.543289673e-01
1.304509630e+01 5.353281423e-01
3.530512200e+00 4.446345422e-01
s     3 1.00
2.941249400e+00 -9.996722919e-02
6.834831000e-01 3.995128261e-01
2.222899000e-01 7.001154689e-01
p     3 1.00
2.941249400e+00 1.559162750e-01
6.834831000e-01 6.076837186e-01
2.222899000e-01 3.919573931e-01

  6 0
s     3 1.00
7.161683730e+01 1.543289673e-01
1.304509630e+01 5.353281423e-01
3.530512200e+00 4.446345422e-01
s     3 1.00
2.941249400e+00 -9.996722919e-02
6.834831000e-01 3.995128261e-01
2.222899000e-01 7.001154689e-01
p     3 1.00
2.941249400e+00 1.559162750e-01
6.834831000e-01 6.076837186e-01
2.222899000e-01 3.919573931e-01

  7 0
s     3 1.00
3.425250900e+00 1.543289673e-01
6.239137000e-01 5.353281423e-01
1.688554000e-01 4.446345422e-01

  8 0
s     3 1.00
3.425250900e+00 1.543289673e-01
6.239137000e-01 5.353281423e-01
1.688554000e-01 4.446345422e-01

  9 0
s     3 1.00
3.425250900e+00 1.543289673e-01
6.239137000e-01 5.353281423e-01
1.688554000e-01 4.446345422e-01

 10 0
s     3 1.00
3.425250900e+00 1.543289673e-01
6.239137000e-01 5.353281423e-01
1.688554000e-01 4.446345422e-01

 11 0
s     3 1.00
7.161683730e+01 1.543289673e-01
1.304509630e+01 5.353281423e-01
3.530512200e+00 4.446345422e-01
s     3 1.00
2.941249400e+00 -9.996722919e-02
6.834831000e-01 3.995128261e-01
2.222899000e-01 7.001154689e-01
p     3 1.00
2.941249400e+00 1.559162750e-01
6.834831000e-01 6.076837186e-01
2.222899000e-01 3.919573931e-01

 12 0
s     3 1.00
7.161683730e+01 1.543289673e-01
1.304509630e+01 5.353281423e-01
3.530512200e+00 4.446345422e-01
s     3 1.00
2.941249400e+00 -9.996722919e-02
6.834831000e-01 3.995128261e-01
2.222899000e-01 7.001154689e-01
p     3 1.00
2.941249400e+00 1.559162750e-01
6.834831000e-01 6.076837186e-01
2.222899000e-01 3.919573931e-01

 13 0
s     3 1.00
3.425250900e+00 1.543289673e-01
6.239137000e-01 5.353281423e-01
1.688554000e-01 4.446345422e-01

 14 0
s     3 1.00
3.425250900e+00 1.543289673e-01
6.239137000e-01 5.353281423e-01
1.688554000e-01 4.446345422e-01

 15 0
s     3 1.00
7.161683730e+01 1.543289673e-01
1.304509630e+01 5.353281423e-01
3.530512200e+00 4.446345422e-01
s     3 1.00
2.941249400e+00 -9.996722919e-02
6.834831000e-01 3.995128261e-01
2.222899000e-01 7.001154689e-01
p     3 1.00
2.941249400e+00 1.559162750e-01
6.834831000e-01 6.076837186e-01
2.222899000e-01 3.919573931e-01

 16 0
s     3 1.00
7.161683730e+01 1.543289673e-01
1.304509630e+01 5.353281423e-01
3.530512200e+00 4.446345422e-01
s     3 1.00
2.941249400e+00 -9.996722919e-02
6.834831000e-01 3.995128261e-01
2.222899000e-01 7.001154689e-01
p     3 1.00
2.941249400e+00 1.559162750e-01
6.834831000e-01 6.076837186e-01
2.222899000e-01 3.919573931e-01

 17 0
s     3 1.00
3.425250900e+00 1.543289673e-01
6.239137000e-01 5.353281423e-01
1.688554000e-01 4.446345422e-01

 18 0
s     3 1.00
3.425250900e+00 1.543289673e-01
6.239137000e-01 5.353281423e-01
1.688554000e-01 4.446345422e-01

 19 0
s     3 1.00
3.425250900e+00 1.543289673e-01
6.239137000e-01 5.353281423e-01
1.688554000e-01 4.446345422e-01

 20 0
s     3 1.00
3.425250900e+00 1.543289673e-01
6.239137000e-01 5.353281423e-01
1.688554000e-01 4.446345422e-01


[MO]
 Sym= A
 Ene=   -10.0162
 Spin= Alpha
 Occup=   2.000000
   1    0.705598
   2    0.031850
   3   -0.000914
   4    0.000019
   5    0.000000
   6   -0.692938
   7   -0.031283
   8   -0.000902
   9    0.000020
  10    0.000000
  11   -0.019091
  12   -0.007808
  13   -0.002655
  14   -0.003564
  15    0.000000
  16    0.018741
  17    0.007683
  18   -0.002600
  19   -0.003503
  20    0.000000
  21    0.019051
  22    0.007647
  23   -0.001308
  24    0.004132
  25    0.000000
  26   -0.019404
  27   -0.007772
  28   -0.001339
  29    0.004205
  30    0.000000
  31    0.000338
  32   -0.000334
  33   -0.000332
  34    0.000336
  35    0.026804
  36    0.006648
  37    0.003937
  38   -0.000897
  39    0.000000
  40   -0.027298
  41   -0.006771
  42    0.004010
  43   -0.000914
  44    0.000000
  45   -0.000320
  46    0.000326
  47   -0.000177
  48   -0.000467
  49   -0.000279
  50    0.000007
  51    0.000000
  52    0.000181
  53    0.000475
  54   -0.000284
  55    0.000007
  56    0.000000
  57    0.000148
  58   -0.000150
  59    0.000028
  60   -0.000029
 Sym= A
 Ene=   -10.0162
 Spin= Alpha
 Occup=   2.000000
   1    0.692935
   2    0.031073
   3   -0.000624
   4   -0.000033
   5   -0.000000
   6    0.705594
   7    0.031644
   8    0.000640
   9    0.000032
  10   -0.000000
  11   -0.019216
  12   -0.006860
  13   -0.002973
  14   -0.003290
  15   -0.000000
  16   -0.019560
  17   -0.007000
  18    0.003020
  19    0.003354
  20   -0.000000
  21   -0.019732
  22   -0.006942
  23    0.001765
  24   -0.004107
  25   -0.000000
  26   -0.019382
  27   -0.006802
  28   -0.001741
  29    0.004031
  30   -0.000000
  31    0.000220
  32    0.000226
  33    0.000226
  34    0.000220
  35   -0.027662
  36   -0.006839
  37   -0.004048
  38    0.000922
  39   -0.000000
  40   -0.027170
  41   -0.006718
  42    0.003976
  43   -0.000905
  44   -0.000000
  45    0.000337
  46    0.000331
  47    0.000194
  48    0.000478
  49    0.000291
  50   -0.000006
  51   -0.000000
  52    0.000191
  53    0.000470
  54   -0.000286
  55    0.000006
  56   -0.000000
  57   -0.000142
  58   -0.000140
  59   -0.000028
  60   -0.000027
 Sym= A
 Ene=   -10.0039
 Spin= Alpha
 Occup=   2.000000
   1   -0.024709
   2    0.003689
   3    0.003745
   4   -0.000603
   5    0.000000
   6    0.030053
   7   -0.004470
   8    0.004541
   9   -0.000729
  10    0.000000
  11    0.010258
  12    0.000609
  13   -0.000025
  14    0.000114
  15    0.000000
  16   -0.013091
  17   -0.000741
  18   -0.000013
  19    0.000150
  20    0.000000
  21   -0.010609
  22   -0.000586
  23   -0.000095
  24   -0.000149
  25    0.000000
  26    0.008490
  27    0.000505
  28   -0.000096
  29   -0.000108
  30    0.000000
  31   -0.000091
  32    0.000112
  33   -0.000050
  34    0.000039
  35    0.763895
  36    0.033605
  37   -0.001186
  38   -0.000820
  39    0.000000
  40   -0.629156
  41   -0.027680
  42   -0.000975
  43   -0.000676
  44    0.000000
  45   -0.007007
  46    0.005771
  47   -0.008864
  48   -0.008317
  49   -0.003758
  50   -0.003325
  51    0.000000
  52    0.007302
  53    0.006850
  54   -0.003095
  55   -0.002739
  56    0.000000
  57    0.000204
  58   -0.000168
  59    0.000237
  60   -0.000195
 Sym= A
 Ene=   -10.0039
 Spin= Alpha
 Occup=   2.000000
   1    0.030259
   2   -0.004432
   3   -0.004513
   4    0.000715
   5    0.000000
   6    0.024964
   7   -0.003642
   8    0.003712
   9   -0.000586
  10    0.000000
  11   -0.015766
  12   -0.000746
  13   -0.000060
  14   -0.000201
  15    0.000000
  16   -0.013509
  17   -0.000615
  18    0.000064
  19    0.000176
  20    0.000000
  21   -0.010036
  22   -0.000367
  23    0.000015
  24   -0.000198
  25    0.000000
  26   -0.011884
  27   -0.000472
  28    0.000004
  29    0.000223
  30    0.000000
  31    0.000118
  32    0.000098
  33   -0.000053
  34   -0.000062
  35    0.629064
  36    0.027660
  37   -0.000986
  38   -0.000674
  39    0.000000
  40    0.763819
  41    0.033589
  42    0.001195
  43    0.000818
  44    0.000000
  45   -0.005769
  46   -0.007005
  47   -0.007295
  48   -0.006848
  49   -0.003093
  50   -0.002739
  51    0.000000
  52   -0.008859
  53   -0.008316
  54    0.003756
  55    0.003325
  56    0.000000
  57    0.000168
  58    0.000204
  59    0.000195
  60    0.000237
 Sym= A
 Ene=   -10.0029
 Spin= Alpha
 Occup=   2.000000
   1    0.003972
   2   -0.001011
   3   -0.000461
   4   -0.005287
   5    0.000000
   6    0.002386
   7   -0.000561
   8    0.000631
   9    0.005221
  10    0.000000
  11   -0.427282
  12   -0.023767
  13    0.003558
  14   -0.000989
  15    0.000000
  16   -0.450907
  17   -0.025103
  18   -0.003770
  19    0.001053
  20    0.000000
  21    0.529554
  22    0.027313
  23    0.003144
  24   -0.000076
  25    0.000000
  26    0.560041
  27    0.028888
  28   -0.003329
  29    0.000071
  30    0.000000
  31    0.003950
  32    0.004172
  33   -0.004902
  34   -0.005185
  35   -0.001167
  36   -0.000062
  37   -0.000032
  38   -0.000107
  39    0.000000
  40   -0.000408
  41   -0.000021
  42    0.000035
  43    0.000110
  44    0.000000
  45    0.000001
  46   -0.000009
  47   -0.000262
  48   -0.000043
  49   -0.000005
  50    0.000035
  51    0.000000
  52   -0.000313
  53   -0.000058
  54    0.000013
  55   -0.000034
  56    0.000000
  57    0.000151
  58    0.000160
  59   -0.000004
  60   -0.000005
 Sym= A
 Ene=   -10.0029
 Spin= Alpha
 Occup=   2.000000
   1   -0.028653
   2    0.008133
   3   -0.003098
   4    0.001066
   5   -0.000000
   6    0.028835
   7   -0.008177
   8   -0.003068
   9    0.001356
  10   -0.000000
  11   -0.438378
  12   -0.024813
  13    0.003943
  14   -0.001175
  15   -0.000000
  16    0.414230
  17    0.023468
  18    0.003741
  19   -0.001119
  20   -0.000000
  21    0.569080
  22    0.029369
  23    0.003439
  24    0.000088
  25   -0.000000
  26   -0.538959
  27   -0.027817
  28    0.003261
  29    0.000092
  30   -0.000000
  31    0.004106
  32   -0.003882
  33   -0.005278
  34    0.004999
  35    0.013695
  36    0.000728
  37   -0.000054
  38   -0.000058
  39   -0.000000
  40   -0.013735
  41   -0.000730
  42   -0.000052
  43   -0.000052
  44   -0.000000
  45   -0.000181
  46    0.000180
  47   -0.000942
  48   -0.000279
  49   -0.000142
  50   -0.000026
  51   -0.000000
  52    0.000926
  53    0.000277
  54   -0.000141
  55   -0.000028
  56   -0.000000
  57    0.000159
  58   -0.000150
  59   -0.000008
  60    0.000008
 Sym= A
 Ene=   -10.0022
 Spin= Alpha
 Occup=   2.000000
   1   -0.003558
   2    0.001066
   3   -0.001265
   4   -0.005009
   5    0.000000
   6    0.003592
   7   -0.001075
   8   -0.001268
   9   -0.005008
  10    0.000000
  11   -0.554947
  12   -0.020492
  13   -0.002236
  14   -0.000233
  15    0.000000
  16    0.555464
  17    0.020510
  18   -0.002239
  19   -0.000232
  20    0.000000
  21   -0.427483
  22   -0.013641
  23    0.002996
  24   -0.000948
  25    0.000000
  26    0.428068
  27    0.013662
  28    0.002999
  29   -0.000949
  30    0.000000
  31    0.004891
  32   -0.004896
  33    0.003723
  34   -0.003728
  35    0.003335
  36    0.000173
  37   -0.000025
  38    0.000008
  39    0.000000
  40   -0.003315
  41   -0.000172
  42   -0.000024
  43    0.000008
  44    0.000000
  45   -0.000053
  46    0.000053
  47    0.000214
  48   -0.000027
  49   -0.000010
  50   -0.000052
  51    0.000000
  52   -0.000215
  53    0.000026
  54   -0.000010
  55   -0.000052
  56    0.000000
  57   -0.000092
  58    0.000092
  59    0.000010
  60   -0.000010
 Sym= A
 Ene=   -10.0021
 Spin= Alpha
 Occup=   2.000000
   1    0.029518
   2   -0.007497
   3    0.003078
   4    0.000042
   5    0.000000
   6    0.029512
   7   -0.007494
   8   -0.003076
   9   -0.000037
  10    0.000000
  11    0.545451
  12    0.019842
  13    0.002347
  14   -0.000134
  15    0.000000
  16    0.544780
  17    0.019816
  18   -0.002345
  19    0.000135
  20    0.000000
  21    0.439689
  22    0.014219
  23   -0.003013
  24    0.000671
  25    0.000000
  26    0.439298
  27    0.014208
  28    0.003009
  29   -0.000670
  30    0.000000
  31   -0.004973
  32   -0.004967
  33   -0.004017
  34   -0.004013
  35    0.017297
  36    0.000752
  37   -0.000187
  38   -0.000024
  39    0.000000
  40    0.017302
  41    0.000752
  42    0.000187
  43    0.000024
  44    0.000000
  45   -0.000251
  46   -0.000252
  47   -0.001150
  48   -0.000326
  49   -0.000184
  50   -0.000053
  51    0.000000
  52   -0.001150
  53   -0.000326
  54    0.000184
  55    0.000053
  56    0.000000
  57    0.000098
  58    0.000098
  59   -0.000011
  60   -0.000011
 Sym= A
 Ene=    -9.9882
 Spin= Alpha
 Occup=   2.000000
   1   -0.000079
   2   -0.000073
   3   -0.000023
   4   -0.000010
   5    0.000000
   6    0.000236
   7    0.000213
   8   -0.000066
   9   -0.000031
  10    0.000000
  11    0.000003
  12   -0.000025
  13    0.000060
  14   -0.000002
  15    0.000000
  16    0.000499
  17   -0.000029
  18    0.000084
  19    0.000013
  20    0.000000
  21    0.001080
  22   -0.000030
  23    0.000134
  24   -0.000007
  25    0.000000
  26   -0.000330
  27   -0.000002
  28    0.000055
  29   -0.000005
  30    0.000000
  31    0.000003
  32   -0.000018
  33    0.000139
  34   -0.000047
  35    0.012076
  36   -0.009234
  37    0.004525
  38    0.004131
  39    0.000000
  40   -0.004085
  41    0.003126
  42    0.001532
  43    0.001398
  44    0.000000
  45    0.000058
  46   -0.000020
  47    0.938330
  48    0.041346
  49    0.001253
  50    0.001191
  51    0.000000
  52   -0.317605
  53   -0.013995
  54    0.000424
  55    0.000403
  56    0.000000
  57   -0.008520
  58    0.002884
  59   -0.008533
  60    0.002888
 Sym= A
 Ene=    -9.9882
 Spin= Alpha
 Occup=   2.000000
   1    0.000237
   2    0.000212
   3    0.000065
   4    0.000032
   5    0.000000
   6    0.000081
   7    0.000071
   8   -0.000021
   9   -0.000012
  10    0.000000
  11    0.000631
  12   -0.000056
  13   -0.000060
  14   -0.000018
  15    0.000000
  16    0.000386
  17   -0.000054
  18   -0.000011
  19    0.000012
  20    0.000000
  21    0.000411
  22   -0.000026
  23    0.000033
  24    0.000000
  25    0.000000
  26    0.001108
  27   -0.000040
  28   -0.000127
  29    0.000006
  30    0.000000
  31   -0.000020
  32   -0.000010
  33    0.000047
  34    0.000139
  35    0.004091
  36   -0.003125
  37    0.001531
  38    0.001398
  39    0.000000
  40    0.012078
  41   -0.009234
  42   -0.004525
  43   -0.004131
  44    0.000000
  45    0.000019
  46    0.000058
  47    0.317605
  48    0.013995
  49    0.000424
  50    0.000403
  51    0.000000
  52    0.938330
  53    0.041346
  54   -0.001253
  55   -0.001191
  56    0.000000
  57   -0.002884
  58   -0.008520
  59   -0.002888
  60   -0.008533
 Sym= A
 Ene=    -0.8058
 Spin= Alpha
 Occup=   2.000000
   1   -0.107861
   2    0.274701
   3   -0.040705
   4    0.005489
   5    0.000000
   6   -0.107861
   7    0.274702
   8    0.040705
   9   -0.005489
  10    0.000000
  11   -0.097843
  12    0.247011
  13   -0.014483
  14    0.053361
  15    0.000000
  16   -0.097844
  17    0.247011
  18    0.014483
  19   -0.053360
  20    0.000000
  21   -0.097567
  22    0.246666
  23    0.031424
  24    0.045746
  25    0.000000
  26   -0.097568
  27    0.246667
  28   -0.031424
  29   -0.045746
  30    0.000000
  31    0.044964
  32    0.044964
  33    0.045206
  34    0.045206
  35   -0.049735
  36    0.127849
  37    0.028454
  38   -0.012900
  39    0.000000
  40   -0.049734
  41    0.127849
  42   -0.028454
  43    0.012900
  44    0.000000
  45    0.025622
  46    0.025622
  47   -0.024681
  48    0.062712
  49    0.020361
  50    0.012403
  51    0.000000
  52   -0.024681
  53    0.062712
  54   -0.020361
  55   -0.012403
  56    0.000000
  57    0.014138
  58    0.014138
  59    0.010592
  60    0.010592
 Sym= A
 Ene=    -0.7503
 Spin= Alpha
 Occup=   2.000000
   1    0.103546
   2   -0.273768
   3   -0.032982
   4    0.004475
   5    0.000000
   6   -0.103546
   7    0.273769
   8   -0.032982
   9    0.004475
  10    0.000000
  11    0.039070
  12   -0.102242
  13   -0.058952
  14   -0.027380
  15    0.000000
  16   -0.039070
  17    0.102242
  18   -0.058952
  19   -0.027380
  20    0.000000
  21   -0.042776
  22    0.112515
  23   -0.046675
  24    0.044618
  25    0.000000
  26    0.042776
  27   -0.112516
  28   -0.046675
  29    0.044618
  30    0.000000
  31   -0.026881
  32    0.026881
  33    0.030765
  34   -0.030765
  35   -0.113821
  36    0.297172
  37    0.008511
  38   -0.034179
  39    0.000000
  40    0.113821
  41   -0.297172
  42    0.008512
  43   -0.034179
  44    0.000000
  45    0.067041
  46   -0.067041
  47   -0.080731
  48    0.209312
  49    0.049904
  50    0.037284
  51    0.000000
  52    0.080731
  53   -0.209312
  54    0.049904
  55    0.037284
  56    0.000000
  57    0.048601
  58   -0.048601
  59    0.043701
  60   -0.043701
 Sym= A
 Ene=    -0.7142
 Spin= Alpha
 Occup=   2.000000
   1   -0.004511
   2    0.014786
   3    0.096150
   4   -0.010370
   5   -0.000000
   6   -0.004511
   7    0.014785
   8   -0.096150
   9    0.010370
  10   -0.000000
  11    0.046321
  12   -0.121486
  13    0.037039
  14   -0.016145
  15   -0.000000
  16    0.046322
  17   -0.121487
  18   -0.037039
  19    0.016145
  20   -0.000000
  21    0.041739
  22   -0.108974
  23   -0.047348
  24   -0.002042
  25   -0.000000
  26    0.041739
  27   -0.108975
  28    0.047349
  29    0.002042
  30   -0.000000
  31   -0.023357
  32   -0.023357
  33   -0.016605
  34   -0.016605
  35   -0.119231
  36    0.314787
  37   -0.057481
  38   -0.045349
  39   -0.000000
  40   -0.119231
  41    0.314787
  42    0.057481
  43    0.045348
  44   -0.000000
  45    0.076548
  46    0.076548
  47   -0.117463
  48    0.309752
  49    0.052789
  50    0.049072
  51   -0.000000
  52   -0.117463
  53    0.309752
  54   -0.052789
  55   -0.049072
  56   -0.000000
  57    0.074225
  58    0.074225
  59    0.074861
  60    0.074860
 Sym= A
 Ene=    -0.6963
 Spin= Alpha
 Occup=   2.000000
   1   -0.012612
   2    0.034105
   3   -0.023002
   4   -0.124975
   5    0.000000
   6    0.012612
   7   -0.034105
   8   -0.023002
   9   -0.124975
  10    0.000000
  11   -0.132327
  12    0.357132
  13   -0.056190
  14   -0.003493
  15    0.000000
  16    0.132327
  17   -0.357131
  18   -0.056190
  19   -0.003492
  20    0.000000
  21   -0.120084
  22    0.323870
  23    0.065626
  24   -0.034654
  25    0.000000
  26    0.120084
  27   -0.323868
  28    0.065626
  29   -0.034654
  30    0.000000
  31    0.098345
  32   -0.098345
  33    0.090005
  34   -0.090005
  35    0.000187
  36   -0.001240
  37   -0.018505
  38   -0.022972
  39    0.000000
  40   -0.000186
  41    0.001240
  42   -0.018505
  43   -0.022972
  44    0.000000
  45   -0.009843
  46    0.009843
  47   -0.014524
  48    0.037982
  49    0.006376
  50   -0.001565
  51    0.000000
  52    0.014524
  53   -0.037983
  54    0.006376
  55   -0.001565
  56    0.000000
  57    0.014811
  58   -0.014811
  59    0.008957
  60   -0.008957
 Sym= A
 Ene=    -0.6637
 Spin= Alpha
 Occup=   2.000000
   1    0.099653
   2   -0.274064
   3    0.056213
   4   -0.017821
   5    0.000000
   6   -0.099654
   7    0.274065
   8    0.056213
   9   -0.017821
  10    0.000000
  11    0.040747
  12   -0.112620
  13   -0.091430
  14   -0.037884
  15    0.000000
  16   -0.040746
  17    0.112619
  18   -0.091430
  19   -0.037884
  20    0.000000
  21   -0.073319
  22    0.202338
  23   -0.046950
  24    0.054055
  25    0.000000
  26    0.073319
  27   -0.202339
  28   -0.046950
  29    0.054055
  30    0.000000
  31   -0.032175
  32    0.032175
  33    0.053485
  34   -0.053486
  35    0.051605
  36   -0.136809
  37    0.129049
  38    0.039187
  39    0.000000
  40   -0.051605
  41    0.136810
  42    0.129049
  43    0.039187
  44    0.000000
  45   -0.037636
  46    0.037636
  47    0.110269
  48   -0.299487
  49   -0.016365
  50   -0.034517
  51    0.000000
  52   -0.110269
  53    0.299487
  54   -0.016365
  55   -0.034517
  56    0.000000
  57   -0.077420
  58    0.077421
  59   -0.089986
  60    0.089986
 Sym= A
 Ene=    -0.5849
 Spin= Alpha
 Occup=   2.000000
   1    0.070955
   2   -0.206311
   3   -0.072119
   4    0.121088
   5    0.000000
   6    0.070954
   7   -0.206310
   8    0.072119
   9   -0.121088
  10    0.000000
  11    0.003042
  12   -0.010091
  13   -0.159995
  14   -0.029900
  15    0.000000
  16    0.003042
  17   -0.010091
  18    0.159995
  19    0.029900
  20    0.000000
  21   -0.081917
  22    0.233823
  23    0.022857
  24   -0.065455
  25    0.000000
  26   -0.081917
  27    0.233823
  28   -0.022857
  29    0.065455
  30    0.000000
  31   -0.019326
  32   -0.019325
  33    0.106456
  34    0.106456
  35    0.053064
  36   -0.159628
  37   -0.129229
  38   -0.081299
  39    0.000000
  40    0.053064
  41   -0.159628
  42    0.129229
  43    0.081299
  44    0.000000
  45   -0.080070
  46   -0.080070
  47   -0.083700
  48    0.241372
  49   -0.038263
  50   -0.035617
  51    0.000000
  52   -0.083701
  53    0.241372
  54    0.038263
  55    0.035617
  56    0.000000
  57    0.103573
  58    0.103574
  59    0.097759
  60    0.097759
 Sym= A
 Ene=    -0.5555
 Spin= Alpha
 Occup=   2.000000
   1    0.054343
   2   -0.160849
   3   -0.063938
   4   -0.184817
   5   -0.000000
   6    0.054343
   7   -0.160850
   8    0.063938
   9    0.184817
  10   -0.000000
  11   -0.110447
  12    0.326005
  13    0.036491
  14   -0.081704
  15   -0.000000
  16   -0.110447
  17    0.326006
  18   -0.036491
  19    0.081704
  20   -0.000000
  21    0.057451
  22   -0.170677
  23    0.170422
  24   -0.086553
  25   -0.000000
  26    0.057451
  27   -0.170678
  28   -0.170422
  29    0.086553
  30   -0.000000
  31    0.169285
  32    0.169285
  33   -0.083805
  34   -0.083805
  35    0.007590
  36   -0.024547
  37   -0.077941
  38    0.046610
  39   -0.000000
  40    0.007590
  41   -0.024547
  42    0.077941
  43   -0.046610
  44   -0.000000
  45    0.032175
  46    0.032175
  47   -0.037875
  48    0.113496
  49   -0.049450
  50    0.013897
  51   -0.000000
  52   -0.037875
  53    0.113496
  54    0.049450
  55   -0.013897
  56   -0.000000
  57    0.022791
  58    0.022791
  59    0.067911
  60    0.067911
 Sym= A
 Ene=    -0.5278
 Spin= Alpha
 Occup=   2.000000
   1   -0.013040
   2    0.037105
   3   -0.134917
   4    0.053589
   5   -0.000000
   6    0.013040
   7   -0.037106
   8   -0.134918
   9    0.053589
  10   -0.000000
  11   -0.050674
  12    0.154479
  13    0.004817
  14    0.005251
  15   -0.000000
  16    0.050674
  17   -0.154479
  18    0.004818
  19    0.005252
  20   -0.000000
  21    0.030359
  22   -0.092030
  23    0.078578
  24   -0.035829
  25   -0.000000
  26   -0.030359
  27    0.092030
  28    0.078578
  29   -0.035828
  30   -0.000000
  31    0.050334
  32   -0.050334
  33   -0.055818
  34    0.055818
  35   -0.098852
  36    0.302749
  37    0.041050
  38    0.116048
  39   -0.000000
  40    0.098852
  41   -0.302748
  42    0.041050
  43    0.116047
  44   -0.000000
  45    0.170554
  46   -0.170554
  47    0.080730
  48   -0.249113
  49    0.091251
  50    0.123157
  51   -0.000000
  52   -0.080730
  53    0.249112
  54    0.091251
  55    0.123157
  56   -0.000000
  57   -0.160662
  58    0.160662
  59   -0.124740
  60    0.124739
 Sym= A
 Ene=    -0.5063
 Spin= Alpha
 Occup=   2.000000
   1    0.054543
   2   -0.162191
   3    0.142540
   4    0.019506
   5    0.000000
   6    0.054543
   7   -0.162191
   8   -0.142539
   9   -0.019506
  10    0.000000
  11   -0.006947
  12    0.025489
  13   -0.087906
  14   -0.184475
  15    0.000000
  16   -0.006947
  17    0.025490
  18    0.087905
  19    0.184476
  20    0.000000
  21   -0.052242
  22    0.166033
  23   -0.037327
  24   -0.201874
  25    0.000000
  26   -0.052242
  27    0.166032
  28    0.037326
  29    0.201875
  30    0.000000
  31    0.099463
  32    0.099464
  33    0.169324
  34    0.169324
  35   -0.059119
  36    0.180739
  37   -0.001508
  38    0.064544
  39    0.000000
  40   -0.059120
  41    0.180741
  42    0.001508
  43   -0.064544
  44    0.000000
  45    0.112532
  46    0.112533
  47    0.051545
  48   -0.163436
  49    0.081647
  50    0.079146
  51    0.000000
  52    0.051545
  53   -0.163437
  54   -0.081648
  55   -0.079147
  56    0.000000
  57   -0.094752
  58   -0.094753
  59   -0.097207
  60   -0.097208
 Sym= A
 Ene=    -0.4540
 Spin= Alpha
 Occup=   2.000000
   1    0.032282
   2   -0.106312
   3   -0.132275
   4    0.051440
   5    0.000000
   6    0.032282
   7   -0.106311
   8    0.132275
   9   -0.051441
  10    0.000000
  11    0.013355
  12   -0.051555
  13   -0.141369
  14    0.136886
  15    0.000000
  16    0.013355
  17   -0.051555
  18    0.141370
  19   -0.136886
  20    0.000000
  21   -0.019794
  22    0.056246
  23    0.135965
  24    0.084613
  25    0.000000
  26   -0.019794
  27    0.056246
  28   -0.135965
  29   -0.084612
  30    0.000000
  31   -0.136022
  32   -0.136022
  33   -0.090415
  34   -0.090415
  35   -0.040167
  36    0.127644
  37   -0.184651
  38    0.114824
  39    0.000000
  40   -0.040167
  41    0.127644
  42    0.184651
  43   -0.114824
  44    0.000000
  45    0.153112
  46    0.153112
  47    0.016872
  48   -0.063318
  49   -0.009206
  50    0.212733
  51    0.000000
  52    0.016872
  53   -0.063318
  54    0.009206
  55   -0.212732
  56    0.000000
  57   -0.179152
  58   -0.179152
  59    0.021489
  60    0.021490
 Sym= A
 Ene=    -0.4356
 Spin= Alpha
 Occup=   2.000000
   1   -0.022758
   2    0.078049
   3    0.135079
   4    0.124746
   5   -0.000000
   6    0.022758
   7   -0.078049
   8    0.135079
   9    0.124746
  10   -0.000000
  11    0.022156
  12   -0.074587
  13   -0.184893
  14    0.018618
  15   -0.000000
  16   -0.022156
  17    0.074587
  18   -0.184893
  19    0.018618
  20   -0.000000
  21   -0.042599
  22    0.139005
  23    0.101413
  24   -0.096645
  25   -0.000000
  26    0.042599
  27   -0.139005
  28    0.101413
  29   -0.096646
  30   -0.000000
  31   -0.100248
  32    0.100248
  33    0.059897
  34   -0.059897
  35    0.016909
  36   -0.051651
  37   -0.101053
  38    0.219232
  39   -0.000000
  40   -0.016909
  41    0.051651
  42   -0.101053
  43    0.219231
  44   -0.000000
  45    0.155527
  46   -0.155527
  47   -0.008139
  48    0.031350
  49   -0.210320
  50    0.090597
  51   -0.000000
  52    0.008139
  53   -0.031350
  54   -0.210319
  55    0.090597
  56   -0.000000
  57   -0.073089
  58    0.073089
  59    0.178194
  60   -0.178194
 Sym= A
 Ene=    -0.4074
 Spin= Alpha
 Occup=   2.000000
   1    0.069473
   2   -0.235361
   3    0.027513
   4    0.100922
   5   -0.000000
   6   -0.069473
   7    0.235361
   8    0.027514
   9    0.100922
  10   -0.000000
  11   -0.047371
  12    0.162918
  13   -0.061496
  14   -0.222279
  15   -0.000000
  16    0.047371
  17   -0.162919
  18   -0.061497
  19   -0.222278
  20   -0.000000
  21    0.044041
  22   -0.152859
  23    0.177890
  24    0.112953
  25   -0.000000
  26   -0.044042
  27    0.152860
  28    0.177891
  29    0.112953
  30   -0.000000
  31    0.226736
  32   -0.226735
  33   -0.230553
  34    0.230554
  35    0.015291
  36   -0.042284
  37    0.125140
  38    0.038075
  39   -0.000000
  40   -0.015290
  41    0.042283
  42    0.125140
  43    0.038073
  44   -0.000000
  45   -0.028059
  46    0.028061
  47   -0.012231
  48    0.050751
  49   -0.133621
  50   -0.075419
  51   -0.000000
  52    0.012231
  53   -0.050751
  54   -0.133619
  55   -0.075419
  56   -0.000000
  57    0.042128
  58   -0.042129
  59    0.105150
  60   -0.105148
 Sym= A
 Ene=    -0.3941
 Spin= Alpha
 Occup=   2.000000
   1    0.022733
   2   -0.077375
   3    0.143256
   4   -0.220900
   5    0.000000
   6   -0.022733
   7    0.077375
   8    0.143256
   9   -0.220900
  10    0.000000
  11    0.001295
  12   -0.001634
  13    0.120730
  14   -0.002997
  15    0.000000
  16   -0.001295
  17    0.001633
  18    0.120729
  19   -0.002997
  20    0.000000
  21   -0.011774
  22    0.036776
  23   -0.056902
  24    0.251123
  25    0.000000
  26    0.011774
  27   -0.036775
  28   -0.056901
  29    0.251124
  30    0.000000
  31    0.036573
  32   -0.036573
  33   -0.132591
  34    0.132592
  35    0.002556
  36   -0.014880
  37   -0.181568
  38   -0.043014
  39    0.000000