 Entering Gaussian System, Link 0=g03
 Initial command:
 /home/no228/Tools/g03/l1.exe /home/no228/Tools/cclib/cclib/data/Gaussian/basicGaussian03/Gau-29230.inp -scrdir=/home/no228/Tools/cclib/cclib/data/Gaussian/basicGaussian03/
 Entering Link 1 = /home/no228/Tools/g03/l1.exe PID=     29231.
  
 Copyright (c) 1988,1990,1992,1993,1995,1998,2003, Gaussian, Inc.
                  All Rights Reserved.
  
 This is the Gaussian(R) 03 program.  It is based on the
 the Gaussian(R) 98 system (copyright 1998, Gaussian, Inc.),
 the Gaussian(R) 94 system (copyright 1995, Gaussian, Inc.),
 the Gaussian 92(TM) system (copyright 1992, Gaussian, Inc.),
 the Gaussian 90(TM) system (copyright 1990, Gaussian, Inc.),
 the Gaussian 88(TM) system (copyright 1988, Gaussian, Inc.),
 the Gaussian 86(TM) system (copyright 1986, Carnegie Mellon
 University), and the Gaussian 82(TM) system (copyright 1983,
 Carnegie Mellon University). Gaussian is a federally registered
 trademark of Gaussian, Inc.
  
 This software contains proprietary and confidential information,
 including trade secrets, belonging to Gaussian, Inc.
  
 This software is provided under written license and may be
 used, copied, transmitted, or stored only in accord with that
 written license.
  
 The following legend is applicable only to US Government
 contracts under DFARS:
  
                    RESTRICTED RIGHTS LEGEND
  
 Use, duplication or disclosure by the US Government is subject
 to restrictions as set forth in subparagraph (c)(1)(ii) of the
 Rights in Technical Data and Computer Software clause at DFARS
 252.227-7013.
  
 Gaussian, Inc.
 Carnegie Office Park, Building 6, Pittsburgh, PA 15106 USA
  
 The following legend is applicable only to US Government
 contracts under FAR:
  
                    RESTRICTED RIGHTS LEGEND
  
 Use, reproduction and disclosure by the US Government is subject
 to restrictions as set forth in subparagraph (c) of the
 Commercial Computer Software - Restricted Rights clause at FAR
 52.227-19.
  
 Gaussian, Inc.
 Carnegie Office Park, Building 6, Pittsburgh, PA 15106 USA
  
  
 ---------------------------------------------------------------
 Warning -- This program may not be used in any manner that
 competes with the business of Gaussian, Inc. or will provide
 assistance to any competitor of Gaussian, Inc.  The licensee
 of this program is prohibited from giving any competitor of
 Gaussian, Inc. access to this program.  By using this program,
 the user acknowledges that Gaussian, Inc. is engaged in the
 business of creating and licensing software in the field of
 computational chemistry and represents and warrants to the
 licensee that it is not a competitor of Gaussian, Inc. and that
 it will not use this program in any manner prohibited above.
 ---------------------------------------------------------------
  

 Cite this work as:
 Gaussian 03, Revision B.04,
 M. J. Frisch, G. W. Trucks, H. B. Schlegel, G. E. Scuseria, 
 M. A. Robb, J. R. Cheeseman, J. A. Montgomery, Jr., T. Vreven, 
 K. N. Kudin, J. C. Burant, J. M. Millam, S. S. Iyengar, J. Tomasi, 
 V. Barone, B. Mennucci, M. Cossi, G. Scalmani, N. Rega, 
 G. A. Petersson, H. Nakatsuji, M. Hada, M. Ehara, K. Toyota, 
 R. Fukuda, J. Hasegawa, M. Ishida, T. Nakajima, Y. Honda, O. Kitao, 
 H. Nakai, M. Klene, X. Li, J. E. Knox, H. P. Hratchian, J. B. Cross, 
 C. Adamo, J. Jaramillo, R. Gomperts, R. E. Stratmann, O. Yazyev, 
 A. J. Austin, R. Cammi, C. Pomelli, J. W. Ochterski, P. Y. Ayala, 
 K. Morokuma, G. A. Voth, P. Salvador, J. J. Dannenberg, 
 V. G. Zakrzewski, S. Dapprich, A. D. Daniels, M. C. Strain, 
 O. Farkas, D. K. Malick, A. D. Rabuck, K. Raghavachari, 
 J. B. Foresman, J. V. Ortiz, Q. Cui, A. G. Baboul, S. Clifford, 
 J. Cioslowski, B. B. Stefanov, G. Liu, A. Liashenko, P. Piskorz, 
 I. Komaromi, R. L. Martin, D. J. Fox, T. Keith, M. A. Al-Laham, 
 C. Y. Peng, A. Nanayakkara, M. Challacombe, P. M. W. Gill, 
 B. Johnson, W. Chen, M. W. Wong, C. Gonzalez, and J. A. Pople, 
 Gaussian, Inc., Pittsburgh PA, 2003.
 
 *********************************************
 Gaussian 03:  x86-Linux-G03RevB.04 2-Jun-2003
                  18-May-2006 
 *********************************************
 %chk=test.chk
 %mem=300MB
 %nproc=1
 Will use up to    1 processors via shared memory.
 ----------------------------------------------
 #p HF/aug-cc-pVQZ pop=full iop(3/33=1,3/36=-1)
 ----------------------------------------------

 Warning!  SCF SP cutoffs with diffuse functions may be unreliable.
 Consider SCF=Tight

 1/38=1/1;
 2/17=6,18=5,40=1/2;
 3/5=16,6=2,7=10,11=9,16=1,25=1,30=1,33=1,36=-1/1,2,3;
 4//1;
 5/5=2,32=1,38=5/2;
 6/7=3,28=1/1;
 99/5=1,9=1/99;
 Leave Link    1 at Thu May 18 17:13:02 2006, MaxMem=   39321600 cpu:       0.1
 (Enter /home/no228/Tools/g03/l101.exe)
 -------------------
 Title card required
 -------------------
 Symbolic Z-matrix:
 Charge =  0 Multiplicity = 1
 C                     0.        0.        0. 
 
                    Isotopes and Nuclear Properties:

  Atom         1
 IAtWgt=          12
 AtmWgt=  12.0000000
 IAtSpn=           0
 AtZEff=   0.0000000
 AtQMom=   0.0000000
 AtGFac=   0.0000000
 Leave Link  101 at Thu May 18 17:13:02 2006, MaxMem=   39321600 cpu:       0.0
 (Enter /home/no228/Tools/g03/l202.exe)
                          Input orientation:                          
 ---------------------------------------------------------------------
 Center     Atomic     Atomic              Coordinates (Angstroms)
 Number     Number      Type              X           Y           Z
 ---------------------------------------------------------------------
    1          6             0        0.000000    0.000000    0.000000
 ---------------------------------------------------------------------
 Stoichiometry    C
 Framework group  OH[O(C)]
 Deg. of freedom     0
 Full point group                 OH      NOp  48
 Largest Abelian subgroup         D2H     NOp   8
 Largest concise Abelian subgroup C1      NOp   1
                         Standard orientation:                         
 ---------------------------------------------------------------------
 Center     Atomic     Atomic              Coordinates (Angstroms)
 Number     Number      Type              X           Y           Z
 ---------------------------------------------------------------------
    1          6             0        0.000000    0.000000    0.000000
 ---------------------------------------------------------------------
 Leave Link  202 at Thu May 18 17:13:03 2006, MaxMem=   39321600 cpu:       0.0
 (Enter /home/no228/Tools/g03/l301.exe)
 Standard basis: Aug-CC-pVQZ (5D, 7F)
                         Coordinates in L301:                         
 ---------------------------------------------------------------------
 Center     Atomic     Atomic              Coordinates (Angstroms)
 Number     Number      Type              X           Y           Z
 ---------------------------------------------------------------------
    1          6             0        0.000000    0.000000    0.000000
 ---------------------------------------------------------------------
 LdAtmC:  AtmChg=     6.000000
 AtZEff=  -3.6000000
 NEqShl: 
              1            2            3            4            5
     1            1            1            1            1            1
     2            2            2            2            2            2
     3            3            3            3            3            3
     4            4            4            4            4            4
     5            5            5            5            5            5
     6            6            6            6            6            6
     7            7            7            7            7            7
     8            8            8            8            8            8
     9            9            9            9            9            9
    10           10           10           10           10           10
    11           11           11           11           11           11
    12           12           12           12           12           12
    13           13           13           13           13           13
    14           14           14           14           14           14
    15           15           15           15           15           15
    16           16           16           16           16           16
    17           17           17           17           17           17
    18           18           18           18           18           18
    19           19           19           19           19           19
    20           20           20           20           20           20
              6            7            8            9           10
     1            1            1            1            1            1
     2            2            2            2            2            2
     3            3            3            3            3            3
     4            4            4            4            4            4
     5            5            5            5            5            5
     6            6            6            6            6            6
     7            7            7            7            7            7
     8            8            8            8            8            8
     9            9            9            9            9            9
    10           10           10           10           10           10
    11           11           11           11           11           11
    12           12           12           12           12           12
    13           13           13           13           13           13
    14           14           14           14           14           14
    15           15           15           15           15           15
    16           16           16           16           16           16
    17           17           17           17           17           17
    18           18           18           18           18           18
    19           19           19           19           19           19
    20           20           20           20           20           20
             11           12           13           14           15
     1            1            1            1            1            1
     2            2            2            2            2            2
     3            3            3            3            3            3
     4            4            4            4            4            4
     5            5            5            5            5            5
     6            6            6            6            6            6
     7            7            7            7            7            7
     8            8            8            8            8            8
     9            9            9            9            9            9
    10           10           10           10           10           10
    11           11           11           11           11           11
    12           12           12           12           12           12
    13           13           13           13           13           13
    14           14           14           14           14           14
    15           15           15           15           15           15
    16           16           16           16           16           16
    17           17           17           17           17           17
    18           18           18           18           18           18
    19           19           19           19           19           19
    20           20           20           20           20           20
             16           17           18           19           20
     1            1            1            1            1            1
     2            2            2            2            2            2
     3            3            3            3            3            3
     4            4            4            4            4            4
     5            5            5            5            5            5
     6            6            6            6            6            6
     7            7            7            7            7            7
     8            8            8            8            8            8
     9            9            9            9            9            9
    10           10           10           10           10           10
    11           11           11           11           11           11
    12           12           12           12           12           12
    13           13           13           13           13           13
    14           14           14           14           14           14
    15           15           15           15           15           15
    16           16           16           16           16           16
    17           17           17           17           17           17
    18           18           18           18           18           18
    19           19           19           19           19           19
    20           20           20           20           20           20
             21           22           23           24           25
     1            1            1            1            1            1
     2            2            2            2            2            2
     3            3            3            3            3            3
     4            4            4            4            4            4
     5            5            5            5            5            5
     6            6            6            6            6            6
     7            7            7            7            7            7
     8            8            8            8            8            8
     9            9            9            9            9            9
    10           10           10           10           10           10
    11           11           11           11           11           11
    12           12           12           12           12           12
    13           13           13           13           13           13
    14           14           14           14           14           14
    15           15           15           15           15           15
    16           16           16           16           16           16
    17           17           17           17           17           17
    18           18           18           18           18           18
    19           19           19           19           19           19
    20           20           20           20           20           20
             26           27           28           29           30
     1            1            1            1            1            1
     2            2            2            2            2            2
     3            3            3            3            3            3
     4            4            4            4            4            4
     5            5            5            5            5            5
     6            6            6            6            6            6
     7            7            7            7            7            7
     8            8            8            8            8            8
     9            9            9            9            9            9
    10           10           10           10           10           10
    11           11           11           11           11           11
    12           12           12           12           12           12
    13           13           13           13           13           13
    14           14           14           14           14           14
    15           15           15           15           15           15
    16           16           16           16           16           16
    17           17           17           17           17           17
    18           18           18           18           18           18
    19           19           19           19           19           19
    20           20           20           20           20           20
             31           32           33           34           35
     1            1            1            1            1            1
     2            2            2            2            2            2
     3            3            3            3            3            3
     4            4            4            4            4            4
     5            5            5            5            5            5
     6            6            6            6            6            6
     7            7            7            7            7            7
     8            8            8            8            8            8
     9            9            9            9            9            9
    10           10           10           10           10           10
    11           11           11           11           11           11
    12           12           12           12           12           12
    13           13           13           13           13           13
    14           14           14           14           14           14
    15           15           15           15           15           15
    16           16           16           16           16           16
    17           17           17           17           17           17
    18           18           18           18           18           18
    19           19           19           19           19           19
    20           20           20           20           20           20
             36           37           38           39           40
     1            1            1            1            1            1
     2            2            2            2            2            2
     3            3            3            3            3            3
     4            4            4            4            4            4
     5            5            5            5            5            5
     6            6            6            6            6            6
     7            7            7            7            7            7
     8            8            8            8            8            8
     9            9            9            9            9            9
    10           10           10           10           10           10
    11           11           11           11           11           11
    12           12           12           12           12           12
    13           13           13           13           13           13
    14           14           14           14           14           14
    15           15           15           15           15           15
    16           16           16           16           16           16
    17           17           17           17           17           17
    18           18           18           18           18           18
    19           19           19           19           19           19
    20           20           20           20           20           20
             41           42           43           44           45
     1            1            1            1            1            1
     2            2            2            2            2            2
     3            3            3            3            3            3
     4            4            4            4            4            4
     5            5            5            5            5            5
     6            6            6            6            6            6
     7            7            7            7            7            7
     8            8            8            8            8            8
     9            9            9            9            9            9
    10           10           10           10           10           10
    11           11           11           11           11           11
    12           12           12           12           12           12
    13           13           13           13           13           13
    14           14           14           14           14           14
    15           15           15           15           15           15
    16           16           16           16           16           16
    17           17           17           17           17           17
    18           18           18           18           18           18
    19           19           19           19           19           19
    20           20           20           20           20           20
             46           47           48
     1            1            1            1
     2            2            2            2
     3            3            3            3
     4            4            4            4
     5            5            5            5
     6            6            6            6
     7            7            7            7
     8            8            8            8
     9            9            9            9
    10           10           10           10
    11           11           11           11
    12           12           12           12
    13           13           13           13
    14           14           14           14
    15           15           15           15
    16           16           16           16
    17           17           17           17
    18           18           18           18
    19           19           19           19
    20           20           20           20
 NEqBas: 
              1            2            3            4            5
     1            1            1            1            1            1
     2            2            2            2            2            2
     3            3            3            3            3            3
     4            4            4            4            4            4
     5            5            5            5            5            5
     6            6            6           -6           -6           -6
     7            7           -7            7           -7           -7
     8            8           -8           -8            8           -8
     9            9            9           -9           -9           -9
    10           10          -10           10          -10          -10
    11           11          -11          -11           11          -11
    12           12           12          -12          -12          -12
    13           13          -13           13          -13          -13
    14           14          -14          -14           14          -14
    15           15           15          -15          -15          -15
    16           16          -16           16          -16          -16
    17           17          -17          -17           17          -17
    18           18           18           18           18           18
    19           19           19           19           19           19
    20           20           20           20           20           20
    21           21          -21          -21           21           21
    22           22          -22           22          -22           22
    23           23           23          -23          -23           23
    24           24           24           24           24           24
    25           25           25           25           25           25
    26           26           26           26           26           26
    27           27          -27          -27           27           27
    28           28          -28           28          -28           28
    29           29           29          -29          -29           29
    30           30           30           30           30           30
    31           31           31           31           31           31
    32           32           32           32           32           32
    33           33          -33          -33           33           33
    34           34          -34           34          -34           34
    35           35           35          -35          -35           35
    36           36           36          -36          -36          -36
    37           37          -37           37          -37          -37
    38           38          -38          -38           38          -38
    39           39           39          -39          -39          -39
    40           40          -40           40          -40          -40
    41           41          -41          -41           41          -41
    42           42           42          -42          -42          -42
    43           43          -43           43          -43          -43
    44           44          -44          -44           44          -44
    45           45           45           45           45          -45
    46           46           46          -46          -46          -46
    47           47          -47           47          -47          -47
    48           48          -48          -48           48          -48
    49           49           49          -49          -49          -49
    50           50          -50           50          -50          -50
    51           51          -51          -51           51          -51
    52           52           52          -52          -52          -52
    53           53          -53           53          -53          -53
    54           54          -54          -54           54          -54
    55           55           55           55           55          -55
    56           56           56           56           56           56
    57           57           57          -57          -57           57
    58           58           58           58           58           58
    59           59           59          -59          -59           59
    60           60           60           60           60           60
    61           61          -61           61          -61           61
    62           62          -62          -62           62           62
    63           63          -63           63          -63           63
    64           64          -64          -64           64           64
    65           65           65           65           65           65
    66           66           66          -66          -66           66
    67           67           67           67           67           67
    68           68          -68           68          -68           68
    69           69          -69          -69           69           69
    70           70           70           70           70           70
    71           71           71           71           71           71
    72           72           72          -72          -72          -72
    73           73          -73           73          -73          -73
    74           74          -74          -74           74          -74
    75           75           75           75           75           75
    76           76           76           76           76           76
    77           77           77           77           77           77
    78           78          -78          -78           78           78
    79           79          -79           79          -79           79
    80           80           80          -80          -80           80
    81           81           81          -81          -81          -81
    82           82          -82           82          -82          -82
    83           83          -83          -83           83          -83
    84           84           84          -84          -84          -84
    85           85          -85           85          -85          -85
    86           86          -86          -86           86          -86
    87           87           87          -87          -87          -87
    88           88          -88           88          -88          -88
    89           89          -89          -89           89          -89
    90           90           90           90           90          -90
    91           91           91           91           91           91
    92           92           92          -92          -92           92
    93           93           93           93           93           93
    94           94           94          -94          -94           94
    95           95           95           95           95           95
    96           96          -96           96          -96           96
    97           97          -97          -97           97           97
    98           98          -98           98          -98           98
    99           99          -99          -99           99           99
   100          100          100          100          100          100
   101          101          101         -101         -101          101
   102          102          102          102          102          102
   103          103         -103          103         -103          103
   104          104         -104         -104          104          104
   105          105          105          105          105          105
              6            7            8
     1            1            1            1
     2            2            2            2
     3            3            3            3
     4            4            4            4
     5            5            5            5
     6           -6            6            6
     7            7           -7            7
     8            8            8           -8
     9           -9            9            9
    10           10          -10           10
    11           11           11          -11
    12          -12           12           12
    13           13          -13           13
    14           14           14          -14
    15          -15           15           15
    16           16          -16           16
    17           17           17          -17
    18           18           18           18
    19           19           19           19
    20           20           20           20
    21          -21          -21           21
    22          -22           22          -22
    23           23          -23          -23
    24           24           24           24
    25           25           25           25
    26           26           26           26
    27          -27          -27           27
    28          -28           28          -28
    29           29          -29          -29
    30           30           30           30
    31           31           31           31
    32           32           32           32
    33          -33          -33           33
    34          -34           34          -34
    35           35          -35          -35
    36          -36           36           36
    37           37          -37           37
    38           38           38          -38
    39          -39           39           39
    40           40          -40           40
    41           41           41          -41
    42          -42           42           42
    43           43          -43           43
    44           44           44          -44
    45          -45          -45          -45
    46          -46           46           46
    47           47          -47           47
    48           48           48          -48
    49          -49           49           49
    50           50          -50           50
    51           51           51          -51
    52          -52           52           52
    53           53          -53           53
    54           54           54          -54
    55          -55          -55          -55
    56           56           56           56
    57           57          -57          -57
    58           58           58           58
    59           59          -59          -59
    60           60           60           60
    61          -61           61          -61
    62          -62          -62           62
    63          -63           63          -63
    64          -64          -64           64
    65           65           65           65
    66           66          -66          -66
    67           67           67           67
    68          -68           68          -68
    69          -69          -69           69
    70           70           70           70
    71           71           71           71
    72          -72           72           72
    73           73          -73           73
    74           74           74          -74
    75           75           75           75
    76           76           76           76
    77           77           77           77
    78          -78          -78           78
    79          -79           79          -79
    80           80          -80          -80
    81          -81           81           81
    82           82          -82           82
    83           83           83          -83
    84          -84           84           84
    85           85          -85           85
    86           86           86          -86
    87          -87           87           87
    88           88          -88           88
    89           89           89          -89
    90          -90          -90          -90
    91           91           91           91
    92           92          -92          -92
    93           93           93           93
    94           94          -94          -94
    95           95           95           95
    96          -96           96          -96
    97          -97          -97           97
    98          -98           98          -98
    99          -99          -99           99
   100          100          100          100
   101          101         -101         -101
   102          102          102          102
   103         -103          103         -103
   104         -104         -104          104
   105          105          105          105
 NEqShl: 
              1            2            3            4            5
     1            1            1            1            1            1
     2            2            2            2            2            2
     3            3            3            3            3            3
     4            4            4            4            4            4
     5            5            5            5            5            5
     6            6            6            6            6            6
     7            7            7            7            7            7
     8            8            8            8            8            8
     9            9            9            9            9            9
    10           10           10           10           10           10
    11           11           11           11           11           11
    12           12           12           12           12           12
    13           13           13           13           13           13
    14           14           14           14           14           14
    15           15           15           15           15           15
    16           16           16           16           16           16
    17           17           17           17           17           17
    18           18           18           18           18           18
    19           19           19           19           19           19
    20           20           20           20           20           20
              6            7            8            9           10
     1            1            1            1            1            1
     2            2            2            2            2            2
     3            3            3            3            3            3
     4            4            4            4            4            4
     5            5            5            5            5            5
     6            6            6            6            6            6
     7            7            7            7            7            7
     8            8            8            8            8            8
     9            9            9            9            9            9
    10           10           10           10           10           10
    11           11           11           11           11           11
    12           12           12           12           12           12
    13           13           13           13           13           13
    14           14           14           14           14           14
    15           15           15           15           15           15
    16           16           16           16           16           16
    17           17           17           17           17           17
    18           18           18           18           18           18
    19           19           19           19           19           19
    20           20           20           20           20           20
             11           12           13           14           15
     1            1            1            1            1            1
     2            2            2            2            2            2
     3            3            3            3            3            3
     4            4            4            4            4            4
     5            5            5            5            5            5
     6            6            6            6            6            6
     7            7            7            7            7            7
     8            8            8            8            8            8
     9            9            9            9            9            9
    10           10           10           10           10           10
    11           11           11           11           11           11
    12           12           12           12           12           12
    13           13           13           13           13           13
    14           14           14           14           14           14
    15           15           15           15           15           15
    16           16           16           16           16           16
    17           17           17           17           17           17
    18           18           18           18           18           18
    19           19           19           19           19           19
    20           20           20           20           20           20
             16           17           18           19           20
     1            1            1            1            1            1
     2            2            2            2            2            2
     3            3            3            3            3            3
     4            4            4            4            4            4
     5            5            5            5            5            5
     6            6            6            6            6            6
     7            7            7            7            7            7
     8            8            8            8            8            8
     9            9            9            9            9            9
    10           10           10           10           10           10
    11           11           11           11           11           11
    12           12           12           12           12           12
    13           13           13           13           13           13
    14           14           14           14           14           14
    15           15           15           15           15           15
    16           16           16           16           16           16
    17           17           17           17           17           17
    18           18           18           18           18           18
    19           19           19           19           19           19
    20           20           20           20           20           20
             21           22           23           24           25
     1            1            1            1            1            1
     2            2            2            2            2            2
     3            3            3            3            3            3
     4            4            4            4            4            4
     5            5            5            5            5            5
     6            6            6            6            6            6
     7            7            7            7            7            7
     8            8            8            8            8            8
     9            9            9            9            9            9
    10           10           10           10           10           10
    11           11           11           11           11           11
    12           12           12           12           12           12
    13           13           13           13           13           13
    14           14           14           14           14           14
    15           15           15           15           15           15
    16           16           16           16           16           16
    17           17           17           17           17           17
    18           18           18           18           18           18
    19           19           19           19           19           19
    20           20           20           20           20           20
             26           27           28           29           30
     1            1            1            1            1            1
     2            2            2            2            2            2
     3            3            3            3            3            3
     4            4            4            4            4            4
     5            5            5            5            5            5
     6            6            6            6            6            6
     7            7            7            7            7            7
     8            8            8            8            8            8
     9            9            9            9            9            9
    10           10           10           10           10           10
    11           11           11           11           11           11
    12           12           12           12           12           12
    13           13           13           13           13           13
    14           14           14           14           14           14
    15           15           15           15           15           15
    16           16           16           16           16           16
    17           17           17           17           17           17
    18           18           18           18           18           18
    19           19           19           19           19           19
    20           20           20           20           20           20
             31           32           33           34           35
     1            1            1            1            1            1
     2            2            2            2            2            2
     3            3            3            3            3            3
     4            4            4            4            4            4
     5            5            5            5            5            5
     6            6            6            6            6            6
     7            7            7            7            7            7
     8            8            8            8            8            8
     9            9            9            9            9            9
    10           10           10           10           10           10
    11           11           11           11           11           11
    12           12           12           12           12           12
    13           13           13           13           13           13
    14           14           14           14           14           14
    15           15           15           15           15           15
    16           16           16           16           16           16
    17           17           17           17           17           17
    18           18           18           18           18           18
    19           19           19           19           19           19
    20           20           20           20           20           20
             36           37           38           39           40
     1            1            1            1            1            1
     2            2            2            2            2            2
     3            3            3            3            3            3
     4            4            4            4            4            4
     5            5            5            5            5            5
     6            6            6            6            6            6
     7            7            7            7            7            7
     8            8            8            8            8            8
     9            9            9            9            9            9
    10           10           10           10           10           10
    11           11           11           11           11           11
    12           12           12           12           12           12
    13           13           13           13           13           13
    14           14           14           14           14           14
    15           15           15           15           15           15
    16           16           16           16           16           16
    17           17           17           17           17           17
    18           18           18           18           18           18
    19           19           19           19           19           19
    20           20           20           20           20           20
             41           42           43           44           45
     1            1            1            1            1            1
     2            2            2            2            2            2
     3            3            3            3            3            3
     4            4            4            4            4            4
     5            5            5            5            5            5
     6            6            6            6            6            6
     7            7            7            7            7            7
     8            8            8            8            8            8
     9            9            9            9            9            9
    10           10           10           10           10           10
    11           11           11           11           11           11
    12           12           12           12           12           12
    13           13           13           13           13           13
    14           14           14           14           14           14
    15           15           15           15           15           15
    16           16           16           16           16           16
    17           17           17           17           17           17
    18           18           18           18           18           18
    19           19           19           19           19           19
    20           20           20           20           20           20
             46           47           48
     1            1            1            1
     2            2            2            2
     3            3            3            3
     4            4            4            4
     5            5            5            5
     6            6            6            6
     7            7            7            7
     8            8            8            8
     9            9            9            9
    10           10           10           10
    11           11           11           11
    12           12           12           12
    13           13           13           13
    14           14           14           14
    15           15           15           15
    16           16           16           16
    17           17           17           17
    18           18           18           18
    19           19           19           19
    20           20           20           20
 NEqBas: 
              1            2            3            4            5
     1            1            1            1            1            1
     2            2            2            2            2            2
     3            3            3            3            3            3
     4            4            4            4            4            4
     5            5            5            5            5            5
     6            6            6           -6           -6           -6
     7            7           -7            7           -7           -7
     8            8           -8           -8            8           -8
     9            9            9           -9           -9           -9
    10           10          -10           10          -10          -10
    11           11          -11          -11           11          -11
    12           12           12          -12          -12          -12
    13           13          -13           13          -13          -13
    14           14          -14          -14           14          -14
    15           15           15          -15          -15          -15
    16           16          -16           16          -16          -16
    17           17          -17          -17           17          -17
    18           18           18           18           18           18
    19           19          -19           19          -19           19
    20           20           20          -20          -20           20
    21           21           21           21           21           21
    22           22          -22          -22           22           22
    23           23           23           23           23           23
    24           24          -24           24          -24           24
    25           25           25          -25          -25           25
    26           26           26           26           26           26
    27           27          -27          -27           27           27
    28           28           28           28           28           28
    29           29          -29           29          -29           29
    30           30           30          -30          -30           30
    31           31           31           31           31           31
    32           32          -32          -32           32           32
    33           33          -33          -33           33          -33
    34           34           34          -34          -34          -34
    35           35          -35           35          -35          -35
    36           36          -36          -36           36          -36
    37           37           37           37           37          -37
    38           38           38          -38          -38          -38
    39           39          -39           39          -39          -39
    40           40          -40          -40           40          -40
    41           41           41          -41          -41          -41
    42           42          -42           42          -42          -42
    43           43          -43          -43           43          -43
    44           44           44           44           44          -44
    45           45           45          -45          -45          -45
    46           46          -46           46          -46          -46
    47           47           47           47           47           47
    48           48          -48           48          -48           48
    49           49           49          -49          -49           49
    50           50           50           50           50           50
    51           51          -51          -51           51           51
    52           52          -52           52          -52           52
    53           53           53          -53          -53           53
    54           54           54           54           54           54
    55           55          -55          -55           55           55
    56           56           56           56           56           56
    57           57           57          -57          -57          -57
    58           58          -58           58          -58          -58
    59           59          -59          -59           59          -59
    60           60           60           60           60           60
    61           61          -61           61          -61           61
    62           62           62          -62          -62           62
    63           63           63           63           63           63
    64           64          -64          -64           64           64
    65           65          -65          -65           65          -65
    66           66           66          -66          -66          -66
    67           67          -67           67          -67          -67
    68           68          -68          -68           68          -68
    69           69           69           69           69          -69
    70           70           70          -70          -70          -70
    71           71          -71           71          -71          -71
    72           72           72           72           72           72
    73           73          -73           73          -73           73
    74           74           74          -74          -74           74
    75           75           75           75           75           75
    76           76          -76          -76           76           76
    77           77          -77           77          -77           77
    78           78           78          -78          -78           78
    79           79           79           79           79           79
    80           80          -80          -80           80           80
              6            7            8
     1            1            1            1
     2            2            2            2
     3            3            3            3
     4            4            4            4
     5            5            5            5
     6           -6            6            6
     7            7           -7            7
     8            8            8           -8
     9           -9            9            9
    10           10          -10           10
    11           11           11          -11
    12          -12           12           12
    13           13          -13           13
    14           14           14          -14
    15          -15           15           15
    16           16          -16           16
    17           17           17          -17
    18           18           18           18
    19          -19           19          -19
    20           20          -20          -20
    21           21           21           21
    22          -22          -22           22
    23           23           23           23
    24          -24           24          -24
    25           25          -25          -25
    26           26           26           26
    27          -27          -27           27
    28           28           28           28
    29          -29           29          -29
    30           30          -30          -30
    31           31           31           31
    32          -32          -32           32
    33           33           33          -33
    34          -34           34           34
    35           35          -35           35
    36           36           36          -36
    37          -37          -37          -37
    38          -38           38           38
    39           39          -39           39
    40           40           40          -40
    41          -41           41           41
    42           42          -42           42
    43           43           43          -43
    44          -44          -44          -44
    45          -45           45           45
    46           46          -46           46
    47           47           47           47
    48          -48           48          -48
    49           49          -49          -49
    50           50           50           50
    51          -51          -51           51
    52          -52           52          -52
    53           53          -53          -53
    54           54           54           54
    55          -55          -55           55
    56           56           56           56
    57          -57           57           57
    58           58          -58           58
    59           59           59          -59
    60           60           60           60
    61          -61           61          -61
    62           62          -62          -62
    63           63           63           63
    64          -64          -64           64
    65           65           65          -65
    66          -66           66           66
    67           67          -67           67
    68           68           68          -68
    69          -69          -69          -69
    70          -70           70           70
    71           71          -71           71
    72           72           72           72
    73          -73           73          -73
    74           74          -74          -74
    75           75           75           75
    76          -76          -76           76
    77          -77           77          -77
    78           78          -78          -78
    79           79           79           79
    80          -80          -80           80
 There are    20 symmetry adapted basis functions of AG  symmetry.
   1         1   1   1   1   1   1   1   1
   2         2   2   2   2   2   2   2   2
   3         3   3   3   3   3   3   3   3
   4         4   4   4   4   4   4   4   4
   5         5   5   5   5   5   5   5   5
   6        18  18  18  18  18  18  18  18
   7        21  21  21  21  21  21  21  21
   8        23  23  23  23  23  23  23  23
   9        26  26  26  26  26  26  26  26
  10        28  28  28  28  28  28  28  28
  11        31  31  31  31  31  31  31  31
  12        47  47  47  47  47  47  47  47
  13        50  50  50  50  50  50  50  50
  14        54  54  54  54  54  54  54  54
  15        56  56  56  56  56  56  56  56
  16        60  60  60  60  60  60  60  60
  17        63  63  63  63  63  63  63  63
  18        72  72  72  72  72  72  72  72
  19        75  75  75  75  75  75  75  75
  20        79  79  79  79  79  79  79  79
 There are     8 symmetry adapted basis functions of B1G symmetry.
  21        22  22  22  22  22  22  22  22
  22        27  27  27  27  27  27  27  27
  23        32  32  32  32  32  32  32  32
  24        51  51  51  51  51  51  51  51
  25        55  55  55  55  55  55  55  55
  26        64  64  64  64  64  64  64  64
  27        76  76  76  76  76  76  76  76
  28        80  80  80  80  80  80  80  80
 There are     8 symmetry adapted basis functions of B2G symmetry.
  29        19  19  19  19  19  19  19  19
  30        24  24  24  24  24  24  24  24
  31        29  29  29  29  29  29  29  29
  32        48  48  48  48  48  48  48  48
  33        52  52  52  52  52  52  52  52
  34        61  61  61  61  61  61  61  61
  35        73  73  73  73  73  73  73  73
  36        77  77  77  77  77  77  77  77
 There are     8 symmetry adapted basis functions of B3G symmetry.
  37        20  20  20  20  20  20  20  20
  38        25  25  25  25  25  25  25  25
  39        30  30  30  30  30  30  30  30
  40        49  49  49  49  49  49  49  49
  41        53  53  53  53  53  53  53  53
  42        62  62  62  62  62  62  62  62
  43        74  74  74  74  74  74  74  74
  44        78  78  78  78  78  78  78  78
 There are     3 symmetry adapted basis functions of AU  symmetry.
  45        37  37  37  37  37  37  37  37
  46        44  44  44  44  44  44  44  44
  47        69  69  69  69  69  69  69  69
 There are    11 symmetry adapted basis functions of B1U symmetry.
  48         8   8   8   8   8   8   8   8
  49        11  11  11  11  11  11  11  11
  50        14  14  14  14  14  14  14  14
  51        17  17  17  17  17  17  17  17
  52        33  33  33  33  33  33  33  33
  53        36  36  36  36  36  36  36  36
  54        40  40  40  40  40  40  40  40
  55        43  43  43  43  43  43  43  43
  56        59  59  59  59  59  59  59  59
  57        65  65  65  65  65  65  65  65
  58        68  68  68  68  68  68  68  68
 There are    11 symmetry adapted basis functions of B2U symmetry.
  59         7   7   7   7   7   7   7   7
  60        10  10  10  10  10  10  10  10
  61        13  13  13  13  13  13  13  13
  62        16  16  16  16  16  16  16  16
  63        35  35  35  35  35  35  35  35
  64        39  39  39  39  39  39  39  39
  65        42  42  42  42  42  42  42  42
  66        46  46  46  46  46  46  46  46
  67        58  58  58  58  58  58  58  58
  68        67  67  67  67  67  67  67  67
  69        71  71  71  71  71  71  71  71
 There are    11 symmetry adapted basis functions of B3U symmetry.
  70         6   6   6   6   6   6   6   6
  71         9   9   9   9   9   9   9   9
  72        12  12  12  12  12  12  12  12
  73        15  15  15  15  15  15  15  15
  74        34  34  34  34  34  34  34  34
  75        38  38  38  38  38  38  38  38
  76        41  41  41  41  41  41  41  41
  77        45  45  45  45  45  45  45  45
  78        57  57  57  57  57  57  57  57
  79        66  66  66  66  66  66  66  66
  80        70  70  70  70  70  70  70  70
 Order= 1 4 3 2 5 8 7 6
 Reordered character table:
              1            2            3            4            5
     1            1            1            1            1            1
     2            1           -1           -1            1            1
     3            1           -1            1           -1            1
     4            1            1           -1           -1            1
     5            1            1            1            1           -1
     6            1           -1           -1            1           -1
     7            1           -1            1           -1           -1
     8            1            1           -1           -1           -1
              6            7            8
     1            1            1            1
     2           -1           -1            1
     3           -1            1           -1
     4            1           -1           -1
     5           -1           -1           -1
     6            1            1           -1
     7            1           -1            1
     8           -1            1            1
 Integral buffers will be    262144 words long.
 Raffenetti 1 integral format.
 Two-electron integral symmetry is turned on.
    80 basis functions,   127 primitive gaussians,   105 cartesian basis functions
     3 alpha electrons        3 beta electrons
       nuclear repulsion energy         0.0000000000 Hartrees.
 IExCor=   0 DFT=F Ex=HF Corr=None ExCW=0 ScaHFX=  1.000000
 ScaDFX=  1.000000  1.000000  1.000000  1.000000
 IRadAn=      0 IRanWt=     -1 IRanGd=            0 ICorTp=0
 NAtoms=    1 NActive=    1 NUniq=    1 SFac= 1.00D+00 NAtFMM=   60 Big=F
 Leave Link  301 at Thu May 18 17:13:04 2006, MaxMem=   39321600 cpu:       0.0
 (Enter /home/no228/Tools/g03/l302.exe)
 NPDir=0 NMtPBC=     1 NCelOv=     1 NCel=       1 NClECP=     1 NCelD=      1
         NCelK=      1 NCelE2=     1 NClLst=     1 CellRange=     0.0.
 One-electron integrals computed using PRISM.
 Entering OneElI...
 Calculate overlap and kinetic energy integrals
    NBasis =  80  MinDer = 0  MaxDer = 0
 Requested accuracy = 0.1000D-12
 PrsmSu:  NPrtUS=   1 ThrOK=F
 PRISM was handed    39274149 working-precision words and   210 shell-pairs
 *** Overlap *** 
                1             2             3             4             5
      1  0.100000D+01
      2 -0.990409D+00  0.100000D+01
      3  0.474885D+00 -0.547572D+00  0.100000D+01
      4  0.269692D+00 -0.317594D+00  0.855304D+00  0.100000D+01
      5  0.139145D+00 -0.165443D+00  0.554945D+00  0.846252D+00  0.100000D+01
      6  0.000000D+00  0.000000D+00  0.000000D+00  0.000000D+00  0.000000D+00
      7  0.000000D+00  0.000000D+00  0.000000D+00  0.000000D+00  0.000000D+00
      8  0.000000D+00  0.000000D+00  0.000000D+00  0.000000D+00  0.000000D+00
      9  0.000000D+00  0.000000D+00  0.000000D+00  0.000000D+00  0.000000D+00
     10  0.000000D+00  0.000000D+00  0.000000D+00  0.000000D+00  0.000000D+00
     11  0.000000D+00  0.000000D+00  0.000000D+00  0.000000D+00  0.000000D+00
     12  0.000000D+00  0.000000D+00  0.000000D+00  0.000000D+00  0.000000D+00
     13  0.000000D+00  0.000000D+00  0.000000D+00  0.000000D+00  0.000000D+00
     14  0.000000D+00  0.000000D+00  0.000000D+00  0.000000D+00  0.000000D+00
     15  0.000000D+00  0.000000D+00  0.000000D+00  0.000000D+00  0.000000D+00
     16  0.000000D+00  0.000000D+00  0.000000D+00  0.000000D+00  0.000000D+00
     17  0.000000D+00  0.000000D+00  0.000000D+00  0.000000D+00  0.000000D+00
     18  0.000000D+00  0.000000D+00  0.000000D+00  0.000000D+00  0.000000D+00
     19  0.000000D+00  0.000000D+00  0.000000D+00  0.000000D+00  0.000000D+00
     20  0.000000D+00  0.000000D+00  0.000000D+00  0.000000D+00  0.000000D+00
     21  0.000000D+00  0.000000D+00  0.000000D+00  0.000000D+00  0.000000D+00
     22  0.000000D+00  0.000000D+00  0.000000D+00  0.000000D+00  0.000000D+00
     23  0.000000D+00  0.000000D+00  0.000000D+00  0.000000D+00  0.000000D+00
     24  0.000000D+00  0.000000D+00  0.000000D+00  0.000000D+00  0.000000D+00
     25  0.000000D+00  0.000000D+00  0.000000D+00  0.000000D+00  0.000000D+00
     26  0.000000D+00  0.000000D+00  0.000000D+00  0.000000D+00  0.000000D+00
     27  0.000000D+00  0.000000D+00  0.000000D+00  0.000000D+00  0.000000D+00
     28  0.000000D+00  0.000000D+00  0.000000D+00  0.000000D+00  0.000000D+00
     29  0.000000D+00  0.000000D+00  0.000000D+00  0.000000D+00  0.000000D+00
     30  0.000000D+00  0.000000D+00  0.000000D+00  0.000000D+00  0.000000D+00
     31  0.000000D+00  0.000000D+00  0.000000D+00  0.000000D+00  0.000000D+00
     32  0.000000D+00  0.000000D+00  0.000000D+00  0.000000D+00  0.000000D+00
     33  0.000000D+00  0.000000D+00  0.000000D+00  0.000000D+00  0.000000D+00
     34  0.000000D+00  0.000000D+00  0.000000D+00  0.000000D+00  0.000000D+00
     35  0.000000D+00  0.000000D+00  0.000000D+00  0.000000D+00  0.000000D+00
     36  0.000000D+00  0.000000D+00  0.000000D+00  0.000000D+00  0.000000D+00
     37  0.000000D+00  0.000000D+00  0.000000D+00  0.000000D+00  0.000000D+00
     38  0.000000D+00  0.000000D+00  0.000000D+00  0.000000D+00  0.000000D+00
     39  0.000000D+00  0.000000D+00  0.000000D+00  0.000000D+00  0.000000D+00
     40  0.000000D+00  0.000000D+00  0.000000D+00  0.000000D+00  0.000000D+00
     41  0.000000D+00  0.000000D+00  0.000000D+00  0.000000D+00  0.000000D+00
     42  0.000000D+00  0.000000D+00  0.000000D+00  0.000000D+00  0.000000D+00
     43  0.000000D+00  0.000000D+00  0.000000D+00  0.000000D+00  0.000000D+00
     44  0.000000D+00  0.000000D+00  0.000000D+00  0.000000D+00  0.000000D+00
     45  0.000000D+00  0.000000D+00  0.000000D+00  0.000000D+00  0.000000D+00
     46  0.000000D+00  0.000000D+00  0.000000D+00  0.000000D+00  0.000000D+00
     47  0.000000D+00  0.000000D+00  0.000000D+00  0.000000D+00  0.000000D+00
     48  0.000000D+00  0.000000D+00  0.000000D+00  0.000000D+00  0.000000D+00
     49  0.000000D+00  0.000000D+00  0.000000D+00  0.000000D+00  0.000000D+00
     50  0.000000D+00  0.000000D+00  0.000000D+00  0.000000D+00  0.000000D+00
     51  0.000000D+00  0.000000D+00  0.000000D+00  0.000000D+00  0.000000D+00
     52  0.000000D+00  0.000000D+00  0.000000D+00  0.000000D+00  0.000000D+00
     53  0.000000D+00  0.000000D+00  0.000000D+00  0.000000D+00  0.000000D+00
     54  0.000000D+00  0.000000D+00  0.000000D+00  0.000000D+00  0.000000D+00
     55  0.000000D+00  0.000000D+00  0.000000D+00  0.000000D+00  0.000000D+00
     56  0.680465D-01 -0.812260D-01  0.301325D+00  0.537575D+00  0.839181D+00
     57  0.000000D+00  0.000000D+00  0.000000D+00  0.000000D+00  0.000000D+00
     58  0.000000D+00  0.000000D+00  0.000000D+00  0.000000D+00  0.000000D+00
     59  0.000000D+00  0.000000D+00  0.000000D+00  0.000000D+00  0.000000D+00
     60  0.000000D+00  0.000000D+00  0.000000D+00  0.000000D+00  0.000000D+00
     61  0.000000D+00  0.000000D+00  0.000000D+00  0.000000D+00  0.000000D+00
     62  0.000000D+00  0.000000D+00  0.000000D+00  0.000000D+00  0.000000D+00
     63  0.000000D+00  0.000000D+00  0.000000D+00  0.000000D+00  0.000000D+00
     64  0.000000D+00  0.000000D+00  0.000000D+00  0.000000D+00  0.000000D+00
     65  0.000000D+00  0.000000D+00  0.000000D+00  0.000000D+00  0.000000D+00
     66  0.000000D+00  0.000000D+00  0.000000D+00  0.000000D+00  0.000000D+00
     67  0.000000D+00  0.000000D+00  0.000000D+00  0.000000D+00  0.000000D+00
     68  0.000000D+00  0.000000D+00  0.000000D+00  0.000000D+00  0.000000D+00
     69  0.000000D+00  0.000000D+00  0.000000D+00  0.000000D+00  0.000000D+00
     70  0.000000D+00  0.000000D+00  0.000000D+00  0.000000D+00  0.000000D+00
     71  0.000000D+00  0.000000D+00  0.000000D+00  0.000000D+00  0.000000D+00
     72  0.000000D+00  0.000000D+00  0.000000D+00  0.000000D+00  0.000000D+00
     73  0.000000D+00  0.000000D+00  0.000000D+00  0.000000D+00  0.000000D+00
     74  0.000000D+00  0.000000D+00  0.000000D+00  0.000000D+00  0.000000D+00
     75  0.000000D+00  0.000000D+00  0.000000D+00  0.000000D+00  0.000000D+00
     76  0.000000D+00  0.000000D+00  0.000000D+00  0.000000D+00  0.000000D+00
     77  0.000000D+00  0.000000D+00  0.000000D+00  0.000000D+00  0.000000D+00
     78  0.000000D+00  0.000000D+00  0.000000D+00  0.000000D+00  0.000000D+00
     79  0.000000D+00  0.000000D+00  0.000000D+00  0.000000D+00  0.000000D+00
     80  0.000000D+00  0.000000D+00  0.000000D+00  0.000000D+00  0.000000D+00
                6             7             8             9            10
      6  0.100000D+01
      7  0.000000D+00  0.100000D+01
      8  0.000000D+00  0.000000D+00  0.100000D+01
      9  0.653299D+00  0.000000D+00  0.000000D+00  0.100000D+01
     10  0.000000D+00  0.653299D+00  0.000000D+00  0.000000D+00  0.100000D+01
     11  0.000000D+00  0.000000D+00  0.653299D+00  0.000000D+00  0.000000D+00
     12  0.274917D+00  0.000000D+00  0.000000D+00  0.725760D+00  0.000000D+00
     13  0.000000D+00  0.274917D+00  0.000000D+00  0.000000D+00  0.725760D+00
     14  0.000000D+00  0.000000D+00  0.274917D+00  0.000000D+00  0.000000D+00
     15  0.877548D-01  0.000000D+00  0.000000D+00  0.310357D+00  0.000000D+00
     16  0.000000D+00  0.877548D-01  0.000000D+00  0.000000D+00  0.310357D+00
     17  0.000000D+00  0.000000D+00  0.877548D-01  0.000000D+00  0.000000D+00
     18  0.000000D+00  0.000000D+00  0.000000D+00  0.000000D+00  0.000000D+00
     19  0.000000D+00  0.000000D+00  0.000000D+00  0.000000D+00  0.000000D+00
     20  0.000000D+00  0.000000D+00  0.000000D+00  0.000000D+00  0.000000D+00
     21  0.000000D+00  0.000000D+00  0.000000D+00  0.000000D+00  0.000000D+00
     22  0.000000D+00  0.000000D+00  0.000000D+00  0.000000D+00  0.000000D+00
     23  0.000000D+00  0.000000D+00  0.000000D+00  0.000000D+00  0.000000D+00
     24  0.000000D+00  0.000000D+00  0.000000D+00  0.000000D+00  0.000000D+00
     25  0.000000D+00  0.000000D+00  0.000000D+00  0.000000D+00  0.000000D+00
     26  0.000000D+00  0.000000D+00  0.000000D+00  0.000000D+00  0.000000D+00
     27  0.000000D+00  0.000000D+00  0.000000D+00  0.000000D+00  0.000000D+00
     28  0.000000D+00  0.000000D+00  0.000000D+00  0.000000D+00  0.000000D+00
     29  0.000000D+00  0.000000D+00  0.000000D+00  0.000000D+00  0.000000D+00
     30  0.000000D+00  0.000000D+00  0.000000D+00  0.000000D+00  0.000000D+00
     31  0.000000D+00  0.000000D+00  0.000000D+00  0.000000D+00  0.000000D+00
     32  0.000000D+00  0.000000D+00  0.000000D+00  0.000000D+00  0.000000D+00
     33  0.000000D+00  0.000000D+00  0.000000D+00  0.000000D+00  0.000000D+00
     34  0.000000D+00  0.000000D+00  0.000000D+00  0.000000D+00  0.000000D+00
     35  0.000000D+00  0.000000D+00  0.000000D+00  0.000000D+00  0.000000D+00
     36  0.000000D+00  0.000000D+00  0.000000D+00  0.000000D+00  0.000000D+00
     37  0.000000D+00  0.000000D+00  0.000000D+00  0.000000D+00  0.000000D+00
     38  0.000000D+00  0.000000D+00  0.000000D+00  0.000000D+00  0.000000D+00
     39  0.000000D+00  0.000000D+00  0.000000D+00  0.000000D+00  0.000000D+00
     40  0.000000D+00  0.000000D+00  0.000000D+00  0.000000D+00  0.000000D+00
     41  0.000000D+00  0.000000D+00  0.000000D+00  0.000000D+00  0.000000D+00
     42  0.000000D+00  0.000000D+00  0.000000D+00  0.000000D+00  0.000000D+00
     43  0.000000D+00  0.000000D+00  0.000000D+00  0.000000D+00  0.000000D+00
     44  0.000000D+00  0.000000D+00  0.000000D+00  0.000000D+00  0.000000D+00
     45  0.000000D+00  0.000000D+00  0.000000D+00  0.000000D+00  0.000000D+00
     46  0.000000D+00  0.000000D+00  0.000000D+00  0.000000D+00  0.000000D+00
     47  0.000000D+00  0.000000D+00  0.000000D+00  0.000000D+00  0.000000D+00
     48  0.000000D+00  0.000000D+00  0.000000D+00  0.000000D+00  0.000000D+00
     49  0.000000D+00  0.000000D+00  0.000000D+00  0.000000D+00  0.000000D+00
     50  0.000000D+00  0.000000D+00  0.000000D+00  0.000000D+00  0.000000D+00
     51  0.000000D+00  0.000000D+00  0.000000D+00  0.000000D+00  0.000000D+00
     52  0.000000D+00  0.000000D+00  0.000000D+00  0.000000D+00  0.000000D+00
     53  0.000000D+00  0.000000D+00  0.000000D+00  0.000000D+00  0.000000D+00
     54  0.000000D+00  0.000000D+00  0.000000D+00  0.000000D+00  0.000000D+00
     55  0.000000D+00  0.000000D+00  0.000000D+00  0.000000D+00  0.000000D+00
     56  0.000000D+00  0.000000D+00  0.000000D+00  0.000000D+00  0.000000D+00
     57  0.225585D-01  0.000000D+00  0.000000D+00  0.906096D-01  0.000000D+00
     58  0.000000D+00  0.225585D-01  0.000000D+00  0.000000D+00  0.906096D-01
     59  0.000000D+00  0.000000D+00  0.225585D-01  0.000000D+00  0.000000D+00
     60  0.000000D+00  0.000000D+00  0.000000D+00  0.000000D+00  0.000000D+00
     61  0.000000D+00  0.000000D+00  0.000000D+00  0.000000D+00  0.000000D+00
     62  0.000000D+00  0.000000D+00  0.000000D+00  0.000000D+00  0.000000D+00
     63  0.000000D+00  0.000000D+00  0.000000D+00  0.000000D+00  0.000000D+00
     64  0.000000D+00  0.000000D+00  0.000000D+00  0.000000D+00  0.000000D+00
     65  0.000000D+00  0.000000D+00  0.000000D+00  0.000000D+00  0.000000D+00
     66  0.000000D+00  0.000000D+00  0.000000D+00  0.000000D+00  0.000000D+00
     67  0.000000D+00  0.000000D+00  0.000000D+00  0.000000D+00  0.000000D+00
     68  0.000000D+00  0.000000D+00  0.000000D+00  0.000000D+00  0.000000D+00
     69  0.000000D+00  0.000000D+00  0.000000D+00  0.000000D+00  0.000000D+00
     70  0.000000D+00  0.000000D+00  0.000000D+00  0.000000D+00  0.000000D+00
     71  0.000000D+00  0.000000D+00  0.000000D+00  0.000000D+00  0.000000D+00
     72  0.000000D+00  0.000000D+00  0.000000D+00  0.000000D+00  0.000000D+00
     73  0.000000D+00  0.000000D+00  0.000000D+00  0.000000D+00  0.000000D+00
     74  0.000000D+00  0.000000D+00  0.000000D+00  0.000000D+00  0.000000D+00
     75  0.000000D+00  0.000000D+00  0.000000D+00  0.000000D+00  0.000000D+00
     76  0.000000D+00  0.000000D+00  0.000000D+00  0.000000D+00  0.000000D+00
     77  0.000000D+00  0.000000D+00  0.000000D+00  0.000000D+00  0.000000D+00
     78  0.000000D+00  0.000000D+00  0.000000D+00  0.000000D+00  0.000000D+00
     79  0.000000D+00  0.000000D+00  0.000000D+00  0.000000D+00  0.000000D+00
     80  0.000000D+00  0.000000D+00  0.000000D+00  0.000000D+00  0.000000D+00
               11            12            13            14            15
     11  0.100000D+01
     12  0.000000D+00  0.100000D+01
     13  0.000000D+00  0.000000D+00  0.100000D+01
     14  0.725760D+00  0.000000D+00  0.000000D+00  0.100000D+01
     15  0.000000D+00  0.717229D+00  0.000000D+00  0.000000D+00  0.100000D+01
     16  0.000000D+00  0.000000D+00  0.717229D+00  0.000000D+00  0.000000D+00
     17  0.310357D+00  0.000000D+00  0.000000D+00  0.717229D+00  0.000000D+00
     18  0.000000D+00  0.000000D+00  0.000000D+00  0.000000D+00  0.000000D+00
     19  0.000000D+00  0.000000D+00  0.000000D+00  0.000000D+00  0.000000D+00
     20  0.000000D+00  0.000000D+00  0.000000D+00  0.000000D+00  0.000000D+00
     21  0.000000D+00  0.000000D+00  0.000000D+00  0.000000D+00  0.000000D+00
     22  0.000000D+00  0.000000D+00  0.000000D+00  0.000000D+00  0.000000D+00
     23  0.000000D+00  0.000000D+00  0.000000D+00  0.000000D+00  0.000000D+00
     24  0.000000D+00  0.000000D+00  0.000000D+00  0.000000D+00  0.000000D+00
     25  0.000000D+00  0.000000D+00  0.000000D+00  0.000000D+00  0.000000D+00
     26  0.000000D+00  0.000000D+00  0.000000D+00  0.000000D+00  0.000000D+00
     27  0.000000D+00  0.000000D+00  0.000000D+00  0.000000D+00  0.000000D+00
     28  0.000000D+00  0.000000D+00  0.000000D+00  0.000000D+00  0.000000D+00
     29  0.000000D+00  0.000000D+00  0.000000D+00  0.000000D+00  0.000000D+00
     30  0.000000D+00  0.000000D+00  0.000000D+00  0.000000D+00  0.000000D+00
     31  0.000000D+00  0.000000D+00  0.000000D+00  0.000000D+00  0.000000D+00
     32  0.000000D+00  0.000000D+00  0.000000D+00  0.000000D+00  0.000000D+00
     33  0.000000D+00  0.000000D+00  0.000000D+00  0.000000D+00  0.000000D+00
     34  0.000000D+00  0.000000D+00  0.000000D+00  0.000000D+00  0.000000D+00
     35  0.000000D+00  0.000000D+00  0.000000D+00  0.000000D+00  0.000000D+00
     36  0.000000D+00  0.000000D+00  0.000000D+00  0.000000D+00  0.000000D+00
     37  0.000000D+00  0.000000D+00  0.000000D+00  0.000000D+00  0.000000D+00
     38  0.000000D+00  0.000000D+00  0.000000D+00  0.000000D+00  0.000000D+00
     39  0.000000D+00  0.000000D+00  0.000000D+00  0.000000D+00  0.000000D+00
     40  0.000000D+00  0.000000D+00  0.000000D+00  0.000000D+00  0.000000D+00
     41  0.000000D+00  0.000000D+00  0.000000D+00  0.000000D+00  0.000000D+00
     42  0.000000D+00  0.000000D+00  0.000000D+00  0.000000D+00  0.000000D+00
     43  0.000000D+00  0.000000D+00  0.000000D+00  0.000000D+00  0.000000D+00
     44  0.000000D+00  0.000000D+00  0.000000D+00  0.000000D+00  0.000000D+00
     45  0.000000D+00  0.000000D+00  0.000000D+00  0.000000D+00  0.000000D+00
     46  0.000000D+00  0.000000D+00  0.000000D+00  0.000000D+00  0.000000D+00
     47  0.000000D+00  0.000000D+00  0.000000D+00  0.000000D+00  0.000000D+00
     48  0.000000D+00  0.000000D+00  0.000000D+00  0.000000D+00  0.000000D+00
     49  0.000000D+00  0.000000D+00  0.000000D+00  0.000000D+00  0.000000D+00
     50  0.000000D+00  0.000000D+00  0.000000D+00  0.000000D+00  0.000000D+00
     51  0.000000D+00  0.000000D+00  0.000000D+00  0.000000D+00  0.000000D+00
     52  0.000000D+00  0.000000D+00  0.000000D+00  0.000000D+00  0.000000D+00
     53  0.000000D+00  0.000000D+00  0.000000D+00  0.000000D+00  0.000000D+00
     54  0.000000D+00  0.000000D+00  0.000000D+00  0.000000D+00  0.000000D+00
     55  0.000000D+00  0.000000D+00  0.000000D+00  0.000000D+00  0.000000D+00
[...]
  46       14F-3        0.00000   0.00000   0.00000   0.00000   0.00000
  47       15G 0        0.00000   0.00000   0.00000   0.00000   0.00000
  48       15G+1        0.00000   0.00000   0.00000   0.00000   0.00000
  49       15G-1        0.00000   0.00000   0.00000   0.00000   0.00000
  50       15G+2        0.00000   0.00000   0.00000   0.00000   0.00000
  51       15G-2        0.00000   0.00000   0.00000   0.00000   0.00000
  52       15G+3        0.00000   0.00000   0.00000   0.00000   0.00000
  53       15G-3        0.00000   0.00000   0.00000   0.00000   0.00000
  54       15G+4        0.00000   0.00000   0.00000   0.00000   0.00000
  55       15G-4        0.00000   0.00000   0.00000   0.00000   0.00000
  56       16S          0.00000   0.00000   0.00000   0.00000   0.00000
  57       17PX         0.00000   0.00000   0.00000   0.00000   0.00000
  58       17PY         0.00000   0.00000   0.00000   0.00000   0.00000
  59       17PZ         0.00000   0.00000   0.00000   0.00000   0.00000
  60       18D 0        0.00000   0.00000   0.00000   0.00000   0.00000
  61       18D+1        0.00000   0.00000   0.00000   0.00000   0.00000
  62       18D-1        0.00000   0.00000   0.00000   0.00000   0.00000
  63       18D+2        0.00000   0.00000   0.00000   0.00000   0.00000
  64       18D-2        0.00000   0.00000   0.00000   0.00000   0.00000
  65       19F 0        0.00000   0.00000   0.00000   0.00000   0.00000
  66       19F+1        0.00003   0.00000   0.00000   0.00000   0.00000
  67       19F-1        0.00000   0.00000   0.00000   0.00000   0.00000
  68       19F+2        0.00000   0.00000   0.00000   0.00000   0.00000
  69       19F-2        0.00000   0.00000   0.00000   0.00000   0.00000
  70       19F+3        0.00000   0.00000   0.00000   0.00000   0.00005
  71       19F-3        0.00000   0.00000   0.00000   0.00000   0.00000
  72       20G 0        0.00000   0.00000   0.00000   0.00000   0.00000
  73       20G+1        0.00000   0.00000   0.00000   0.00000   0.00000
  74       20G-1        0.00000   0.00000   0.00000   0.00000   0.00000
  75       20G+2        0.00000   0.00000   0.00000   0.00000   0.00000
  76       20G-2        0.00000   0.00000   0.00000   0.00000   0.00000
  77       20G+3        0.00000   0.00000   0.00000   0.00000   0.00000
  78       20G-3        0.00000   0.00000   0.00000   0.00000   0.00000
  79       20G+4        0.00000   0.00000   0.00000   0.00000   0.00000
  80       20G-4        0.00000   0.00000   0.00000   0.00000   0.00000
                          46        47        48        49        50
  46       14F-3        0.00000
  47       15G 0        0.00000   0.00000
  48       15G+1        0.00000   0.00000   0.00000
  49       15G-1        0.00000   0.00000   0.00000   0.00000
  50       15G+2        0.00000   0.00000   0.00000   0.00000   0.00000
  51       15G-2        0.00000   0.00000   0.00000   0.00000   0.00000
  52       15G+3        0.00000   0.00000   0.00000   0.00000   0.00000
  53       15G-3        0.00000   0.00000   0.00000   0.00000   0.00000
  54       15G+4        0.00000   0.00000   0.00000   0.00000   0.00000
  55       15G-4        0.00000   0.00000   0.00000   0.00000   0.00000
  56       16S          0.00000   0.00000   0.00000   0.00000   0.00000
  57       17PX         0.00000   0.00000   0.00000   0.00000   0.00000
  58       17PY         0.00000   0.00000   0.00000   0.00000   0.00000
  59       17PZ         0.00000   0.00000   0.00000   0.00000   0.00000
  60       18D 0        0.00000   0.00000   0.00000   0.00000   0.00000
  61       18D+1        0.00000   0.00000   0.00000   0.00000   0.00000
  62       18D-1        0.00000   0.00000   0.00000   0.00000   0.00000
  63       18D+2        0.00000   0.00000   0.00000   0.00000   0.00000
  64       18D-2        0.00000   0.00000   0.00000   0.00000   0.00000
  65       19F 0        0.00000   0.00000   0.00000   0.00000   0.00000
  66       19F+1        0.00000   0.00000   0.00000   0.00000   0.00000
  67       19F-1        0.00000   0.00000   0.00000   0.00000   0.00000
  68       19F+2        0.00000   0.00000   0.00000   0.00000   0.00000
  69       19F-2        0.00000   0.00000   0.00000   0.00000   0.00000
  70       19F+3        0.00000   0.00000   0.00000   0.00000   0.00000
  71       19F-3        0.00000   0.00000   0.00000   0.00000   0.00000
  72       20G 0        0.00000   0.00000   0.00000   0.00000   0.00000
  73       20G+1        0.00000   0.00000   0.00000   0.00000   0.00000
  74       20G-1        0.00000   0.00000   0.00000   0.00000   0.00000
  75       20G+2        0.00000   0.00000   0.00000   0.00000   0.00000
  76       20G-2        0.00000   0.00000   0.00000   0.00000   0.00000
  77       20G+3        0.00000   0.00000   0.00000   0.00000   0.00000
  78       20G-3        0.00000   0.00000   0.00000   0.00000   0.00000
  79       20G+4        0.00000   0.00000   0.00000   0.00000   0.00000
  80       20G-4        0.00000   0.00000   0.00000   0.00000   0.00000
                          51        52        53        54        55
  51       15G-2        0.00000
  52       15G+3        0.00000   0.00000
  53       15G-3        0.00000   0.00000   0.00000
  54       15G+4        0.00000   0.00000   0.00000   0.00000
  55       15G-4        0.00000   0.00000   0.00000   0.00000   0.00000
  56       16S          0.00000   0.00000   0.00000   0.00000   0.00000
  57       17PX         0.00000   0.00000   0.00000   0.00000   0.00000
  58       17PY         0.00000   0.00000   0.00000   0.00000   0.00000
  59       17PZ         0.00000   0.00000   0.00000   0.00000   0.00000
  60       18D 0        0.00000   0.00000   0.00000   0.00000   0.00000
  61       18D+1        0.00000   0.00000   0.00000   0.00000   0.00000
  62       18D-1        0.00000   0.00000   0.00000   0.00000   0.00000
  63       18D+2        0.00000   0.00000   0.00000   0.00000   0.00000
  64       18D-2        0.00000   0.00000   0.00000   0.00000   0.00000
  65       19F 0        0.00000   0.00000   0.00000   0.00000   0.00000
  66       19F+1        0.00000   0.00000   0.00000   0.00000   0.00000
  67       19F-1        0.00000   0.00000   0.00000   0.00000   0.00000
  68       19F+2        0.00000   0.00000   0.00000   0.00000   0.00000
  69       19F-2        0.00000   0.00000   0.00000   0.00000   0.00000
  70       19F+3        0.00000   0.00000   0.00000   0.00000   0.00000
  71       19F-3        0.00000   0.00000   0.00000   0.00000   0.00000
  72       20G 0        0.00000   0.00000   0.00000   0.00000   0.00000
  73       20G+1        0.00000   0.00000   0.00000   0.00000   0.00000
  74       20G-1        0.00000   0.00000   0.00000   0.00000   0.00000
  75       20G+2        0.00000   0.00000   0.00000   0.00000   0.00000
  76       20G-2        0.00000   0.00000   0.00000   0.00000   0.00000
  77       20G+3        0.00000   0.00000   0.00000   0.00000   0.00000
  78       20G-3        0.00000   0.00000   0.00000   0.00000   0.00000
  79       20G+4        0.00000   0.00000   0.00000   0.00000   0.00000
  80       20G-4        0.00000   0.00000   0.00000   0.00000   0.00000
                          56        57        58        59        60
  56       16S          0.00002
  57       17PX         0.00000   0.00115
  58       17PY         0.00000   0.00000   0.00000
  59       17PZ         0.00000   0.00000   0.00000   0.00000
  60       18D 0        0.00000   0.00000   0.00000   0.00000   0.00001
  61       18D+1        0.00000   0.00000   0.00000   0.00000   0.00000
  62       18D-1        0.00000   0.00000   0.00000   0.00000   0.00000
  63       18D+2        0.00000   0.00000   0.00000   0.00000   0.00000
  64       18D-2        0.00000   0.00000   0.00000   0.00000   0.00000
  65       19F 0        0.00000   0.00000   0.00000   0.00000   0.00000
  66       19F+1        0.00000   0.00000   0.00000   0.00000   0.00000
  67       19F-1        0.00000   0.00000   0.00000   0.00000   0.00000
  68       19F+2        0.00000   0.00000   0.00000   0.00000   0.00000
  69       19F-2        0.00000   0.00000   0.00000   0.00000   0.00000
  70       19F+3        0.00000   0.00000   0.00000   0.00000   0.00000
  71       19F-3        0.00000   0.00000   0.00000   0.00000   0.00000
  72       20G 0        0.00000   0.00000   0.00000   0.00000   0.00000
  73       20G+1        0.00000   0.00000   0.00000   0.00000   0.00000
  74       20G-1        0.00000   0.00000   0.00000   0.00000   0.00000
  75       20G+2        0.00000   0.00000   0.00000   0.00000   0.00000
  76       20G-2        0.00000   0.00000   0.00000   0.00000   0.00000
  77       20G+3        0.00000   0.00000   0.00000   0.00000   0.00000
  78       20G-3        0.00000   0.00000   0.00000   0.00000   0.00000
  79       20G+4        0.00000   0.00000   0.00000   0.00000   0.00000
  80       20G-4        0.00000   0.00000   0.00000   0.00000   0.00000
                          61        62        63        64        65
  61       18D+1        0.00000
  62       18D-1        0.00000   0.00000
  63       18D+2        0.00000   0.00000   0.00003
  64       18D-2        0.00000   0.00000   0.00000   0.00000
  65       19F 0        0.00000   0.00000   0.00000   0.00000   0.00000
  66       19F+1        0.00000   0.00000   0.00000   0.00000   0.00000
  67       19F-1        0.00000   0.00000   0.00000   0.00000   0.00000
  68       19F+2        0.00000   0.00000   0.00000   0.00000   0.00000
  69       19F-2        0.00000   0.00000   0.00000   0.00000   0.00000
  70       19F+3        0.00000   0.00000   0.00000   0.00000   0.00000
  71       19F-3        0.00000   0.00000   0.00000   0.00000   0.00000
  72       20G 0        0.00000   0.00000   0.00000   0.00000   0.00000
  73       20G+1        0.00000   0.00000   0.00000   0.00000   0.00000
  74       20G-1        0.00000   0.00000   0.00000   0.00000   0.00000
  75       20G+2        0.00000   0.00000   0.00000   0.00000   0.00000
  76       20G-2        0.00000   0.00000   0.00000   0.00000   0.00000
  77       20G+3        0.00000   0.00000   0.00000   0.00000   0.00000
  78       20G-3        0.00000   0.00000   0.00000   0.00000   0.00000
  79       20G+4        0.00000   0.00000   0.00000   0.00000   0.00000
  80       20G-4        0.00000   0.00000   0.00000   0.00000   0.00000
                          66        67        68        69        70
  66       19F+1        0.00004
  67       19F-1        0.00000   0.00000
  68       19F+2        0.00000   0.00000   0.00000
  69       19F-2        0.00000   0.00000   0.00000   0.00000
  70       19F+3        0.00000   0.00000   0.00000   0.00000   0.00007
  71       19F-3        0.00000   0.00000   0.00000   0.00000   0.00000
  72       20G 0        0.00000   0.00000   0.00000   0.00000   0.00000
  73       20G+1        0.00000   0.00000   0.00000   0.00000   0.00000
  74       20G-1        0.00000   0.00000   0.00000   0.00000   0.00000
  75       20G+2        0.00000   0.00000   0.00000   0.00000   0.00000
  76       20G-2        0.00000   0.00000   0.00000   0.00000   0.00000
  77       20G+3        0.00000   0.00000   0.00000   0.00000   0.00000
  78       20G-3        0.00000   0.00000   0.00000   0.00000   0.00000
  79       20G+4        0.00000   0.00000   0.00000   0.00000   0.00000
  80       20G-4        0.00000   0.00000   0.00000   0.00000   0.00000
                          71        72        73        74        75
  71       19F-3        0.00000
  72       20G 0        0.00000   0.00000
  73       20G+1        0.00000   0.00000   0.00000
  74       20G-1        0.00000   0.00000   0.00000   0.00000
  75       20G+2        0.00000   0.00000   0.00000   0.00000   0.00000
  76       20G-2        0.00000   0.00000   0.00000   0.00000   0.00000
  77       20G+3        0.00000   0.00000   0.00000   0.00000   0.00000
  78       20G-3        0.00000   0.00000   0.00000   0.00000   0.00000
  79       20G+4        0.00000   0.00000   0.00000   0.00000   0.00000
  80       20G-4        0.00000   0.00000   0.00000   0.00000   0.00000
                          76        77        78        79        80
  76       20G-2        0.00000
  77       20G+3        0.00000   0.00000
  78       20G-3        0.00000   0.00000   0.00000
  79       20G+4        0.00000   0.00000   0.00000   0.00000
  80       20G-4        0.00000   0.00000   0.00000   0.00000   0.00000
     Gross orbital populations:
                           1
   1 1   C  1S          1.98655
   2        2S         -0.02989
   3        3S          0.43669
   4        4S          1.12751
   5        5S          0.47522
   6        6PX         0.17548
   7        6PY         0.00000
   8        6PZ         0.00000
   9        7PX         0.55137
  10        7PY         0.00000
  11        7PZ         0.00000
  12        8PX         0.82866
  13        8PY         0.00000
  14        8PZ         0.00000
  15        9PX         0.42583
  16        9PY         0.00000
  17        9PZ         0.00000
  18       10D 0        0.00000
  19       10D+1        0.00000
  20       10D-1        0.00000
  21       10D+2        0.00001
  22       10D-2        0.00000
  23       11D 0        0.00000
  24       11D+1        0.00000
  25       11D-1        0.00000
  26       11D+2       -0.00001
  27       11D-2        0.00000
  28       12D 0        0.00005
  29       12D+1        0.00000
  30       12D-1        0.00000
  31       12D+2        0.00014
  32       12D-2        0.00000
  33       13F 0        0.00000
  34       13F+1        0.00003
  35       13F-1        0.00000
  36       13F+2        0.00000
  37       13F-2        0.00000
  38       13F+3        0.00005
  39       13F-3        0.00000
  40       14F 0        0.00000
  41       14F+1        0.00011
  42       14F-1        0.00000
  43       14F+2        0.00000
  44       14F-2        0.00000
  45       14F+3        0.00019
  46       14F-3        0.00000
  47       15G 0        0.00000
  48       15G+1        0.00000
  49       15G-1        0.00000
  50       15G+2        0.00000
  51       15G-2        0.00000
  52       15G+3        0.00000
  53       15G-3        0.00000
  54       15G+4        0.00000
  55       15G-4        0.00000
  56       16S          0.00363
  57       17PX         0.01806
  58       17PY         0.00000
  59       17PZ         0.00000
  60       18D 0        0.00002
  61       18D+1        0.00000
  62       18D-1        0.00000
  63       18D+2        0.00006
  64       18D-2        0.00000
  65       19F 0        0.00000
  66       19F+1        0.00008
  67       19F-1        0.00000
  68       19F+2        0.00000
  69       19F-2        0.00000
  70       19F+3        0.00013
  71       19F-3        0.00000
  72       20G 0        0.00000
  73       20G+1        0.00000
  74       20G-1        0.00000
  75       20G+2        0.00000
  76       20G-2        0.00000
  77       20G+3        0.00000
  78       20G-3        0.00000
  79       20G+4        0.00000
  80       20G-4        0.00000
          Condensed to atoms (all electrons):
              1
     1  C    6.000000
 Mulliken atomic charges:
              1
     1  C    0.000000
 Sum of Mulliken charges=   0.00000
 Atomic charges with hydrogens summed into heavy atoms:
              1
     1  C    0.000000
 Sum of Mulliken charges=   0.00000
 N-N= 0.000000000000D+00 E-N=-8.791467178035D+01  KE= 3.760349044287D+01
 Symmetry AG   KE= 3.523607535765D+01
 Symmetry B1G  KE= 0.000000000000D+00
 Symmetry B2G  KE= 0.000000000000D+00
 Symmetry B3G  KE= 0.000000000000D+00
 Symmetry AU   KE= 0.000000000000D+00
 Symmetry B1U  KE= 0.000000000000D+00
 Symmetry B2U  KE= 0.000000000000D+00
 Symmetry B3U  KE= 2.367415085224D+00
 Orbital energies and kinetic energies (alpha):
                           1         2
       1  (A1G)--O    -11.36535  16.05616
       2  O            -0.72565   1.56188
       3  O            -0.35861   1.18371
       4  V             0.01877   0.50819
       5  V             0.01877   0.50819
       6  V             0.08341   0.18117
       7  V             0.08989   0.13930
       8  V             0.10820   0.44849
       9  V             0.10820   0.44849
      10  (T2G)--V      0.23236   0.25188
      11  V             0.23236   0.25188
      12  (T2G)--V      0.24162   0.25224
      13  (T2G)--V      0.24162   0.25224
      14  V             0.24539   0.25206
      15  V             0.44525   0.85530
      16  V             0.46392   1.07803
      17  V             0.46392   1.07803
      18  V             0.50320   1.05155
      19  V             0.74412   0.78857
      20  V             0.74412   0.78857
      21  V             0.76223   0.78836
      22  (A2U)--V      0.76223   0.78836
      23  V             0.77353   0.78788
      24  V             0.77353   0.78788
      25  V             0.77561   0.93484
      26  V             0.77561   0.93484
      27  V             0.77739   0.78754
      28  V             0.79109   0.93804
      29  V             0.79109   0.93804
      30  V             0.79837   0.93911
      31  V             1.59132   3.01172
      32  V             1.59132   3.01172
      33  V             1.60843   2.91379
      34  V             2.08995   2.20598
      35  V             2.08995   2.20598
      36  V             2.10747   4.77826
      37  V             2.11828   2.20583
      38  V             2.11828   2.20583
      39  V             2.13856   2.20538
      40  V             2.13856   2.20538
      41  V             2.15075   2.20496
      42  V             2.15075   2.20496
      43  V             2.15482   2.20484
      44  V             2.19716   2.83019
      45  V             2.19716   2.83019
      46  V             2.23138   2.83094
      47  V             2.23138   2.83094
      48  V             2.24463   2.83747
      49  V             2.24510   2.50354
      50  V             2.24510   2.50354
      51  V             2.28305   2.50355
      52  (A2U)--V      2.28305   2.50355
      53  V             2.30656   2.50306
      54  V             2.30656   2.50306
      55  V             2.31456   2.50270
      56  V             5.76687  10.82241
      57  V             5.76687  10.82241
      58  V             5.81396  10.77621
      59  V             5.87376   6.44648
      60  V             5.87376   6.44648
      61  V             5.92102   6.44664
      62  V             5.92102   6.44664
      63  V             5.95468   6.44652
      64  V             5.95468   6.44652
      65  V             5.97485   6.44630
      66  V             5.97485   6.44630
      67  V             5.98157   6.44620
      68  V             6.32784   8.37412
      69  V             6.32784   8.37412
      70  V             6.38259   8.37045
      71  V             6.38259   8.37045
      72  V             6.40115   8.36893
      73  V             6.41795   7.56289
      74  V             6.41795   7.56289
      75  V             6.47286   7.56309
      76  (A2U)--V      6.47286   7.56309
      77  V             6.50647   7.56500
      78  V             6.50647   7.56500
      79  V             6.51784   7.56624
      80  (A1G)--V     20.42227  50.54812
 Total kinetic energy from orbitals= 3.760349044287D+01
 No NMR shielding tensors so no spin-rotation constants.
 Leave Link  601 at Thu May 18 17:13:21 2006, MaxMem=   39321600 cpu:       0.4
 (Enter /home/no228/Tools/g03/l9999.exe)

 Test job not archived.
 1\1\GINC-SANDWI\SP\RHF\Aug-CC-pVQZ\C1\NO228\18-May-2006\0\\#P HF/AUG-C
 C-PVQZ POP=FULL IOP(3/33=1,3/36=-1)\\Title card required\\0,1\C,0,0.,0
 .,0.\\Version=x86-Linux-G03RevB.04\HF=-37.6045377\RMSD=2.415e-05\PG=OH
  [O(C1)]\\@


 EVERYTHING'S GOT A MORAL, IF ONLY YOU CAN FIND IT.

                                    -- LEWIS CARROL, ALICE IN WONDERLAND
 Job cpu time:  0 days  0 hours  0 minutes  8.4 seconds.
 File lengths (MBytes):  RWF=     11 Int=      0 D2E=      0 Chk=      7 Scr=      1
 Normal termination of Gaussian 03 at Thu May 18 17:13:22 2006.
