 Entering Link 1 = C:\Gaussian\l1.exe PID=      3700.
  
 Copyright (c) 1988,1990,1992,1993,1995,1998,2003, Gaussian, Inc.
                  All Rights Reserved.
  
 This is the Gaussian(R) 03 program.  It is based on the
 the Gaussian(R) 98 system (copyright 1998, Gaussian, Inc.),
 the Gaussian(R) 94 system (copyright 1995, Gaussian, Inc.),
 the Gaussian 92(TM) system (copyright 1992, Gaussian, Inc.),
 the Gaussian 90(TM) system (copyright 1990, Gaussian, Inc.),
 the Gaussian 88(TM) system (copyright 1988, Gaussian, Inc.),
 the Gaussian 86(TM) system (copyright 1986, Carnegie Mellon
 University), and the Gaussian 82(TM) system (copyright 1983,
 Carnegie Mellon University). Gaussian is a federally registered
 trademark of Gaussian, Inc.
  
 This software contains proprietary and confidential information,
 including trade secrets, belonging to Gaussian, Inc.
  
 This software is provided under written license and may be
 used, copied, transmitted, or stored only in accord with that
 written license.
  
 The following legend is applicable only to US Government
 contracts under DFARS:
  
                    RESTRICTED RIGHTS LEGEND
  
 Use, duplication or disclosure by the US Government is subject
 to restrictions as set forth in subparagraph (c)(1)(ii) of the
 Rights in Technical Data and Computer Software clause at DFARS
 252.227-7013.
  
 Gaussian, Inc.
 Carnegie Office Park, Building 6, Pittsburgh, PA 15106 USA
  
 The following legend is applicable only to US Government
 contracts under FAR:
  
                    RESTRICTED RIGHTS LEGEND
  
 Use, reproduction and disclosure by the US Government is subject
 to restrictions as set forth in subparagraph (c) of the
 Commercial Computer Software - Restricted Rights clause at FAR
 52.227-19.
  
 Gaussian, Inc.
 Carnegie Office Park, Building 6, Pittsburgh, PA 15106 USA
  
  
 ---------------------------------------------------------------
 Warning -- This program may not be used in any manner that
 competes with the business of Gaussian, Inc. or will provide
 assistance to any competitor of Gaussian, Inc.  The licensee
 of this program is prohibited from giving any competitor of
 Gaussian, Inc. access to this program.  By using this program,
 the user acknowledges that Gaussian, Inc. is engaged in the
 business of creating and licensing software in the field of
 computational chemistry and represents and warrants to the
 licensee that it is not a competitor of Gaussian, Inc. and that
 it will not use this program in any manner prohibited above.
 ---------------------------------------------------------------
  

 Cite this work as:
 Gaussian 03, Revision B.04,
 M. J. Frisch, G. W. Trucks, H. B. Schlegel, G. E. Scuseria, 
 M. A. Robb, J. R. Cheeseman, J. A. Montgomery, Jr., T. Vreven, 
 K. N. Kudin, J. C. Burant, J. M. Millam, S. S. Iyengar, J. Tomasi, 
 V. Barone, B. Mennucci, M. Cossi, G. Scalmani, N. Rega, 
 G. A. Petersson, H. Nakatsuji, M. Hada, M. Ehara, K. Toyota, 
 R. Fukuda, J. Hasegawa, M. Ishida, T. Nakajima, Y. Honda, O. Kitao, 
 H. Nakai, M. Klene, X. Li, J. E. Knox, H. P. Hratchian, J. B. Cross, 
 C. Adamo, J. Jaramillo, R. Gomperts, R. E. Stratmann, O. Yazyev, 
 A. J. Austin, R. Cammi, C. Pomelli, J. W. Ochterski, P. Y. Ayala, 
 K. Morokuma, G. A. Voth, P. Salvador, J. J. Dannenberg, 
 V. G. Zakrzewski, S. Dapprich, A. D. Daniels, M. C. Strain, 
 O. Farkas, D. K. Malick, A. D. Rabuck, K. Raghavachari, 
 J. B. Foresman, J. V. Ortiz, Q. Cui, A. G. Baboul, S. Clifford, 
 J. Cioslowski, B. B. Stefanov, G. Liu, A. Liashenko, P. Piskorz, 
 I. Komaromi, R. L. Martin, D. J. Fox, T. Keith, M. A. Al-Laham, 
 C. Y. Peng, A. Nanayakkara, M. Challacombe, P. M. W. Gill, 
 B. Johnson, W. Chen, M. W. Wong, C. Gonzalez, and J. A. Pople, 
 Gaussian, Inc., Pittsburgh PA, 2003.
 
 *********************************************
 Gaussian 03:  x86-Win32-G03RevB.04 2-Jun-2003
                  19-Mar-2006 
 *********************************************
 %chk=PhCCCC.chk
 %mem=100MB
 %nproc=1
 Will use up to    1 processors via shared memory.
 Default route:  MaxDisk=2000MB
 ---------------------------
 #p rb3lyp/sto-3g freq=raman
 ---------------------------
 1/10=4,30=1,38=1121/1,3,6;
 2/17=6,18=5,40=1/2;
 3/6=3,11=2,16=1,25=1,30=1,74=-5/1,2,3;
 4/7=1,69=2/1;
 5/5=2,38=5/2;
 8/6=4,10=90,11=11,27=262144000/1;
 11/6=1,8=1,9=11,15=111,16=1/1,2,10;
 10/6=1/2;
 6/7=2,8=2,9=2,10=2,28=1/1;
 7/10=1,25=1/1,2,3,16;
 1/38=1120/6(3);
 7/8=1,25=1,44=-1/16;
 1/10=4,30=1,38=1120/3;
 99//99;
 3/6=3,11=2,14=-3,16=1,25=1,30=1,74=-5/1,2,3;
 4/5=5,7=1,16=3,69=2/1;
 5/5=2,38=5/2;
 8/6=4,10=90,11=11,27=262144000/1;
 11/6=1,8=1,9=11,15=111,16=1/1,2,10;
 10/6=101,13=10/2;
 6/7=2,8=2,9=2,10=2,28=1/1;
 7/7=1,10=1/16;
 1/38=1120/6(-8);
 7/8=1,25=1,44=-1/16;
 1/10=4,30=1,38=1120/3;
 99//99;
 Leave Link    1 at Sun Mar 19 17:56:01 2006, MaxMem=   13107200 cpu:       4.0
 (Enter C:\Gaussian\l101.exe)
 -------
 Notitle
 -------
 Symbolic Z-matrix:
 Charge =  0 Multiplicity = 1
 C
 C                    1    B1
 C                    2    B2       1    A1
 C                    3    B3       2    A2       1    D1       0
 C                    4    B4       3    A3       2    D2       0
 H                    2    B5       1    A4       5    D3       0
 H                    3    B6       2    A5       1    D4       0
 H                    5    B7       4    A6       3    D5       0
 C                    4    B8       3    A7       2    D6       0
 C                    9    B9       4    A8       3    D7       0
 H                    10   B10      9    A9       4    D8       0
 H                    9    B11      4    A10      3    D9       0
 H                    10   B12      9    A11      4    D10      0
 C                    1    B13      2    A12      3    D11      0
 H                    14   B14      1    A13      2    D12      0
 C                    14   B15      1    A14      2    D13      0
 H                    16   B16      14   A15      1    D14      0
 H                    16   B17      14   A16      1    D15      0
 C                    5    B18      4    A17      3    D16      0
 H                    19   B19      5    A18      4    D17      0
       Variables:
  B1                    1.42115                  
  B2                    1.40217                  
  B3                    1.42245                  
  B4                    1.42115                  
  B5                    1.09762                  
  B6                    1.09866                  
  B7                    1.09762                  
  B8                    1.49761                  
  B9                    1.34427                  
  B10                   1.09599                  
  B11                   1.10041                  
  B12                   1.09623                  
  B13                   1.49761                  
  B14                   1.10041                  
  B15                   1.34427                  
  B16                   1.09599                  
  B17                   1.09623                  
  B18                   1.40217                  
  B19                   1.09866                  
  A1                  120.85705                  
  A2                  121.35373                  
  A3                  117.78922                  
  A4                  119.76456                  
  A5                  119.62884                  
  A6                  119.76456                  
  A7                  119.17162                  
  A8                  126.59341                  
  A9                  122.64703                  
  A10                 114.43382                  
  A11                 121.22829                  
  A12                 123.03917                  
  A13                 114.43382                  
  A14                 126.59341                  
  A15                 122.64703                  
  A16                 121.22829                  
  A17                 120.85705                  
  A18                 119.62884                  
  D1                    0.                       
  D2                    0.                       
  D3                  180.                       
  D4                  180.                       
  D5                  180.                       
  D6                  180.                       
  D7                  180.                       
  D8                    0.                       
  D9                    0.                       
  D10                 180.                       
  D11                 180.                       
  D12                 180.                       
  D13                   0.                       
  D14                   0.                       
  D15                 180.                       
  D16                   0.                       
  D17                 180.                       
 
                    Isotopes and Nuclear Properties:

  Atom         1           2           3           4           5           6           7           8           9          10
 IAtWgt=          12          12          12          12          12           1           1           1          12          12
 AtmWgt=  12.0000000  12.0000000  12.0000000  12.0000000  12.0000000   1.0078250   1.0078250   1.0078250  12.0000000  12.0000000
 IAtSpn=           0           0           0           0           0           1           1           1           0           0
 AtZEff=   0.0000000   0.0000000   0.0000000   0.0000000   0.0000000   0.0000000   0.0000000   0.0000000   0.0000000   0.0000000
 AtQMom=   0.0000000   0.0000000   0.0000000   0.0000000   0.0000000   0.0000000   0.0000000   0.0000000   0.0000000   0.0000000
 AtGFac=   0.0000000   0.0000000   0.0000000   0.0000000   0.0000000   2.7928460   2.7928460   2.7928460   0.0000000   0.0000000

  Atom        11          12          13          14          15          16          17          18          19          20
 IAtWgt=           1           1           1          12           1          12           1           1          12           1
 AtmWgt=   1.0078250   1.0078250   1.0078250  12.0000000   1.0078250  12.0000000   1.0078250   1.0078250  12.0000000   1.0078250
 IAtSpn=           1           1           1           0           1           0           1           1           0           1
 AtZEff=   0.0000000   0.0000000   0.0000000   0.0000000   0.0000000   0.0000000   0.0000000   0.0000000   0.0000000   0.0000000
 AtQMom=   0.0000000   0.0000000   0.0000000   0.0000000   0.0000000   0.0000000   0.0000000   0.0000000   0.0000000   0.0000000
 AtGFac=   2.7928460   2.7928460   2.7928460   0.0000000   2.7928460   0.0000000   2.7928460   2.7928460   0.0000000   2.7928460
 Leave Link  101 at Sun Mar 19 17:56:06 2006, MaxMem=   13107200 cpu:       2.0
 (Enter C:\Gaussian\l103.exe)

 GradGradGradGradGradGradGradGradGradGradGradGradGradGradGradGradGradGrad
 Berny optimization.
 Initialization pass.
                       ----------------------------
                       !    Initial Parameters    !
                       ! (Angstroms and Degrees)  !
 ----------------------                            ----------------------
 !      Name          Value   Derivative information (Atomic Units)     !
 ------------------------------------------------------------------------
 !       B1          1.4212   calculate D2E/DX2 analytically            !
 !       B2          1.4022   calculate D2E/DX2 analytically            !
 !       B3          1.4224   calculate D2E/DX2 analytically            !
 !       B4          1.4212   calculate D2E/DX2 analytically            !
 !       B5          1.0976   calculate D2E/DX2 analytically            !
 !       B6          1.0987   calculate D2E/DX2 analytically            !
 !       B7          1.0976   calculate D2E/DX2 analytically            !
 !       B8          1.4976   calculate D2E/DX2 analytically            !
 !       B9          1.3443   calculate D2E/DX2 analytically            !
 !       B10         1.096    calculate D2E/DX2 analytically            !
 !       B11         1.1004   calculate D2E/DX2 analytically            !
 !       B12         1.0962   calculate D2E/DX2 analytically            !
 !       B13         1.4976   calculate D2E/DX2 analytically            !
 !       B14         1.1004   calculate D2E/DX2 analytically            !
 !       B15         1.3443   calculate D2E/DX2 analytically            !
 !       B16         1.096    calculate D2E/DX2 analytically            !
 !       B17         1.0962   calculate D2E/DX2 analytically            !
 !       B18         1.4022   calculate D2E/DX2 analytically            !
 !       B19         1.0987   calculate D2E/DX2 analytically            !
 !       A1        120.857    calculate D2E/DX2 analytically            !
 !       A2        121.3537   calculate D2E/DX2 analytically            !
 !       A3        117.7892   calculate D2E/DX2 analytically            !
 !       A4        119.7646   calculate D2E/DX2 analytically            !
 !       A5        119.6288   calculate D2E/DX2 analytically            !
 !       A6        119.7646   calculate D2E/DX2 analytically            !
 !       A7        119.1716   calculate D2E/DX2 analytically            !
 !       A8        126.5934   calculate D2E/DX2 analytically            !
 !       A9        122.647    calculate D2E/DX2 analytically            !
 !       A10       114.4338   calculate D2E/DX2 analytically            !
 !       A11       121.2283   calculate D2E/DX2 analytically            !
 !       A12       123.0392   calculate D2E/DX2 analytically            !
 !       A13       114.4338   calculate D2E/DX2 analytically            !
 !       A14       126.5934   calculate D2E/DX2 analytically            !
 !       A15       122.647    calculate D2E/DX2 analytically            !
 !       A16       121.2283   calculate D2E/DX2 analytically            !
 !       A17       120.857    calculate D2E/DX2 analytically            !
 !       A18       119.6288   calculate D2E/DX2 analytically            !
 !       D1          0.0      calculate D2E/DX2 analytically            !
 !       D2          0.0      calculate D2E/DX2 analytically            !
 !       D3        180.0      calculate D2E/DX2 analytically            !
 !       D4        180.0      calculate D2E/DX2 analytically            !
 !       D5        180.0      calculate D2E/DX2 analytically            !
 !       D6        180.0      calculate D2E/DX2 analytically            !
 !       D7        180.0      calculate D2E/DX2 analytically            !
 !       D8          0.0      calculate D2E/DX2 analytically            !
 !       D9          0.0      calculate D2E/DX2 analytically            !
 !       D10       180.0      calculate D2E/DX2 analytically            !
 !       D11       180.0      calculate D2E/DX2 analytically            !
 !       D12       180.0      calculate D2E/DX2 analytically            !
 !       D13         0.0      calculate D2E/DX2 analytically            !
 !       D14         0.0      calculate D2E/DX2 analytically            !
 !       D15       180.0      calculate D2E/DX2 analytically            !
 !       D16         0.0      calculate D2E/DX2 analytically            !
 !       D17       180.0      calculate D2E/DX2 analytically            !
 ------------------------------------------------------------------------
 Trust Radius=3.00D-01 FncErr=1.00D-07 GrdErr=1.00D-07
 Number of steps in this run=   2 maximum allowed number of steps=   2.
 GradGradGradGradGradGradGradGradGradGradGradGradGradGradGradGradGradGrad

 Leave Link  103 at Sun Mar 19 17:56:08 2006, MaxMem=   13107200 cpu:       0.0
 (Enter C:\Gaussian\l106.exe)
 NDeriv=   3 NFrqRd=  0 LFDDif=       0
 Differentiate once with respect to electric field.
 Nuclear step= 0.001000 Angstroms, electric field step= 0.001890 atomic units.
 Leave Link  106 at Sun Mar 19 17:56:10 2006, MaxMem=   13107200 cpu:       0.0
 (Enter C:\Gaussian\l202.exe)
                          Input orientation:                          
 ---------------------------------------------------------------------
 Center     Atomic     Atomic              Coordinates (Angstroms)
 Number     Number      Type              X           Y           Z
 ---------------------------------------------------------------------
    1          6             0        0.000000    0.000000    0.000000
    2          6             0        0.000000    0.000000    1.421154
    3          6             0        1.203695    0.000000    2.140325
    4          6             0        2.462090    0.000000    1.477152
    5          6             0        2.462090    0.000000    0.055998
    6          1             0       -0.952813    0.000000    1.966053
    7          1             0        1.180146    0.000000    3.238735
    8          1             0        3.414904    0.000000   -0.488901
    9          6             0        3.717531    0.000000    2.293665
   10          6             0        4.977755    0.000000    1.825807
   11          1             0        5.210853    0.000000    0.754892
   12          1             0        3.552880    0.000000    3.381684
   13          1             0        5.836811    0.000000    2.506791
   14          6             0       -1.255441    0.000000   -0.816513
   15          1             0       -1.090790    0.000000   -1.904532
   16          6             0       -2.515665    0.000000   -0.348656
   17          1             0       -2.748763    0.000000    0.722260
   18          1             0       -3.374721    0.000000   -1.029640
   19          6             0        1.258395    0.000000   -0.663174
   20          1             0        1.281944    0.000000   -1.761584
 ---------------------------------------------------------------------
                    Distance matrix (angstroms):
                    1          2          3          4          5
     1  C    0.000000
     2  C    1.421154   0.000000
     3  C    2.455580   1.402173   0.000000
     4  C    2.871213   2.462727   1.422448   0.000000
     5  C    2.462727   2.815233   2.434744   1.421154   0.000000
     6  H    2.184769   1.097619   2.163539   3.449723   3.912784
     7  H    3.447049   2.167106   1.098662   2.178660   3.431209
     8  H    3.449723   3.912784   3.435444   2.184769   1.097619
     9  C    4.368173   3.818548   2.518508   1.497607   2.565791
    10  C    5.302039   4.994176   3.787143   2.539711   3.075841
    11  H    5.265250   5.253275   4.239899   2.842069   2.836221
    12  H    4.904971   4.057910   2.656998   2.194781   3.500001
    13  H    6.352351   5.936916   4.647587   3.528300   4.170747
    14  C    1.497607   2.565791   3.845809   4.368173   3.818548
    15  H    2.194781   3.500001   4.650326   4.904971   4.057910
    16  C    2.539711   3.075841   4.475340   5.302039   4.994176
    17  H    2.842069   2.836221   4.199147   5.265250   5.253275
    18  H    3.528300   4.170747   5.568714   6.352351   5.936916
    19  C    1.422448   2.434744   2.804033   2.455580   1.402173
    20  H    2.178660   3.431209   3.902693   3.447049   2.167106
                    6          7          8          9         10
     6  H    0.000000
     7  H    2.483795   0.000000
     8  H    5.010364   4.346195   0.000000
     9  C    4.681821   2.707671   2.798974   0.000000
    10  C    5.932227   4.051938   2.792916   1.344268   0.000000
    11  H    6.281536   4.734562   2.184595   2.144256   1.095990
    12  H    4.722847   2.377036   3.873043   1.100407   2.109744
    13  H    6.811123   4.713839   3.852247   2.129970   1.096228
    14  C    2.798974   4.730446   4.681821   5.865463   6.770125
    15  H    3.873043   5.622308   4.722847   6.383166   7.123389
    16  C    2.792916   5.150572   5.932227   6.770125   7.802541
    17  H    2.184595   4.665723   6.281536   6.654493   7.804928
    18  H    3.852247   6.242262   6.811123   7.832266   8.827086
    19  C    3.435444   3.902693   2.163539   3.845809   4.475340
    20  H    4.346195   5.001355   2.483795   4.730446   5.150572
                   11         12         13         14         15
    11  H    0.000000
    12  H    3.106270   0.000000
    13  H    1.860369   2.445768   0.000000
    14  C    6.654493   6.383166   7.832266   0.000000
    15  H    6.839828   7.036174   8.212882   1.100407   0.000000
    16  C    7.804928   7.123389   8.827086   1.344268   2.109744
    17  H    7.959684   6.839828   8.769073   2.144256   3.106270
    18  H    8.769073   8.212882   9.867050   2.129970   2.445768
    19  C    4.199147   4.650326   5.568714   2.518508   2.656998
    20  H    4.665723   5.622308   6.242262   2.707671   2.377036
                   16         17         18         19         20
    16  C    0.000000
    17  H    1.095990   0.000000
    18  H    1.096228   1.860369   0.000000
    19  C    3.787143   4.239899   4.647587   0.000000
    20  H    4.051938   4.734562   4.713839   1.098662   0.000000
 Stoichiometry    C10H10
 Framework group  C2H[SGH(C10H10)]
 Deg. of freedom    19
 Full point group                 C2H     NOp   4
 Largest Abelian subgroup         C2H     NOp   4
 Largest concise Abelian subgroup C2      NOp   2
                         Standard orientation:                         
 ---------------------------------------------------------------------
 Center     Atomic     Atomic              Coordinates (Angstroms)
 Number     Number      Type              X           Y           Z
 ---------------------------------------------------------------------
    1          6             0        0.269481   -1.410087    0.000000
    2          6             0       -1.064752   -0.920700    0.000000
    3          6             0       -1.325434    0.457029    0.000000
    4          6             0       -0.269481    1.410087    0.000000
    5          6             0        1.064752    0.920700    0.000000
    6          1             0       -1.904434   -1.627596    0.000000
    7          1             0       -2.364772    0.813167    0.000000
    8          1             0        1.904434    1.627596    0.000000
    9          6             0       -0.603732    2.869917    0.000000
   10          6             0        0.269481    3.891952    0.000000
   11          1             0        1.355166    3.742014    0.000000
   12          1             0       -1.681904    3.090005    0.000000
   13          1             0       -0.074029    4.932969    0.000000
   14          6             0        0.603732   -2.869917    0.000000
   15          1             0        1.681904   -3.090005    0.000000
   16          6             0       -0.269481   -3.891952    0.000000
   17          1             0       -1.355166   -3.742014    0.000000
   18          1             0        0.074029   -4.932969    0.000000
   19          6             0        1.325434   -0.457029    0.000000
   20          1             0        2.364772   -0.813167    0.000000
 ---------------------------------------------------------------------
 Rotational constants (GHZ):      4.6264911      0.6849396      0.5966127
 Leave Link  202 at Sun Mar 19 17:56:14 2006, MaxMem=   13107200 cpu:       2.0
 (Enter C:\Gaussian\l301.exe)
 Standard basis: STO-3G (5D, 7F)
 There are    25 symmetry adapted basis functions of AG  symmetry.
 There are     5 symmetry adapted basis functions of BG  symmetry.
 There are     5 symmetry adapted basis functions of AU  symmetry.
 There are    25 symmetry adapted basis functions of BU  symmetry.
 Integral buffers will be    262144 words long.
 Raffenetti 2 integral format.
 Two-electron integral symmetry is turned on.
    60 basis functions,   180 primitive gaussians,    60 cartesian basis functions
    35 alpha electrons       35 beta electrons
       nuclear repulsion energy       445.8993288870 Hartrees.
 IExCor= 402 DFT=T Ex=B+HF Corr=LYP ExCW=0 ScaHFX=  0.200000
 ScaDFX=  0.800000  0.720000  1.000000  0.810000
 IRadAn=      0 IRanWt=     -1 IRanGd=            0 ICorTp=0
 NAtoms=   20 NActive=   20 NUniq=   10 SFac= 5.66D+00 NAtFMM=   60 Big=F
 Leave Link  301 at Sun Mar 19 17:56:16 2006, MaxMem=   13107200 cpu:       0.0
 (Enter C:\Gaussian\l302.exe)
 NPDir=0 NMtPBC=     1 NCelOv=     1 NCel=       1 NClECP=     1 NCelD=      1
         NCelK=      1 NCelE2=     1 NClLst=     1 CellRange=     0.0.
 One-electron integrals computed using PRISM.
 One-electron integral symmetry used in STVInt
 NBasis=    60 RedAO= T  NBF=    25     5     5    25
 NBsUse=    60 1.00D-06 NBFU=    25     5     5    25
 Precomputing XC quadrature grid using
 IXCGrd= 2 IRadAn=           0 IRanWt=          -1 IRanGd=           0.
 NRdTot=    1258 NPtTot=      160096 NUsed=      165798 NTot=      165814
 NSgBfM=    59    59    59    59.
 Leave Link  302 at Sun Mar 19 17:56:22 2006, MaxMem=   13107200 cpu:       4.0
 (Enter C:\Gaussian\l303.exe)
 DipDrv:  MaxL=1.
 Leave Link  303 at Sun Mar 19 17:56:24 2006, MaxMem=   13107200 cpu:       0.0
 (Enter C:\Gaussian\l401.exe)
 Harris functional with IExCor=  402 diagonalized for initial guess.
 ExpMin= 1.69D-01 ExpMax= 7.16D+01 ExpMxC= 7.16D+01 IAcc=1 IRadAn=         1 AccDes= 1.00D-06
 HarFok:  IExCor= 402 AccDes= 1.00D-06 IRadAn=         1 IDoV=1
 ScaDFX=  1.000000  1.000000  1.000000  1.000000
 Harris En= -382.333246093857    
 Initial guess orbital symmetries:
       Occupied  (BU) (AG) (BU) (AG) (AG) (BU) (AG) (BU) (BU) (AG)
                 (AG) (BU) (AG) (BU) (BU) (AG) (AG) (BU) (AG) (AG)
                 (BU) (BU) (AG) (BU) (BU) (BU) (AG) (AU) (BU) (AG)
                 (AG) (BG) (AU) (BG) (BG)
       Virtual   (AU) (AU) (BG) (AU) (BG) (AG) (BU) (BU) (AG) (AG)
                 (BU) (AG) (BU) (BU) (AG) (AG) (BU) (BU) (AG) (BU)
                 (AG) (AG) (BU) (AG) (BU)
 The electronic state of the initial guess is 1-AG.
 Leave Link  401 at Sun Mar 19 17:56:28 2006, MaxMem=   13107200 cpu:       2.0
 (Enter C:\Gaussian\l502.exe)
 Closed shell SCF:
 Requested convergence on RMS density matrix=1.00D-08 within 128 cycles.
 Requested convergence on MAX density matrix=1.00D-06.
 Requested convergence on             energy=1.00D-06.
 No special actions if energy rises.
 Using DIIS extrapolation, IDIIS=  1040.
 Integral symmetry usage will be decided dynamically.
       165797 words used for storage of precomputed grid.
 Keep R1 integrals in memory in canonical form, NReq=     2382359.
 IEnd=    195350 IEndB=    195350 NGot=  13107200 MDV=  11256772
 LenX=  11256772
 Symmetry not used in FoFDir.
 MinBra= 0 MaxBra= 1 Meth= 1.
 IRaf=       0 NMat=   1 IRICut=       1 DoRegI=T DoRafI=F ISym2E= 0 JSym2E=0.
 Integral accuracy reduced to 1.0D-05 until final iterations.

 Cycle   1  Pass 0  IDiag  1:
 E= -382.226224515418    
 DIIS: error= 2.16D-02 at cycle   1 NSaved=   1.
 NSaved= 1 IEnMin= 1 EnMin= -382.226224515418     IErMin= 1 ErrMin= 2.16D-02
 ErrMax= 2.16D-02 EMaxC= 1.00D-01 BMatC= 5.61D-02 BMatP= 5.61D-02
 IDIUse=3 WtCom= 7.84D-01 WtEn= 2.16D-01
 Coeff-Com:  0.100D+01
 Coeff-En:   0.100D+01
 Coeff:      0.100D+01
 Gap=     0.190 Goal=   None    Shift=    0.000
 GapD=    0.190 DampG=1.000 DampE=0.500 DampFc=0.5000 IDamp=-1.
 Damping current iteration by 5.00D-01
 RMSDP=9.58D-03 MaxDP=1.13D-01              OVMax= 1.28D-02

 Cycle   2  Pass 0  IDiag  1:
 E= -382.271794731676     Delta-E=       -0.045570216259 Rises=F Damp=T
 DIIS: error= 4.94D-03 at cycle   2 NSaved=   2.
 NSaved= 2 IEnMin= 2 EnMin= -382.271794731676     IErMin= 2 ErrMin= 4.94D-03
 ErrMax= 4.94D-03 EMaxC= 1.00D-01 BMatC= 3.56D-03 BMatP= 5.61D-02
 IDIUse=3 WtCom= 9.51D-01 WtEn= 4.94D-02
 Coeff-Com: -0.273D+00 0.127D+01
 Coeff-En:   0.000D+00 0.100D+01
 Coeff:     -0.260D+00 0.126D+01
 Gap=     0.191 Goal=   None    Shift=    0.000
 RMSDP=1.90D-03 MaxDP=2.52D-02 DE=-4.56D-02 OVMax= 3.03D-02

 Cycle   3  Pass 0  IDiag  1:
 E= -382.306221678355     Delta-E=       -0.034426946679 Rises=F Damp=F
 DIIS: error= 5.86D-03 at cycle   3 NSaved=   3.
 NSaved= 3 IEnMin= 3 EnMin= -382.306221678355     IErMin= 2 ErrMin= 4.94D-03
 ErrMax= 5.86D-03 EMaxC= 1.00D-01 BMatC= 1.59D-03 BMatP= 3.56D-03
 IDIUse=3 WtCom= 9.41D-01 WtEn= 5.86D-02
 Coeff-Com: -0.170D+00 0.730D+00 0.440D+00
 Coeff-En:   0.000D+00 0.000D+00 0.100D+01
 Coeff:     -0.160D+00 0.687D+00 0.473D+00
 Gap=     0.190 Goal=   None    Shift=    0.000
 RMSDP=1.06D-03 MaxDP=2.57D-02 DE=-3.44D-02 OVMax= 1.98D-02

 Cycle   4  Pass 0  IDiag  1:
 E= -382.308023589916     Delta-E=       -0.001801911561 Rises=F Damp=F
 DIIS: error= 2.07D-03 at cycle   4 NSaved=   4.
 NSaved= 4 IEnMin= 4 EnMin= -382.308023589916     IErMin= 4 ErrMin= 2.07D-03
 ErrMax= 2.07D-03 EMaxC= 1.00D-01 BMatC= 1.76D-04 BMatP= 1.59D-03
 IDIUse=3 WtCom= 9.79D-01 WtEn= 2.07D-02
 Coeff-Com: -0.119D-01 0.461D-01 0.254D+00 0.712D+00
 Coeff-En:   0.000D+00 0.000D+00 0.111D+00 0.889D+00
 Coeff:     -0.116D-01 0.452D-01 0.251D+00 0.716D+00
 Gap=     0.190 Goal=   None    Shift=    0.000
 RMSDP=2.91D-04 MaxDP=7.38D-03 DE=-1.80D-03 OVMax= 6.35D-03

 Cycle   5  Pass 0  IDiag  1:
 E= -382.308237226849     Delta-E=       -0.000213636933 Rises=F Damp=F
 DIIS: error= 3.67D-04 at cycle   5 NSaved=   5.
 NSaved= 5 IEnMin= 5 EnMin= -382.308237226849     IErMin= 5 ErrMin= 3.67D-04
 ErrMax= 3.67D-04 EMaxC= 1.00D-01 BMatC= 8.32D-06 BMatP= 1.76D-04
 IDIUse=3 WtCom= 9.96D-01 WtEn= 3.67D-03
 Coeff-Com: -0.947D-03 0.167D-02 0.127D+00 0.402D+00 0.470D+00
 Coeff-En:   0.000D+00 0.000D+00 0.000D+00 0.000D+00 0.100D+01
 Coeff:     -0.943D-03 0.166D-02 0.127D+00 0.401D+00 0.472D+00
 Gap=     0.190 Goal=   None    Shift=    0.000
 RMSDP=6.10D-05 MaxDP=9.04D-04 DE=-2.14D-04 OVMax= 8.34D-04

 Cycle   6  Pass 0  IDiag  1:
 E= -382.308247327122     Delta-E=       -0.000010100273 Rises=F Damp=F
 DIIS: error= 2.91D-05 at cycle   6 NSaved=   6.
 NSaved= 6 IEnMin= 6 EnMin= -382.308247327122     IErMin= 6 ErrMin= 2.91D-05
 ErrMax= 2.91D-05 EMaxC= 1.00D-01 BMatC= 2.34D-08 BMatP= 8.32D-06
 IDIUse=1 WtCom= 1.00D+00 WtEn= 0.00D+00
 Coeff-Com:  0.139D-04-0.384D-03 0.238D-01 0.735D-01 0.109D+00 0.794D+00
 Coeff:      0.139D-04-0.384D-03 0.238D-01 0.735D-01 0.109D+00 0.794D+00
 Gap=     0.190 Goal=   None    Shift=    0.000
 RMSDP=5.26D-06 MaxDP=6.55D-05 DE=-1.01D-05 OVMax= 1.32D-04

 Initial convergence to 1.0D-05 achieved.  Increase integral accuracy.
 Cycle   7  Pass 1  IDiag  1:
 E= -382.308266573313     Delta-E=       -0.000019246191 Rises=F Damp=F
 DIIS: error= 7.69D-06 at cycle   1 NSaved=   1.
 NSaved= 1 IEnMin= 1 EnMin= -382.308266573313     IErMin= 1 ErrMin= 7.69D-06
 ErrMax= 7.69D-06 EMaxC= 1.00D-01 BMatC= 4.17D-09 BMatP= 4.17D-09
 IDIUse=1 WtCom= 1.00D+00 WtEn= 0.00D+00
 Coeff-Com:  0.100D+01
 Coeff:      0.100D+01
 Gap=     0.191 Goal=   None    Shift=    0.000
 RMSDP=5.26D-06 MaxDP=6.55D-05 DE=-1.92D-05 OVMax= 3.35D-05

 Cycle   8  Pass 1  IDiag  1:
 E= -382.308266574787     Delta-E=       -0.000000001474 Rises=F Damp=F
 DIIS: error= 6.95D-06 at cycle   2 NSaved=   2.
 NSaved= 2 IEnMin= 2 EnMin= -382.308266574787     IErMin= 2 ErrMin= 6.95D-06
 ErrMax= 6.95D-06 EMaxC= 1.00D-01 BMatC= 3.53D-09 BMatP= 4.17D-09
 IDIUse=1 WtCom= 1.00D+00 WtEn= 0.00D+00
 Coeff-Com:  0.478D+00 0.522D+00
 Coeff:      0.478D+00 0.522D+00
 Gap=     0.191 Goal=   None    Shift=    0.000
 RMSDP=1.62D-06 MaxDP=2.00D-05 DE=-1.47D-09 OVMax= 2.94D-05

 Cycle   9  Pass 1  IDiag  1:
 E= -382.308266579817     Delta-E=       -0.000000005030 Rises=F Damp=F
 DIIS: error= 1.51D-06 at cycle   3 NSaved=   3.
 NSaved= 3 IEnMin= 3 EnMin= -382.308266579817     IErMin= 3 ErrMin= 1.51D-06
 ErrMax= 1.51D-06 EMaxC= 1.00D-01 BMatC= 1.19D-10 BMatP= 3.53D-09
 IDIUse=1 WtCom= 1.00D+00 WtEn= 0.00D+00
 Coeff-Com:  0.154D+00 0.217D+00 0.629D+00
 Coeff:      0.154D+00 0.217D+00 0.629D+00
 Gap=     0.191 Goal=   None    Shift=    0.000
 RMSDP=3.29D-07 MaxDP=7.18D-06 DE=-5.03D-09 OVMax= 5.20D-06

 Cycle  10  Pass 1  IDiag  1:
 E= -382.308266579924     Delta-E=       -0.000000000107 Rises=F Damp=F
 DIIS: error= 1.03D-06 at cycle   4 NSaved=   4.
 NSaved= 4 IEnMin= 4 EnMin= -382.308266579924     IErMin= 4 ErrMin= 1.03D-06
 ErrMax= 1.03D-06 EMaxC= 1.00D-01 BMatC= 3.78D-11 BMatP= 1.19D-10
 IDIUse=1 WtCom= 1.00D+00 WtEn= 0.00D+00
 Coeff-Com: -0.346D-02 0.298D-01 0.376D+00 0.597D+00
 Coeff:     -0.346D-02 0.298D-01 0.376D+00 0.597D+00
 Gap=     0.191 Goal=   None    Shift=    0.000
 RMSDP=1.42D-07 MaxDP=3.45D-06 DE=-1.07D-10 OVMax= 2.83D-06

 Cycle  11  Pass 1  IDiag  1:
 E= -382.308266579964     Delta-E=       -0.000000000040 Rises=F Damp=F
 DIIS: error= 2.27D-07 at cycle   5 NSaved=   5.
 NSaved= 5 IEnMin= 5 EnMin= -382.308266579964     IErMin= 5 ErrMin= 2.27D-07
 ErrMax= 2.27D-07 EMaxC= 1.00D-01 BMatC= 3.61D-12 BMatP= 3.78D-11
 IDIUse=1 WtCom= 1.00D+00 WtEn= 0.00D+00
 Coeff-Com: -0.801D-02 0.891D-02 0.194D+00 0.363D+00 0.442D+00
 Coeff:     -0.801D-02 0.891D-02 0.194D+00 0.363D+00 0.442D+00
 Gap=     0.191 Goal=   None    Shift=    0.000
 RMSDP=4.11D-08 MaxDP=7.50D-07 DE=-4.00D-11 OVMax= 5.57D-07

 Cycle  12  Pass 1  IDiag  1:
 E= -382.308266579971     Delta-E=       -0.000000000007 Rises=F Damp=F
 DIIS: error= 1.69D-08 at cycle   6 NSaved=   6.
 NSaved= 6 IEnMin= 6 EnMin= -382.308266579971     IErMin= 6 ErrMin= 1.69D-08
 ErrMax= 1.69D-08 EMaxC= 1.00D-01 BMatC= 2.19D-14 BMatP= 3.61D-12
 IDIUse=1 WtCom= 1.00D+00 WtEn= 0.00D+00
 Coeff-Com: -0.136D-02-0.143D-03 0.910D-02 0.297D-01 0.875D-01 0.875D+00
 Coeff:     -0.136D-02-0.143D-03 0.910D-02 0.297D-01 0.875D-01 0.875D+00
 Gap=     0.191 Goal=   None    Shift=    0.000
 RMSDP=3.92D-09 MaxDP=4.13D-08 DE=-6.82D-12 OVMax= 7.22D-08

 SCF Done:  E(RB+HF-LYP) =  -382.308266580     A.U. after   12 cycles
             Convg  =    0.3924D-08             -V/T =  2.0172
             S**2   =   0.0000
 KE= 3.758473468954D+02 PE=-1.776414686951D+03 EE= 5.723597445886D+02
 Leave Link  502 at Sun Mar 19 17:57:18 2006, MaxMem=   13107200 cpu:      48.0
 (Enter C:\Gaussian\l801.exe)
 Range of M.O.s used for correlation:     1    60
 NBasis=    60 NAE=    35 NBE=    35 NFC=     0 NFV=     0
 NROrb=     60 NOA=    35 NOB=    35 NVA=    25 NVB=    25
 Leave Link  801 at Sun Mar 19 17:57:20 2006, MaxMem=   13107200 cpu:       0.0
 (Enter C:\Gaussian\l1101.exe)
 Using compressed storage, NAtomX=    20.
 Will process  21 centers per pass.
 Leave Link 1101 at Sun Mar 19 17:57:23 2006, MaxMem=   13107200 cpu:       1.0
 (Enter C:\Gaussian\l1102.exe)
 Use density number 0.
 Symmetrizing basis deriv contribution to polar:
 IMax=3 JMax=2 DiffMx= 0.00D+00
 Leave Link 1102 at Sun Mar 19 17:57:24 2006, MaxMem=   13107200 cpu:       0.0
 (Enter C:\Gaussian\l1110.exe)
 Forming Gx(P) for the SCF density, NAtomX=    20.
 Integral derivatives from FoFDir, PRISM(SPDF).
 Do as many integral derivatives as possible in FoFDir.
 G2DrvN: MDV=      13107078.
 G2DrvN: will do   21 centers at a time, making    1 passes doing MaxLOS=1.
 Petite list used in FoFDir.
 MinBra= 0 MaxBra= 1 Meth= 1.
 IRaf=       0 NMat=   1 IRICut=       1 DoRegI=T DoRafI=F ISym2E= 1 JSym2E=1.
 FoFDir/FoFCou used for L=0 through L=1.
 Leave Link 1110 at Sun Mar 19 18:00:37 2006, MaxMem=   13107200 cpu:     191.0
 (Enter C:\Gaussian\l1002.exe)
 Minotr:  Closed-shell wavefunction.
          Direct CPHF calculation.
          Solving linear equations simultaneously.
          Differentiating once with respect to electric field.
                with respect to dipole field.
          Differentiating once with respect to nuclear coordinates.
          Using symmetry in CPHF.
          Requested convergence is 1.0D-08 RMS, and 1.0D-07 maximum.
          Secondary convergence is 1.0D-12 RMS, and 1.0D-12 maximum.
          NewPWx=T KeepS1=F KeepF1=F KeepIn=T MapXYZ=F.
          MDV=      13107200 using IRadAn=       2.
          Store integrals in memory, NReq=     2080155.
 Symmetry not used in FoFDir.
 MinBra= 0 MaxBra= 1 Meth= 1.
 IRaf=       0 NMat=   1 IRICut=       1 DoRegI=T DoRafI=F ISym2E= 0 JSym2E=0.
          There are  33 degrees of freedom in the 1st order CPHF.
    33 vectors were produced by pass  0.
 AX will form  33 AO Fock derivatives at one time.
    33 vectors were produced by pass  1.
    33 vectors were produced by pass  2.
    33 vectors were produced by pass  3.
    33 vectors were produced by pass  4.
    13 vectors were produced by pass  5.
     3 vectors were produced by pass  6.
 Inv2:  IOpt= 1 Iter= 1 AM= 1.40D-15 Conv= 1.00D-12.
 Inverted reduced A of dimension  181 with in-core refinement.
 Isotropic polarizability for W=    0.000000       74.20 Bohr**3.
 End of Minotr Frequency-dependent properties file   721 does not exist.
 Leave Link 1002 at Sun Mar 19 18:05:11 2006, MaxMem=   13107200 cpu:     272.0
 (Enter C:\Gaussian\l601.exe)
 Copying SCF densities to generalized density rwf, ISCF=0 IROHF=0.

 **********************************************************************

            Population analysis using the SCF density.

 **********************************************************************

 Orbital symmetries:
       Occupied  (BU) (AG) (BU) (AG) (BU) (AG) (BU) (AG) (BU) (AG)
                 (AG) (BU) (AG) (BU) (BU) (AG) (AG) (BU) (AG) (AG)
                 (BU) (BU) (BU) (AG) (BU) (BU) (AG) (AU) (BU) (AG)
                 (AG) (BG) (AU) (BG) (BG)
       Virtual   (AU) (AU) (BG) (AU) (BG) (AG) (BU) (BU) (AG) (AG)
                 (BU) (BU) (AG) (BU) (AG) (AG) (BU) (AG) (BU) (BU)
                 (AG) (AG) (BU) (AG) (BU)
 The electronic state is 1-AG.
 Alpha  occ. eigenvalues --  -10.02021 -10.02016 -10.00812 -10.00811 -10.00679
 Alpha  occ. eigenvalues --  -10.00678 -10.00605 -10.00591  -9.99233  -9.99233
 Alpha  occ. eigenvalues --   -0.80951  -0.75399  -0.71797  -0.69978  -0.66751
 Alpha  occ. eigenvalues --   -0.58869  -0.55892  -0.53167  -0.51017  -0.45744
 Alpha  occ. eigenvalues --   -0.43936  -0.41060  -0.39796  -0.39607  -0.37397
 Alpha  occ. eigenvalues --   -0.35115  -0.34729  -0.32451  -0.31125  -0.29278
 Alpha  occ. eigenvalues --   -0.28746  -0.26355  -0.21245  -0.19505  -0.15308
 Alpha virt. eigenvalues --    0.03742   0.09036   0.11061   0.18220   0.27253
 Alpha virt. eigenvalues --    0.33223   0.34073   0.37936   0.38145   0.41097
 Alpha virt. eigenvalues --    0.41195   0.42676   0.43964   0.45276   0.47826
 Alpha virt. eigenvalues --    0.52624   0.54582   0.57601   0.59944   0.62498
 Alpha virt. eigenvalues --    0.63971   0.68279   0.71724   0.77956   0.79458
          Condensed to atoms (all electrons):
              1          2          3          4          5          6
     1  C    4.778705   0.488325  -0.027150  -0.009776  -0.026980  -0.024562
     2  C    0.488325   4.810689   0.508956  -0.026980  -0.010504   0.387880
     3  C   -0.027150   0.508956   4.815060   0.488800  -0.030712  -0.025274
     4  C   -0.009776  -0.026980   0.488800   4.778705   0.488325   0.001331
     5  C   -0.026980  -0.010504  -0.030712   0.488325   4.810689   0.000032
     6  H   -0.024562   0.387880  -0.025274   0.001331   0.000032   0.586985
     7  H    0.001335  -0.025206   0.387925  -0.025305   0.001342  -0.003825
     8  H    0.001331   0.000032   0.001346  -0.024562   0.387880   0.000002
     9  C    0.000016   0.000818  -0.028765   0.411855  -0.024071  -0.000015
    10  C    0.000000  -0.000007   0.000680  -0.023794  -0.003969   0.000000
    11  H    0.000000   0.000000   0.000013  -0.003533  -0.000563   0.000000
    12  H   -0.000001   0.000022  -0.003962  -0.026070   0.001086  -0.000002
    13  H    0.000000   0.000000  -0.000016   0.001320   0.000018   0.000000
    14  C    0.411855  -0.024071   0.000749   0.000016   0.000818  -0.003040
    15  H   -0.026070   0.001086  -0.000017  -0.000001   0.000022   0.000019
    16  C   -0.023794  -0.003969   0.000015   0.000000  -0.000007  -0.000607
    17  H   -0.003533  -0.000563  -0.000012   0.000000   0.000000   0.000563
    18  H    0.001320   0.000018   0.000000   0.000000   0.000000  -0.000017
    19  C    0.488800  -0.030712  -0.011068  -0.027150   0.508956   0.001346
    20  H   -0.025305   0.001342   0.000039   0.001335  -0.025206  -0.000034
              7          8          9         10         11         12
     1  C    0.001335   0.001331   0.000016   0.000000   0.000000  -0.000001
     2  C   -0.025206   0.000032   0.000818  -0.000007   0.000000   0.000022
     3  C    0.387925   0.001346  -0.028765   0.000680   0.000013  -0.003962
     4  C   -0.025305  -0.024562   0.411855  -0.023794  -0.003533  -0.026070
     5  C    0.001342   0.387880  -0.024071  -0.003969  -0.000563   0.001086
     6  H   -0.003825   0.000002  -0.000015   0.000000   0.000000  -0.000002
     7  H    0.588889  -0.000034  -0.003903   0.000029   0.000001   0.001033
     8  H   -0.000034   0.586985  -0.003040  -0.000607   0.000563   0.000019
     9  C   -0.003903  -0.003040   4.798257   0.586096  -0.023816   0.386255
    10  C    0.000029  -0.000607   0.586096   4.849815   0.385952  -0.027659
    11  H    0.000001   0.000563  -0.023816   0.385952   0.586746   0.002044
    12  H    0.001033   0.000019   0.386255  -0.027659   0.002044   0.595454
    13  H   -0.000002  -0.000017  -0.024045   0.388265  -0.023727  -0.005090
    14  C   -0.000014  -0.000015   0.000000   0.000000   0.000000   0.000000
    15  H    0.000000  -0.000002   0.000000   0.000000   0.000000   0.000000
    16  C    0.000000   0.000000   0.000000   0.000000   0.000000   0.000000
    17  H    0.000002   0.000000   0.000000   0.000000   0.000000   0.000000
    18  H    0.000000   0.000000   0.000000   0.000000   0.000000   0.000000
    19  C    0.000039  -0.025274   0.000749   0.000015  -0.000012  -0.000017
    20  H    0.000002  -0.003825  -0.000014   0.000000   0.000002   0.000000
             13         14         15         16         17         18
     1  C    0.000000   0.411855  -0.026070  -0.023794  -0.003533   0.001320
     2  C    0.000000  -0.024071   0.001086  -0.003969  -0.000563   0.000018
     3  C   -0.000016   0.000749  -0.000017   0.000015  -0.000012   0.000000
     4  C    0.001320   0.000016  -0.000001   0.000000   0.000000   0.000000
     5  C    0.000018   0.000818   0.000022  -0.000007   0.000000   0.000000
     6  H    0.000000  -0.003040   0.000019  -0.000607   0.000563  -0.000017
     7  H   -0.000002  -0.000014   0.000000   0.000000   0.000002   0.000000
     8  H   -0.000017  -0.000015  -0.000002   0.000000   0.000000   0.000000
     9  C   -0.024045   0.000000   0.000000   0.000000   0.000000   0.000000
    10  C    0.388265   0.000000   0.000000   0.000000   0.000000   0.000000
    11  H   -0.023727   0.000000   0.000000   0.000000   0.000000   0.000000
    12  H   -0.005090   0.000000   0.000000   0.000000   0.000000   0.000000
    13  H    0.583948   0.000000   0.000000   0.000000   0.000000   0.000000
    14  C    0.000000   4.798257   0.386255   0.586096  -0.023816  -0.024045
    15  H    0.000000   0.386255   0.595454  -0.027659   0.002044  -0.005090
    16  C    0.000000   0.586096  -0.027659   4.849815   0.385952   0.388265
    17  H    0.000000  -0.023816   0.002044   0.385952   0.586746  -0.023727
    18  H    0.000000  -0.024045  -0.005090   0.388265  -0.023727   0.583948
    19  C    0.000000  -0.028765  -0.003962   0.000680   0.000013  -0.000016
    20  H    0.000000  -0.003903   0.001033   0.000029   0.000001  -0.000002
             19         20
     1  C    0.488800  -0.025305
     2  C   -0.030712   0.001342
     3  C   -0.011068   0.000039
     4  C   -0.027150   0.001335
     5  C    0.508956  -0.025206
     6  H    0.001346  -0.000034
     7  H    0.000039   0.000002
     8  H   -0.025274  -0.003825
     9  C    0.000749  -0.000014
    10  C    0.000015   0.000000
    11  H   -0.000012   0.000002
    12  H   -0.000017   0.000000
    13  H    0.000000   0.000000
    14  C   -0.028765  -0.003903
    15  H   -0.003962   0.001033
    16  C    0.000680   0.000029
    17  H    0.000013   0.000001
    18  H   -0.000016  -0.000002
    19  C    4.815060   0.387925
    20  H    0.387925   0.588889
 Mulliken atomic charges:
              1
     1  C   -0.004513
     2  C   -0.077155
     3  C   -0.076609
     4  C   -0.004513
     5  C   -0.077155
     6  H    0.079219
     7  H    0.077691
     8  H    0.079219
     9  C   -0.076378
    10  C   -0.154816
    11  H    0.076330
    12  H    0.076886
    13  H    0.079346
    14  C   -0.076378
    15  H    0.076886
    16  C   -0.154816
    17  H    0.076330
    18  H    0.079346
    19  C   -0.076609
    20  H    0.077691
 Sum of Mulliken charges=   0.00000
 Atomic charges with hydrogens summed into heavy atoms:
              1
     1  C   -0.004513
     2  C    0.002063
     3  C    0.001082
     4  C   -0.004513
     5  C    0.002063
     6  H    0.000000
     7  H    0.000000
     8  H    0.000000
     9  C    0.000508
    10  C    0.000860
    11  H    0.000000
    12  H    0.000000
    13  H    0.000000
    14  C    0.000508
    15  H    0.000000
    16  C    0.000860
    17  H    0.000000
    18  H    0.000000
    19  C    0.001082
    20  H    0.000000
 Sum of Mulliken charges=   0.00000
 APT atomic charges:
              1
     1  C    0.021502
     2  C   -0.079686
     3  C   -0.083002
     4  C    0.021502
     5  C   -0.079686
     6  H    0.058835
     7  H    0.057849
     8  H    0.058835
     9  C    0.038356
    10  C   -0.167047
    11  H    0.050754
    12  H    0.023536
    13  H    0.078905
    14  C    0.038356
    15  H    0.023536
    16  C   -0.167047
    17  H    0.050754
    18  H    0.078905
    19  C   -0.083002
    20  H    0.057849
 Sum of APT charges=   0.00000
 APT Atomic charges with hydrogens summed into heavy atoms:
              1
     1  C    0.021502
     2  C   -0.020852
     3  C   -0.025154
     4  C    0.021502
     5  C   -0.020852
     6  H    0.000000
     7  H    0.000000
     8  H    0.000000
     9  C    0.061891
    10  C   -0.037389
    11  H    0.000000
    12  H    0.000000
    13  H    0.000000
    14  C    0.061891
    15  H    0.000000
    16  C   -0.037389
    17  H    0.000000
    18  H    0.000000
    19  C   -0.025154
    20  H    0.000000
 Sum of APT charges=   0.00000
 Electronic spatial extent (au):  <R**2>=  1861.7257
 Charge=     0.0000 electrons
 Dipole moment (field-independent basis, Debye):
    X=     0.0000    Y=     0.0000    Z=     0.0000  Tot=     0.0000
 Quadrupole moment (field-independent basis, Debye-Ang):
   XX=   -50.2216   YY=   -50.7167   ZZ=   -58.6253
   XY=    -0.0592   XZ=     0.0000   YZ=     0.0000
 Traceless Quadrupole moment (field-independent basis, Debye-Ang):
   XX=     2.9663   YY=     2.4712   ZZ=    -5.4375
   XY=    -0.0592   XZ=     0.0000   YZ=     0.0000
 Octapole moment (field-independent basis, Debye-Ang**2):
  XXX=     0.0000  YYY=     0.0000  ZZZ=     0.0000  XYY=     0.0000
  XXY=     0.0000  XXZ=     0.0000  XZZ=     0.0000  YZZ=     0.0000
  YYZ=     0.0000  XYZ=     0.0000
 Hexadecapole moment (field-independent basis, Debye-Ang**3):
 XXXX=  -330.0945 YYYY= -1861.9930 ZZZZ=   -47.6115 XXXY=    13.8194
 XXXZ=     0.0000 YYYX=     8.0841 YYYZ=     0.0000 ZZZX=     0.0000
 ZZZY=     0.0000 XXYY=  -367.7212 XXZZ=   -72.2590 YYZZ=  -367.5321
 XXYZ=     0.0000 YYXZ=     0.0000 ZZXY=     5.8264
 N-N= 4.458993288870D+02 E-N=-1.776414687475D+03  KE= 3.758473468954D+02
 Symmetry AG   KE= 1.814054756938D+02
 Symmetry BG   KE= 7.823291432164D+00
 Symmetry AU   KE= 4.696947505287D+00
 Symmetry BU   KE= 1.819216322641D+02
  Exact polarizability:  68.238   6.778 143.010   0.000   0.000  11.343
 Approx polarizability: 124.068  22.165 223.847   0.000   0.000  13.774
 No NMR shielding tensors so no spin-rotation constants.
 Leave Link  601 at Sun Mar 19 18:05:14 2006, MaxMem=   13107200 cpu:       1.0
 (Enter C:\Gaussian\l701.exe)
 Compute integral second derivatives.
 ... and contract with generalized density number  0.
 Leave Link  701 at Sun Mar 19 18:05:17 2006, MaxMem=   13107200 cpu:       1.0
 (Enter C:\Gaussian\l702.exe)
 L702 exits ... SP integral derivatives will be done elsewhere.
 Leave Link  702 at Sun Mar 19 18:05:19 2006, MaxMem=   13107200 cpu:       1.0
 (Enter C:\Gaussian\l703.exe)
 Compute integral second derivatives, UseDBF=F.
 Integral derivatives from FoFDir, PRISM(SPDF).
 Petite list used in FoFDir.
 MinBra= 0 MaxBra= 1 Meth= 1.
 IRaf=       0 NMat=   1 IRICut=       1 DoRegI=T DoRafI=F ISym2E= 1 JSym2E=1.
 Leave Link  703 at Sun Mar 19 18:08:34 2006, MaxMem=   13107200 cpu:     194.0
 (Enter C:\Gaussian\l716.exe)
 Dipole        =-6.07657894D-15 2.54261735D-14 1.23080354D-33
 Polarizability= 6.82381531D+01 6.77760234D+00 1.43009894D+02
                -3.50998612D-11-3.07559275D-10 1.13434632D+01
 ***** Axes restored to original set *****
 -------------------------------------------------------------------
 Center     Atomic                   Forces (Hartrees/Bohr)
 Number     Number              X              Y              Z
 -------------------------------------------------------------------
    1          6          -0.000017487    0.000000000   -0.000046490
    2          6          -0.000034923    0.000000000    0.000009109
    3          6           0.000018504    0.000000000   -0.000001557
    4          6           0.000017487    0.000000000    0.000046490
    5          6           0.000034923    0.000000000   -0.000009109
    6          1           0.000001512    0.000000000   -0.000004674
    7          1          -0.000008082    0.000000000    0.000003389
    8          1          -0.000001512    0.000000000    0.000004674
    9          6          -0.000034605    0.000000000   -0.000043229
   10          6           0.000011772    0.000000000   -0.000002230
   11          1           0.000008207    0.000000000    0.000013655
   12          1          -0.000003352    0.000000000    0.000008411
   13          1          -0.000005130    0.000000000    0.000006983
   14          6           0.000034605    0.000000000    0.000043229
   15          1           0.000003352    0.000000000   -0.000008411
   16          6          -0.000011772    0.000000000    0.000002230
   17          1          -0.000008207    0.000000000   -0.000013655
   18          1           0.000005130    0.000000000   -0.000006983
   19          6          -0.000018504    0.000000000    0.000001557
   20          1           0.000008082    0.000000000   -0.000003389
 -------------------------------------------------------------------
 Cartesian Forces:  Max     0.000046490 RMS     0.000016162
 ------------------------------------------------------------------------
           Internal Coordinate Forces (Hartree/Bohr or radian)
 Cent Atom N1     Length/X     N2     Alpha/Y      N3      Beta/Z       J
 ------------------------------------------------------------------------
   1  C 
   2  C     1   0.000030(   1)
   3  C     2   0.000037(   2)  1   0.000289(  20)
   4  C     3   0.000004(   3)  2   0.000252(  21)  1   0.000000(  38)  0
   5  C     4   0.000006(   4)  3   0.000075(  22)  2   0.000000(  39)  0
   6  H     2  -0.000004(   5)  1  -0.000007(  23)  5   0.000000(  40)  0
   7  H     3   0.000004(   6)  2  -0.000017(  24)  1   0.000000(  41)  0
   8  H     5  -0.000004(   7)  4  -0.000007(  25)  3   0.000000(  42)  0
   9  C     4  -0.000028(   8)  3  -0.000099(  26)  2   0.000000(  43)  0
  10  C     9   0.000008(   9)  4   0.000098(  27)  3   0.000000(  44)  0
  11  H    10  -0.000012(  10)  9   0.000023(  28)  4   0.000000(  45)  0
  12  H     9   0.000009(  11)  4  -0.000004(  29)  3   0.000000(  46)  0
  13  H    10   0.000000(  12)  9  -0.000018(  30)  4   0.000000(  47)  0
  14  C     1  -0.000028(  13)  2   0.000099(  31)  3   0.000000(  48)  0
  15  H    14   0.000009(  14)  1  -0.000004(  32)  2   0.000000(  49)  0
  16  C    14   0.000008(  15)  1   0.000098(  33)  2   0.000000(  50)  0
  17  H    16  -0.000012(  16) 14   0.000023(  34)  1   0.000000(  51)  0
  18  H    16   0.000000(  17) 14  -0.000018(  35)  1   0.000000(  52)  0
  19  C     5   0.000010(  18)  4   0.000007(  36)  3   0.000000(  53)  0
  20  H    19   0.000004(  19)  5  -0.000017(  37)  4   0.000000(  54)  0
 ------------------------------------------------------------------------
 Internal  Forces:  Max     0.000289331 RMS     0.000060614
 Leave Link  716 at Sun Mar 19 18:08:36 2006, MaxMem=   13107200 cpu:       0.0
 (Enter C:\Gaussian\l106.exe)
 NDeriv=   3 NFrqRd=  0 LFDDif=       0
 NDeriv=   3 NFrqRd=  0 LFDDif=       0
 D2Numr ... symmetry will be used.
 Leave Link  106 at Sun Mar 19 18:08:41 2006, MaxMem=   13107200 cpu:       3.0
 (Enter C:\Gaussian\l301.exe)
 Standard basis: STO-3G (5D, 7F)
 The following finite field(s) will be applied:
 An electric field of              0.0019  0.0000  0.0000
 Integral buffers will be    262144 words long.
 Raffenetti 2 integral format.
 Two-electron integral symmetry is turned off.
    60 basis functions,   180 primitive gaussians,    60 cartesian basis functions
    35 alpha electrons       35 beta electrons
       nuclear repulsion energy       445.8993288870 Hartrees.
 IExCor= 402 DFT=T Ex=B+HF Corr=LYP ExCW=0 ScaHFX=  0.200000
 ScaDFX=  0.800000  0.720000  1.000000  0.810000
 IRadAn=      0 IRanWt=     -1 IRanGd=            0 ICorTp=0
 NAtoms=   20 NActive=   20 NUniq=   20 SFac= 1.00D+00 NAtFMM=   60 Big=F
 Leave Link  301 at Sun Mar 19 18:08:45 2006, MaxMem=   13107200 cpu:       2.0
 (Enter C:\Gaussian\l302.exe)
 NPDir=0 NMtPBC=     1 NCelOv=     1 NCel=       1 NClECP=     1 NCelD=      1
         NCelK=      1 NCelE2=     1 NClLst=     1 CellRange=     0.0.
 One-electron integrals computed using PRISM.
 NBasis=    60 RedAO= T  NBF=    60
 NBsUse=    60 1.00D-06 NBFU=    60
 Precomputing XC quadrature grid using
 IXCGrd= 2 IRadAn=           0 IRanWt=          -1 IRanGd=           0.
 NRdTot=    1258 NPtTot=      160096 NUsed=      165798 NTot=      165814
 NSgBfM=    59    59    59    59.
 Leave Link  302 at Sun Mar 19 18:08:54 2006, MaxMem=   13107200 cpu:       4.0
 (Enter C:\Gaussian\l303.exe)
 DipDrv:  MaxL=1.
 The nuclear repulsion energy is now       445.8993288870 hartrees.
 Leave Link  303 at Sun Mar 19 18:08:56 2006, MaxMem=   13107200 cpu:       0.0
 (Enter C:\Gaussian\l401.exe)
 Initial guess read from the read-write file:
 Guess basis will be translated and rotated to current coordinates.
 Leave Link  401 at Sun Mar 19 18:08:59 2006, MaxMem=   13107200 cpu:       1.0
 (Enter C:\Gaussian\l502.exe)
 Closed shell SCF:
 Requested convergence on RMS density matrix=1.00D-08 within 128 cycles.
 Requested convergence on MAX density matrix=1.00D-06.
 Requested convergence on             energy=1.00D-06.
 No special actions if energy rises.
 Using DIIS extrapolation, IDIIS=  1040.
 Two-electron integral symmetry not used.
       165797 words used for storage of precomputed grid.
 Keep R1 integrals in memory in canonical form, NReq=     2382239.
 IEnd=    195230 IEndB=    195230 NGot=  13107200 MDV=  11256892
 LenX=  11256892
 Symmetry not used in FoFDir.
 MinBra= 0 MaxBra= 1 Meth= 1.
 IRaf=       0 NMat=   1 IRICut=       1 DoRegI=T DoRafI=F ISym2E= 0 JSym2E=0.

 Cycle   1  Pass 1  IDiag  1:
 E= -382.308266580315    
 DIIS: error= 1.02D-03 at cycle   1 NSaved=   1.
 NSaved= 1 IEnMin= 1 EnMin= -382.308266580315     IErMin= 1 ErrMin= 1.02D-03
 ErrMax= 1.02D-03 EMaxC= 1.00D-01 BMatC= 5.71D-05 BMatP= 5.71D-05
 IDIUse=3 WtCom= 9.90D-01 WtEn= 1.02D-02
 Coeff-Com:  0.100D+01
 Coeff-En:   0.100D+01
 Coeff:      0.100D+01
 Gap=     0.191 Goal=   None    Shift=    0.000
 GapD=    0.191 DampG=1.000 DampE=1.000 DampFc=1.0000 IDamp=-1.
 RMSDP=4.72D-04 MaxDP=6.16D-03              OVMax= 0.00D+00

 Cycle   2  Pass 1  IDiag  1:
 E= -382.308246208820     Delta-E=        0.000020371495 Rises=F Damp=F
 DIIS: error= 1.49D-03 at cycle   2 NSaved=   2.
 NSaved= 2 IEnMin= 1 EnMin= -382.308266580315     IErMin= 1 ErrMin= 1.02D-03
 ErrMax= 1.49D-03 EMaxC= 1.00D-01 BMatC= 9.09D-05 BMatP= 5.71D-05
 IDIUse=3 WtCom= 2.06D-01 WtEn= 7.94D-01
 Coeff-Com:  0.568D+00 0.432D+00
 Coeff-En:   0.542D+00 0.458D+00
 Coeff:      0.547D+00 0.453D+00
 Gap=     0.190 Goal=   None    Shift=    0.000
 RMSDP=2.89D-04 MaxDP=4.14D-03 DE= 2.04D-05 OVMax= 0.00D+00

 Cycle   3  Pass 1  IDiag  1:
 E= -382.308375870448     Delta-E=       -0.000129661629 Rises=F Damp=F
 DIIS: error= 4.33D-04 at cycle   3 NSaved=   3.
 NSaved= 3 IEnMin= 3 EnMin= -382.308375870448     IErMin= 3 ErrMin= 4.33D-04
 ErrMax= 4.33D-04 EMaxC= 1.00D-01 BMatC= 9.61D-06 BMatP= 5.71D-05
 IDIUse=3 WtCom= 9.96D-01 WtEn= 4.33D-03
 Coeff-Com:  0.166D+00 0.254D+00 0.580D+00
 Coeff-En:   0.000D+00 0.466D-01 0.953D+00
 Coeff:      0.165D+00 0.253D+00 0.581D+00
 Gap=     0.191 Goal=   None    Shift=    0.000
 RMSDP=7.01D-05 MaxDP=1.26D-03 DE=-1.30D-04 OVMax= 0.00D+00

 Cycle   4  Pass 1  IDiag  1:
 E= -382.308387896532     Delta-E=       -0.000012026084 Rises=F Damp=F
 DIIS: error= 1.09D-04 at cycle   4 NSaved=   4.
 NSaved= 4 IEnMin= 4 EnMin= -382.308387896532     IErMin= 4 ErrMin= 1.09D-04
 ErrMax= 1.09D-04 EMaxC= 1.00D-01 BMatC= 3.99D-07 BMatP= 9.61D-06
 IDIUse=3 WtCom= 9.99D-01 WtEn= 1.09D-03
 Coeff-Com:  0.977D-01 0.152D+00 0.370D+00 0.381D+00
 Coeff-En:   0.000D+00 0.000D+00 0.000D+00 0.100D+01
 Coeff:      0.976D-01 0.152D+00 0.369D+00 0.382D+00
 Gap=     0.191 Goal=   None    Shift=    0.000
 RMSDP=1.38D-05 MaxDP=2.51D-04 DE=-1.20D-05 OVMax= 0.00D+00

 Cycle   5  Pass 1  IDiag  1:
 E= -382.308388415768     Delta-E=       -0.000000519236 Rises=F Damp=F
 DIIS: error= 9.62D-06 at cycle   5 NSaved=   5.
 NSaved= 5 IEnMin= 5 EnMin= -382.308388415768     IErMin= 5 ErrMin= 9.62D-06
 ErrMax= 9.62D-06 EMaxC= 1.00D-01 BMatC= 3.95D-09 BMatP= 3.99D-07
 IDIUse=1 WtCom= 1.00D+00 WtEn= 0.00D+00
 Coeff-Com:  0.690D-02 0.804D-02 0.354D-01 0.699D-01 0.880D+00
 Coeff:      0.690D-02 0.804D-02 0.354D-01 0.699D-01 0.880D+00
 Gap=     0.191 Goal=   None    Shift=    0.000
 RMSDP=1.66D-06 MaxDP=2.19D-05 DE=-5.19D-07 OVMax= 0.00D+00

 Cycle   6  Pass 1  IDiag  1:
 E= -382.308388420276     Delta-E=       -0.000000004508 Rises=F Damp=F
 DIIS: error= 4.91D-06 at cycle   6 NSaved=   6.
 NSaved= 6 IEnMin= 6 EnMin= -382.308388420276     IErMin= 6 ErrMin= 4.91D-06
 ErrMax= 4.91D-06 EMaxC= 1.00D-01 BMatC= 6.87D-10 BMatP= 3.95D-09
 IDIUse=1 WtCom= 1.00D+00 WtEn= 0.00D+00
 Coeff-Com: -0.548D-03-0.263D-02 0.385D-02 0.211D-01 0.494D+00 0.484D+00
 Coeff:     -0.548D-03-0.263D-02 0.385D-02 0.211D-01 0.494D+00 0.484D+00
 Gap=     0.191 Goal=   None    Shift=    0.000
 RMSDP=7.54D-07 MaxDP=1.26D-05 DE=-4.51D-09 OVMax= 0.00D+00

 Cycle   7  Pass 1  IDiag  1:
 E= -382.308388421253     Delta-E=       -0.000000000976 Rises=F Damp=F
 DIIS: error= 9.30D-07 at cycle   7 NSaved=   7.
 NSaved= 7 IEnMin= 7 EnMin= -382.308388421253     IErMin= 7 ErrMin= 9.30D-07
 ErrMax= 9.30D-07 EMaxC= 1.00D-01 BMatC= 4.60D-11 BMatP= 6.87D-10
 IDIUse=1 WtCom= 1.00D+00 WtEn= 0.00D+00
 Coeff-Com: -0.971D-03-0.204D-02-0.226D-02-0.130D-02 0.769D-01 0.218D+00
 Coeff-Com:  0.711D+00
 Coeff:     -0.971D-03-0.204D-02-0.226D-02-0.130D-02 0.769D-01 0.218D+00
 Coeff:      0.711D+00
 Gap=     0.191 Goal=   None    Shift=    0.000
 RMSDP=1.46D-07 MaxDP=1.98D-06 DE=-9.76D-10 OVMax= 0.00D+00

 Cycle   8  Pass 1  IDiag  1:
 E= -382.308388421309     Delta-E=       -0.000000000056 Rises=F Damp=F
 DIIS: error= 1.36D-07 at cycle   8 NSaved=   8.
 NSaved= 8 IEnMin= 8 EnMin= -382.308388421309     IErMin= 8 ErrMin= 1.36D-07
 ErrMax= 1.36D-07 EMaxC= 1.00D-01 BMatC= 1.60D-12 BMatP= 4.60D-11
 IDIUse=1 WtCom= 1.00D+00 WtEn= 0.00D+00
 Coeff-Com: -0.287D-03-0.581D-03-0.825D-03-0.171D-02 0.115D-02 0.618D-01
 Coeff-Com:  0.251D+00 0.690D+00
 Coeff:     -0.287D-03-0.581D-03-0.825D-03-0.171D-02 0.115D-02 0.618D-01
 Coeff:      0.251D+00 0.690D+00
 Gap=     0.191 Goal=   None    Shift=    0.000
 RMSDP=3.21D-08 MaxDP=3.60D-07 DE=-5.62D-11 OVMax= 0.00D+00

 Cycle   9  Pass 1  IDiag  1:
 E= -382.308388421314     Delta-E=       -0.000000000005 Rises=F Damp=F
 DIIS: error= 2.39D-08 at cycle   9 NSaved=   9.
 NSaved= 9 IEnMin= 9 EnMin= -382.308388421314     IErMin= 9 ErrMin= 2.39D-08
 ErrMax= 2.39D-08 EMaxC= 1.00D-01 BMatC= 3.68D-14 BMatP= 1.60D-12
 IDIUse=1 WtCom= 1.00D+00 WtEn= 0.00D+00
 Coeff-Com:  0.102D-04 0.146D-04 0.205D-04-0.184D-03-0.333D-02-0.285D-02
 Coeff-Com: -0.465D-02 0.812D-01 0.930D+00
 Coeff:      0.102D-04 0.146D-04 0.205D-04-0.184D-03-0.333D-02-0.285D-02
 Coeff:     -0.465D-02 0.812D-01 0.930D+00
 Gap=     0.191 Goal=   None    Shift=    0.000
 RMSDP=5.14D-09 MaxDP=7.56D-08 DE=-5.00D-12 OVMax= 0.00D+00

 SCF Done:  E(RB+HF-LYP) =  -382.308388421     A.U. after    9 cycles
             Convg  =    0.5139D-08             -V/T =  2.0172
             S**2   =   0.0000
 KE= 3.758474848412D+02 PE=-1.776414990849D+03 EE= 5.723597886995D+02
 Leave Link  502 at Sun Mar 19 18:11:52 2006, MaxMem=   13107200 cpu:     171.0
 (Enter C:\Gaussian\l801.exe)
 Range of M.O.s used for correlation:     1    60
 NBasis=    60 NAE=    35 NBE=    35 NFC=     0 NFV=     0
 NROrb=     60 NOA=    35 NOB=    35 NVA=    25 NVB=    25
 Leave Link  801 at Sun Mar 19 18:11:54 2006, MaxMem=   13107200 cpu:       0.0
 (Enter C:\Gaussian\l1101.exe)
 Using compressed storage, NAtomX=    20.
 Will process  21 centers per pass.
 Leave Link 1101 at Sun Mar 19 18:11:57 2006, MaxMem=   13107200 cpu:       1.0
 (Enter C:\Gaussian\l1102.exe)
 Use density number 0.
 DDipDN:  doing centers     0 through    20.
 Symmetrizing basis deriv contribution to polar:
 IMax=3 JMax=2 DiffMx= 0.00D+00
 Leave Link 1102 at Sun Mar 19 18:11:59 2006, MaxMem=   13107200 cpu:       0.0
 (Enter C:\Gaussian\l1110.exe)
 Forming Gx(P) for the SCF density, NAtomX=    20.
 Integral derivatives from FoFDir, PRISM(SPDF).
 Do as many integral derivatives as possible in FoFDir.
 G2DrvN: MDV=      13107078.
 G2DrvN: will do   21 centers at a time, making    1 passes doing MaxLOS=1.
 Symmetry not used in FoFDir.
 MinBra= 0 MaxBra= 1 Meth= 1.
 IRaf=       0 NMat=   1 IRICut=       1 DoRegI=T DoRafI=F ISym2E= 0 JSym2E=0.
 FoFDir/FoFCou used for L=0 through L=1.
 Leave Link 1110 at Sun Mar 19 18:24:17 2006, MaxMem=   13107200 cpu:     736.0
 (Enter C:\Gaussian\l1002.exe)
 Minotr:  Closed-shell wavefunction.
          Direct CPHF calculation.
          Solving linear equations simultaneously.
          Differentiating once with respect to electric field.
                with respect to dipole field.
          Requested convergence is 1.0D-08 RMS, and 1.0D-07 maximum.
          Secondary convergence is 1.0D-12 RMS, and 1.0D-12 maximum.
          NewPWx=F KeepS1=T KeepF1=T KeepIn=T MapXYZ=F.
          MDV=      13107200 using IRadAn=       1.
          Store integrals in memory, NReq=     2075834.
 Symmetry not used in FoFDir.
 MinBra= 0 MaxBra= 1 Meth= 1.
 IRaf=       0 NMat=   1 IRICut=       1 DoRegI=T DoRafI=F ISym2E= 0 JSym2E=0.
 CalDSu exits because no D1Ps are significant.
          There are   3 degrees of freedom in the 1st order CPHF.
     3 vectors were produced by pass  0.
 AX will form   3 AO Fock derivatives at one time.
     3 vectors were produced by pass  1.
     3 vectors were produced by pass  2.
     3 vectors were produced by pass  3.
     3 vectors were produced by pass  4.
     3 vectors were produced by pass  5.
     3 vectors were produced by pass  6.
     2 vectors were produced by pass  7.
     2 vectors were produced by pass  8.
     2 vectors were produced by pass  9.
     2 vectors were produced by pass 10.
     2 vectors were produced by pass 11.
     1 vectors were produced by pass 12.
     1 vectors were produced by pass 13.
 Inv2:  IOpt= 1 Iter= 1 AM= 5.69D-16 Conv= 1.00D-12.
 Inverted reduced A of dimension   33 with in-core refinement.
 SCF Polarizability for W=    0.000000:
                1             2             3
      1  0.682383D+02
      2  0.677802D+01  0.143006D+03
      3  0.000000D+00  0.000000D+00  0.113436D+02
 Isotropic polarizability for W=    0.000000       74.20 Bohr**3.
 End of Minotr Frequency-dependent properties file   721 does not exist.
 Leave Link 1002 at Sun Mar 19 18:30:47 2006, MaxMem=   13107200 cpu:     388.0
 (Enter C:\Gaussian\l601.exe)
 Copying SCF densities to generalized density rwf, ISCF=0 IROHF=0.

 **********************************************************************

            Population analysis using the SCF density.

 **********************************************************************

 Alpha  occ. eigenvalues --  -10.02039 -10.01998 -10.00871 -10.00759 -10.00751
 Alpha  occ. eigenvalues --  -10.00685 -10.00600 -10.00510  -9.99275  -9.99191
 Alpha  occ. eigenvalues --   -0.80952  -0.75400  -0.71798  -0.69978  -0.66751
 Alpha  occ. eigenvalues --   -0.58870  -0.55894  -0.53168  -0.51018  -0.45747
 Alpha  occ. eigenvalues --   -0.43937  -0.41064  -0.39796  -0.39604  -0.37396
 Alpha  occ. eigenvalues --   -0.35122  -0.34719  -0.32452  -0.31124  -0.29276
 Alpha  occ. eigenvalues --   -0.28742  -0.26355  -0.21247  -0.19502  -0.15309
 Alpha virt. eigenvalues --    0.03742   0.09034   0.11063   0.18221   0.27253
 Alpha virt. eigenvalues --    0.33193   0.34098   0.37930   0.38141   0.41015
 Alpha virt. eigenvalues --    0.41271   0.42688   0.43967   0.45271   0.47831
 Alpha virt. eigenvalues --    0.52626   0.54584   0.57601   0.59946   0.62499
 Alpha virt. eigenvalues --    0.63973   0.68280   0.71725   0.77957   0.79459
          Condensed to atoms (all electrons):
              1          2          3          4          5          6
     1  C    4.779024   0.488243  -0.027143  -0.009776  -0.026987  -0.024504
     2  C    0.488243   4.808986   0.508742  -0.026975  -0.010504   0.388050
     3  C   -0.027143   0.508742   4.812906   0.488664  -0.030725  -0.025114
     4  C   -0.009776  -0.026975   0.488664   4.778400   0.488402   0.001329
     5  C   -0.026987  -0.010504  -0.030725   0.488402   4.812421   0.000032
     6  H   -0.024504   0.388050  -0.025114   0.001329   0.000032   0.582581
     7  H    0.001332  -0.025033   0.388141  -0.025187   0.001338  -0.003825
     8  H    0.001332   0.000032   0.001351  -0.024620   0.387693   0.000002
     9  C    0.000016   0.000819  -0.028696   0.411744  -0.024120  -0.000015
    10  C    0.000000  -0.000007   0.000680  -0.023839  -0.003975   0.000000
    11  H    0.000000   0.000000   0.000012  -0.003540  -0.000572   0.000000
    12  H   -0.000001   0.000022  -0.003951  -0.025921   0.001084  -0.000002
    13  H    0.000000   0.000000  -0.000016   0.001320   0.000018   0.000000
    14  C    0.411964  -0.024023   0.000750   0.000016   0.000817  -0.003037
    15  H   -0.026219   0.001088  -0.000017  -0.000001   0.000022   0.000019
    16  C   -0.023749  -0.003963   0.000015   0.000000  -0.000007  -0.000605
    17  H   -0.003527  -0.000554  -0.000012   0.000000   0.000000   0.000558
    18  H    0.001320   0.000018   0.000000   0.000000   0.000000  -0.000017
    19  C    0.488931  -0.030699  -0.011067  -0.027158   0.509160   0.001342
    20  H   -0.025422   0.001347   0.000039   0.001337  -0.025380  -0.000034
              7          8          9         10         11         12
     1  C    0.001332   0.001332   0.000016   0.000000   0.000000  -0.000001
     2  C   -0.025033   0.000032   0.000819  -0.000007   0.000000   0.000022
     3  C    0.388141   0.001351  -0.028696   0.000680   0.000012  -0.003951
     4  C   -0.025187  -0.024620   0.411744  -0.023839  -0.003540  -0.025921
     5  C    0.001338   0.387693  -0.024120  -0.003975  -0.000572   0.001084
     6  H   -0.003825   0.000002  -0.000015   0.000000   0.000000  -0.000002
     7  H    0.583166  -0.000034  -0.003893   0.000030   0.000001   0.001019
     8  H   -0.000034   0.591405  -0.003043  -0.000610   0.000567   0.000019
     9  C   -0.003893  -0.003043   4.797182   0.586114  -0.023951   0.386440
    10  C    0.000030  -0.000610   0.586114   4.850873   0.385733  -0.027483
    11  H    0.000001   0.000567  -0.023951   0.385733   0.591533   0.002044
    12  H    0.001019   0.000019   0.386440  -0.027483   0.002044   0.590506
    13  H   -0.000002  -0.000017  -0.023964   0.388408  -0.023872  -0.005084
    14  C   -0.000014  -0.000015   0.000000   0.000000   0.000000   0.000000
    15  H    0.000000  -0.000002   0.000000   0.000000   0.000000   0.000000
    16  C    0.000000   0.000000   0.000000   0.000000   0.000000   0.000000
    17  H    0.000002   0.000000   0.000000   0.000000   0.000000   0.000000
    18  H    0.000000   0.000000   0.000000   0.000000   0.000000   0.000000
    19  C    0.000039  -0.025434   0.000748   0.000015  -0.000012  -0.000017
    20  H    0.000002  -0.003826  -0.000014   0.000000   0.000002   0.000000
             13         14         15         16         17         18
     1  C    0.000000   0.411964  -0.026219  -0.023749  -0.003527   0.001320
     2  C    0.000000  -0.024023   0.001088  -0.003963  -0.000554   0.000018
     3  C   -0.000016   0.000750  -0.000017   0.000015  -0.000012   0.000000
     4  C    0.001320   0.000016  -0.000001   0.000000   0.000000   0.000000
     5  C    0.000018   0.000817   0.000022  -0.000007   0.000000   0.000000
     6  H    0.000000  -0.003037   0.000019  -0.000605   0.000558  -0.000017
     7  H   -0.000002  -0.000014   0.000000   0.000000   0.000002   0.000000
     8  H   -0.000017  -0.000015  -0.000002   0.000000   0.000000   0.000000
     9  C   -0.023964   0.000000   0.000000   0.000000   0.000000   0.000000
    10  C    0.388408   0.000000   0.000000   0.000000   0.000000   0.000000
    11  H   -0.023872   0.000000   0.000000   0.000000   0.000000   0.000000
    12  H   -0.005084   0.000000   0.000000   0.000000   0.000000   0.000000
    13  H    0.583240   0.000000   0.000000   0.000000   0.000000   0.000000
    14  C    0.000000   4.799354   0.386051   0.586078  -0.023680  -0.024126
    15  H    0.000000   0.386051   0.600422  -0.027835   0.002044  -0.005096
    16  C    0.000000   0.586078  -0.027835   4.848777   0.386152   0.388122
    17  H    0.000000  -0.023680   0.002044   0.386152   0.581980  -0.023582
    18  H    0.000000  -0.024126  -0.005096   0.388122  -0.023582   0.584656
    19  C    0.000000  -0.028834  -0.003973   0.000680   0.000013  -0.000016
    20  H    0.000000  -0.003914   0.001047   0.000029   0.000001  -0.000002
             19         20
     1  C    0.488931  -0.025422
     2  C   -0.030699   0.001347
     3  C   -0.011067   0.000039
     4  C   -0.027158   0.001337
     5  C    0.509160  -0.025380
     6  H    0.001342  -0.000034
     7  H    0.000039   0.000002
     8  H   -0.025434  -0.003826
     9  C    0.000748  -0.000014
    10  C    0.000015   0.000000
    11  H   -0.000012   0.000002
    12  H   -0.000017   0.000000
    13  H    0.000000   0.000000
    14  C   -0.028834  -0.003914
    15  H   -0.003973   0.001047
    16  C    0.000680   0.000029
    17  H    0.000013   0.000001
    18  H   -0.000016  -0.000002
    19  C    4.817256   0.387683
    20  H    0.387683   0.594640
 Mulliken atomic charges:
              1
     1  C   -0.004834
     2  C   -0.075591
     3  C   -0.074559
     4  C   -0.004195
     5  C   -0.078719
     6  H    0.083238
     7  H    0.082916
     8  H    0.075200
     9  C   -0.075367
    10  C   -0.155939
    11  H    0.072054
    12  H    0.081322
    13  H    0.079970
    14  C   -0.077388
    15  H    0.072449
    16  C   -0.153693
    17  H    0.080606
    18  H    0.078722
    19  C   -0.078656
    20  H    0.072464
 Sum of Mulliken charges=   0.00000
 Atomic charges with hydrogens summed into heavy atoms:
              1
     1  C   -0.004834
     2  C    0.007648
     3  C    0.008357
     4  C   -0.004195
     5  C   -0.003519
     6  H    0.000000
     7  H    0.000000
     8  H    0.000000
     9  C    0.005955
    10  C   -0.003915
    11  H    0.000000
    12  H    0.000000
    13  H    0.000000
    14  C   -0.004939
    15  H    0.000000
    16  C    0.005635
    17  H    0.000000
    18  H    0.000000
    19  C   -0.006192
    20  H    0.000000
 Sum of Mulliken charges=   0.00000
 APT atomic charges:
              1
     1  C    0.021308
     2  C   -0.077890
     3  C   -0.081765
     4  C    0.021703
     5  C   -0.081478
     6  H    0.063590
     7  H    0.064482
     8  H    0.054072
     9  C    0.039663
    10  C   -0.168927
    11  H    0.045617
    12  H    0.029115
    13  H    0.079587
    14  C    0.037061
    15  H    0.017947
    16  C   -0.165160
    17  H    0.055876
    18  H    0.078227
    19  C   -0.084236
    20  H    0.051208
 Sum of APT charges=   0.00000
 APT Atomic charges with hydrogens summed into heavy atoms:
              1
     1  C    0.021308
     2  C   -0.014300
     3  C   -0.017282
     4  C    0.021703
     5  C   -0.027406
     6  H    0.000000
     7  H    0.000000
     8  H    0.000000
     9  C    0.068778
    10  C   -0.043723
    11  H    0.000000
    12  H    0.000000
    13  H    0.000000
    14  C    0.055008
    15  H    0.000000
    16  C   -0.031058
    17  H    0.000000
    18  H    0.000000
    19  C   -0.033028
    20  H    0.000000
 Sum of APT charges=   0.00000
 Electronic spatial extent (au):  <R**2>=  1861.7259
 Charge=     0.0000 electrons
 Dipole moment (field-independent basis, Debye):
    X=    -0.3278    Y=    -0.0326    Z=     0.0000  Tot=     0.3294
 Quadrupole moment (field-independent basis, Debye-Ang):
   XX=   -50.2217   YY=   -50.7168   ZZ=   -58.6253
   XY=    -0.0593   XZ=     0.0000   YZ=     0.0000
 Traceless Quadrupole moment (field-independent basis, Debye-Ang):
   XX=     2.9662   YY=     2.4711   ZZ=    -5.4374
   XY=    -0.0593   XZ=     0.0000   YZ=     0.0000
 Octapole moment (field-independent basis, Debye-Ang**2):
  XXX=    -1.3472  YYY=    -0.8806  ZZZ=     0.0000  XYY=    -1.6768
  XXY=     0.0820  XXZ=     0.0000  XZZ=    -0.0910  YZZ=    -0.0170
  YYZ=     0.0000  XYZ=     0.0000
 Hexadecapole moment (field-independent basis, Debye-Ang**3):
 XXXX=  -330.0960 YYYY= -1861.9926 ZZZZ=   -47.6114 XXXY=    13.8197
 XXXZ=     0.0000 YYYX=     8.0831 YYYZ=     0.0000 ZZZX=     0.0000
 ZZZY=     0.0000 XXYY=  -367.7225 XXZZ=   -72.2590 YYZZ=  -367.5321
 XXYZ=     0.0000 YYXZ=     0.0000 ZZXY=     5.8264
 N-N= 4.458993288870D+02 E-N=-1.776414990431D+03  KE= 3.758474848412D+02
  Exact polarizability:  68.238   6.778 143.006   0.000   0.000  11.344
 Approx polarizability: 124.071  22.165 223.838   0.000   0.000  13.774
 No NMR shielding tensors so no spin-rotation constants.
 Leave Link  601 at Sun Mar 19 18:30:50 2006, MaxMem=   13107200 cpu:       1.0
 (Enter C:\Gaussian\l716.exe)
 Use density number 0.
 Dipole        =-1.28951081D-01-1.28084292D-02-6.35357782D-12
 Polarizability= 6.82383403D+01 6.77802456D+00 1.43005811D+02
                 4.69050409D-12-6.62084349D-13 1.13435586D+01
 -------------------------------------------------------------------
 Center     Atomic                   Forces (Hartrees/Bohr)
 Number     Number              X              Y              Z
 -------------------------------------------------------------------
    1          6           0.000322494   -0.000017698    0.000000000
    2          6           0.000068057   -0.000225331    0.000000000
    3          6          -0.000051887    0.000166444    0.000000000
    4          6           0.000248377    0.000046283    0.000000000
    5          6           0.000106514   -0.000154191    0.000000000
    6          1          -0.000121389    0.000017654    0.000000000
    7          1          -0.000130042   -0.000029296    0.000000000
    8          1          -0.000115073    0.000021982    0.000000000
    9          6           0.000023459   -0.000003978    0.000000000
   10          6           0.000078563    0.000085788    0.000000000
   11          1          -0.000064307   -0.000026721    0.000000000
   12          1          -0.000055066    0.000036003    0.000000000
   13          1          -0.000060117   -0.000080183    0.000000000
   14          6          -0.000038186    0.000091697    0.000000000
   15          1          -0.000018221    0.000032927    0.000000000
   16          6           0.000069487    0.000062862    0.000000000
   17          1          -0.000062065   -0.000052119    0.000000000
   18          1          -0.000042842   -0.000075597    0.000000000
   19          6          -0.000065051    0.000123116    0.000000000
   20          1          -0.000092707   -0.000019644    0.000000000
 -------------------------------------------------------------------
 Cartesian Forces:  Max     0.000322494 RMS     0.000084802
 Leave Link  716 at Sun Mar 19 18:30:53 2006, MaxMem=   13107200 cpu:       1.0
 (Enter C:\Gaussian\l106.exe)
 NDeriv=   3 NFrqRd=  0 LFDDif=       0
 NDeriv=   3 NFrqRd=  0 LFDDif=       0
 Re-enter D2Numr: IAtom=  0 IXYZ=1 IStep= 1.
 Skip step-back as it is equivalent to step-up.
 Leave Link  106 at Sun Mar 19 18:31:02 2006, MaxMem=   13107200 cpu:       8.0
 (Enter C:\Gaussian\l301.exe)
 Standard basis: STO-3G (5D, 7F)
 The following finite field(s) will be applied:
 An electric field of              0.0000  0.0019  0.0000
 Integral buffers will be    262144 words long.
 Raffenetti 2 integral format.
 Two-electron integral symmetry is turned off.
    60 basis functions,   180 primitive gaussians,    60 cartesian basis functions
    35 alpha electrons       35 beta electrons
       nuclear repulsion energy       445.8993288870 Hartrees.
 IExCor= 402 DFT=T Ex=B+HF Corr=LYP ExCW=0 ScaHFX=  0.200000
 ScaDFX=  0.800000  0.720000  1.000000  0.810000
 IRadAn=      0 IRanWt=     -1 IRanGd=            0 ICorTp=0
 NAtoms=   20 NActive=   20 NUniq=   20 SFac= 1.00D+00 NAtFMM=   60 Big=F
 Leave Link  301 at Sun Mar 19 18:31:05 2006, MaxMem=   13107200 cpu:       0.0
 (Enter C:\Gaussian\l302.exe)
 NPDir=0 NMtPBC=     1 NCelOv=     1 NCel=       1 NClECP=     1 NCelD=      1
         NCelK=      1 NCelE2=     1 NClLst=     1 CellRange=     0.0.
 One-electron integrals computed using PRISM.
 NBasis=    60 RedAO= T  NBF=    60
 NBsUse=    60 1.00D-06 NBFU=    60
 Precomputing XC quadrature grid using
 IXCGrd= 2 IRadAn=           0 IRanWt=          -1 IRanGd=           0.
 NRdTot=    1258 NPtTot=      160096 NUsed=      165798 NTot=      165814
 NSgBfM=    59    59    59    59.
 Leave Link  302 at Sun Mar 19 18:31:11 2006, MaxMem=   13107200 cpu:       3.0
 (Enter C:\Gaussian\l303.exe)
 DipDrv:  MaxL=1.
 The nuclear repulsion energy is now       445.8993288870 hartrees.
 Leave Link  303 at Sun Mar 19 18:31:14 2006, MaxMem=   13107200 cpu:       0.0
 (Enter C:\Gaussian\l401.exe)
 Initial guess read from the read-write file:
 Guess basis will be translated and rotated to current coordinates.
[...]
 1.616e-005|Dipole=0.,0.,0.|DipoleDeriv=0.1662168,0.,0.1239344,0.,0.027
 4543,0.,0.0520626,0.,-0.1291639,-0.0336221,0.,-0.0958003,0.,-0.0831186
 ,0.,-0.1071277,0.,-0.1223185,-0.2102312,0.,-0.0118488,0.,-0.0908927,0.
 ,-0.0188501,0.,0.0521166,0.1662169,0.,0.1239344,0.,0.0274543,0.,0.0520
 627,0.,-0.1291639,-0.0336221,0.,-0.0958003,0.,-0.0831186,0.,-0.1071277
 ,0.,-0.1223185,0.031666,0.,-0.0008538,0.,0.0791866,0.,-0.0020745,0.,0.
 0656517,0.0501473,0.,-0.0161742,0.,0.0776547,0.,-0.0230211,0.,0.045744
 2,0.031666,0.,-0.0008538,0.,0.0791866,0.,-0.0020745,0.,0.0656517,0.050
 1443,0.,0.0401762,0.,-0.0788487,0.,0.3581279,0.,0.1437722,-0.22455,0.,
 -0.0286611,0.,-0.2046235,0.,-0.1287357,0.,-0.0719685,0.0790014,0.,-0.0
 041482,0.,0.0985507,0.,-0.1392576,0.,-0.0252908,-0.0079181,0.,0.008219
 6,0.,0.0803459,0.,-0.0760616,0.,-0.0018211,0.0991456,0.,-0.0148437,0.,
 0.0942913,0.,0.0849378,0.,0.0432782,0.0501442,0.,0.0401762,0.,-0.07884
 87,0.,0.3581279,0.,0.1437722,-0.0079181,0.,0.0082196,0.,0.0803459,0.,-
 0.0760616,0.,-0.0018211,-0.22455,0.,-0.0286611,0.,-0.2046235,0.,-0.128
 7357,0.,-0.0719685,0.0790014,0.,-0.0041482,0.,0.0985507,0.,-0.1392576,
 0.,-0.0252908,0.0991456,0.,-0.0148437,0.,0.0942913,0.,0.0849378,0.,0.0
 432782,-0.2102312,0.,-0.0118488,0.,-0.0908927,0.,-0.0188501,0.,0.05211
 66,0.0501473,0.,-0.0161742,0.,0.0776547,0.,-0.0230211,0.,0.0457442|Pol
 ar=138.5947828,0.,11.3432738,19.0307048,0.,72.7330264|PolarDeriv=-52.3
 146662,0.,-0.043855,-19.3203503,0.,-6.9969142,0.,-4.8744582,0.,0.,-1.6
 861027,0.,-30.2146326,0.,0.1686501,-13.0953833,0.,-5.1098945,13.874753
 1,0.,-0.3723836,7.5339466,0.,0.4224367,0.,-0.422725,0.,0.,1.4143512,0.
 ,27.8393138,0.,0.1346892,13.2497043,0.,3.8811118,-33.610606,0.,0.09551
 03,-13.9963622,0.,-3.1426767,0.,-1.2484626,0.,0.,1.8641786,0.,1.553666
 7,0.,0.4022082,-0.4432123,0.,1.2719625,52.3146662,0.,0.043855,19.32035
 03,0.,6.9969142,0.,4.8744582,0.,0.,1.6861027,0.,30.2146326,0.,-0.16865
 01,13.0953833,0.,5.1098945,-13.8747531,0.,0.3723836,-7.5339466,0.,-0.4
 224367,0.,0.422725,0.,0.,-1.4143512,0.,-27.8393138,0.,-0.1346892,-13.2
 497043,0.,-3.8811118,-4.5166405,0.,-0.0991356,1.9501306,0.,-0.903704,0
 .,-1.27797,0.,0.,0.6918123,0.,1.5729036,0.,0.0919078,-2.4207235,0.,2.3
 921433,-0.0713547,0.,-0.029708,1.887423,0.,-0.4338602,0.,0.0874913,0.,
 0.,1.5262769,0.,0.1049115,0.,0.1563087,-0.2637805,0.,7.7186024,4.51664
 05,0.,0.0991356,-1.9501306,0.,0.903704,0.,1.27797,0.,0.,-0.6918123,0.,
 -1.5729036,0.,-0.0919078,2.4207235,0.,-2.3921433,-59.8582309,0.,-0.327
 2569,-20.1607787,0.,-6.5405603,0.,-4.9892371,0.,0.,0.2300096,0.,-8.998
 915,0.,0.4818325,-4.0482938,0.,-3.1437856,30.05841,0.,0.6001653,8.7261
 848,0.,2.7170674,0.,8.1233583,0.,0.,0.6247487,0.,-11.7825118,0.,-0.295
 8257,-3.6204066,0.,0.1437137,4.3602004,0.,-0.0567605,-1.8651005,0.,0.1
 59543,0.,-0.0855181,0.,0.,-1.1406872,0.,-1.5661023,0.,-0.1694385,2.497
 0731,0.,-3.1840592,-0.5051653,0.,0.0609364,1.6782588,0.,0.3141628,0.,0
 .6870619,0.,0.,1.5282336,0.,0.25279,0.,0.1511373,0.9580287,0.,6.654024
 4,10.1505587,0.,0.0490561,3.0377236,0.,0.862618,0.,1.0928237,0.,0.,0.9
 585858,0.,3.0864531,0.,0.2026729,4.0347605,0.,2.7577415,59.8582309,0.,
 0.3272569,20.1607787,0.,6.5405603,0.,4.9892371,0.,0.,-0.2300096,0.,8.9
 98915,0.,-0.4818325,4.0482938,0.,3.1437856,0.5051653,0.,-0.0609364,-1.
 6782588,0.,-0.3141628,0.,-0.6870619,0.,0.,-1.5282336,0.,-0.25279,0.,-0
 .1511373,-0.9580287,0.,-6.6540244,-30.05841,0.,-0.6001653,-8.7261848,0
 .,-2.7170674,0.,-8.1233583,0.,0.,-0.6247487,0.,11.7825118,0.,0.2958257
 ,3.6204066,0.,-0.1437137,-4.3602004,0.,0.0567605,1.8651005,0.,-0.15954
 3,0.,0.0855181,0.,0.,1.1406872,0.,1.5661023,0.,0.1694385,-2.4970731,0.
 ,3.1840592,-10.1505587,0.,-0.0490561,-3.0377236,0.,-0.862618,0.,-1.092
 8237,0.,0.,-0.9585858,0.,-3.0864531,0.,-0.2026729,-4.0347605,0.,-2.757
 7415,33.610606,0.,-0.0955103,13.9963622,0.,3.1426767,0.,1.2484626,0.,0
 .,-1.8641786,0.,-1.5536667,0.,-0.4022082,0.4432123,0.,-1.2719625,0.071
 3547,0.,0.029708,-1.887423,0.,0.4338602,0.,-0.0874913,0.,0.,-1.5262769
 ,0.,-0.1049115,0.,-0.1563087,0.2637805,0.,-7.7186024|HyperPolar=0.,0.,
 0.,0.,0.,0.,0.,0.,0.,0.|PG=C02H [SGH(C10H10)]|NImag=0||0.70629988,0.,0
 .15791718,-0.00382887,0.,0.72618396,-0.13803537,0.,0.05487366,0.840232
 71,0.,-0.06744746,0.,0.,0.14147029,-0.02594336,0.,-0.33616016,-0.04482
 932,0.,0.74095218,0.03879910,0.,-0.10187932,-0.32269896,0.,-0.05238495
 ,0.72920927,0.,0.00696344,0.,0.,-0.06248074,0.,0.,0.14136356,-0.030145
 68,0.,-0.03368853,-0.15508112,0.,-0.20944742,0.01926013,0.,0.85217649,
 -0.01309547,0.,0.04374765,-0.07030394,0.,-0.04160512,-0.28186496,0.,0.
 13134731,0.70629988,0.,-0.00895569,0.,0.,0.00702333,0.,0.,-0.06665363,
 0.,0.,0.15791718,0.04374765,0.,-0.06046374,0.02853309,0.,0.07647328,0.
 04634817,0.,-0.19222263,-0.00382887,0.,0.72618396,-0.07030394,0.,0.028
 53309,-0.01934239,0.,-0.03744096,0.04068387,0.,0.03383870,-0.13803537,
 0.,0.05487366,0.84023271,0.,0.00702333,0.,0.,-0.00646644,0.,0.,0.00651
 649,0.,0.,-0.06744746,0.,0.,0.14147029,-0.04160512,0.,0.07647328,-0.03
 744096,0.,-0.06351392,0.09286929,0.,-0.02549407,-0.02594336,0.,-0.3361
 6016,-0.04482932,0.,0.74095218,0.00615542,0.,-0.00573497,-0.32328851,0
 .,0.14719478,-0.01653229,0.,0.01845364,-0.00170474,0.,-0.00409152,0.00
 078619,0.,-0.00083664,0.33518078,0.,0.00276034,0.,0.,-0.04046352,0.,0.
 ,0.00370924,0.,0.,0.00884261,0.,0.,-0.00093049,0.,0.,0.02786423,0.0305
 2320,0.,-0.00848244,0.14846101,0.,-0.15083903,-0.02130069,0.,0.0118093
 0,-0.00254371,0.,-0.00215740,-0.00089974,0.,-0.00027575,-0.15256423,0.
 ,0.15219715,-0.00490127,0.,-0.00092176,0.00424883,0.,-0.03215639,-0.06
 620141,0.,0.00766433,0.00324674,0.,0.03062702,-0.00558747,0.,0.0009056
 3,0.00172143,0.,0.00019116,0.06584873,0.,0.00880431,0.,0.,0.00336360,0
 .,0.,-0.03994356,0.,0.,0.00245183,0.,0.,0.00738426,0.,0.,-0.00512174,0
 .,0.,0.02847046,-0.00237829,0.,0.00086658,0.00729904,0.,-0.00851003,0.
 00774935,0.,-0.40651850,-0.00637214,0.,-0.00801350,0.00247304,0.,0.000
 38433,0.00041692,0.,0.00134205,-0.00741752,0.,0.41861947,-0.00170474,0
 .,-0.00409152,0.00078619,0.,-0.00083664,0.00045149,0.,-0.00093404,0.00
 615542,0.,-0.00573497,-0.32328851,0.,0.14719478,-0.00018124,0.,0.00018
 805,0.00027247,0.,-0.00025746,0.33518078,0.,0.00884261,0.,0.,-0.000930
 49,0.,0.,0.00773289,0.,0.,0.00276034,0.,0.,-0.04046352,0.,0.,-0.001177
 60,0.,0.,0.00015352,0.,0.,0.02786423,-0.00254371,0.,-0.00215740,-0.000
 89974,0.,-0.00027575,-0.00245657,0.,-0.00567965,0.03052320,0.,-0.00848
 244,0.14846101,0.,-0.15083903,0.00018805,0.,0.00011112,0.00154912,0.,-
 0.00045829,-0.15256423,0.,0.15219715,-0.00569755,0.,-0.00249651,0.0028
 3057,0.,0.00926874,-0.05069773,0.,-0.01602009,-0.19385816,0.,-0.054370
 97,-0.00296339,0.,-0.02286251,-0.00061552,0.,-0.00065872,0.00152092,0.
 ,-0.00213306,-0.00078095,0.,0.00087676,0.88305138,0.,-0.00097869,0.,0.
 ,0.00740729,0.,0.,0.00394371,0.,0.,-0.06348913,0.,0.,0.00278709,0.,0.,
 0.00002691,0.,0.,-0.00387382,0.,0.,-0.00391770,0.,0.,0.13820746,-0.000
 61625,0.,-0.00059471,0.00397451,0.,-0.00091264,0.00933007,0.,0.0127462
 3,-0.08417463,0.,-0.16750253,-0.03504256,0.,-0.02092032,0.00095559,0.,
 0.00075423,0.00200951,0.,0.00155432,0.00030319,0.,0.00215937,-0.141541
 02,0.,0.76824616,0.00195273,0.,0.00165874,-0.00269981,0.,-0.00271536,0
 .00747632,0.,-0.00450107,-0.05122353,0.,-0.00556204,0.00234989,0.,0.00
 926800,-0.00016852,0.,-0.00015948,0.00010364,0.,-0.00012772,-0.0002988
 3,0.,0.00022945,-0.55556061,0.,0.18112028,0.96179936,0.,-0.00004025,0.
 ,0.,-0.00010555,0.,0.,0.00143985,0.,0.,0.00549369,0.,0.,0.00042565,0.,
 0.,-0.00011036,0.,0.,0.00012268,0.,0.,0.00022631,0.,0.,-0.05251148,0.,
 0.,0.11386219,-0.00121158,0.,-0.00003209,-0.00035281,0.,0.00148902,-0.
 00455999,0.,-0.00356408,-0.01405692,0.,0.02032442,-0.00226554,0.,-0.00
 338736,-0.00033920,0.,-0.00026083,-0.00032432,0.,0.00000526,-0.0020994
 6,0.,-0.00061084,0.15889838,0.,-0.20586847,-0.07053216,0.,0.80137491,-
 0.00000536,0.,0.00002649,0.00005280,0.,-0.00004088,0.00007046,0.,0.000
 01437,0.00242891,0.,-0.00082371,-0.00112410,0.,0.00066278,0.00000025,0
 .,0.00000574,0.00010356,0.,-0.00002225,-0.00096975,0.,-0.00125013,0.00
 066549,0.,0.03552303,-0.08307756,0.,0.06524632,0.07718836,0.,-0.000079
 21,0.,0.,0.00026420,0.,0.,0.00003370,0.,0.,-0.00823209,0.,0.,0.0001669
 0,0.,0.,-0.00000425,0.,0.,-0.00008676,0.,0.,0.00031278,0.,0.,0.0047254
 4,0.,0.,-0.03872719,0.,0.,0.02508044,-0.00009026,0.,-0.00011700,0.0001
 2458,0.,-0.00017868,-0.00008655,0.,-0.00016439,-0.00053635,0.,-0.00034
 317,-0.00169964,0.,0.00033391,-0.00000769,0.,-0.00000227,0.00002936,0.
 ,-0.00005797,-0.00087639,0.,-0.00018866,-0.00240048,0.,-0.00265777,0.0
 6706358,0.,-0.39810931,-0.07353853,0.,0.40920906,0.00011824,0.,0.00005
 195,0.00009245,0.,0.00021290,0.00164466,0.,-0.00220384,0.00347645,0.,-
 0.02967512,-0.00517462,0.,-0.00050503,-0.00001487,0.,0.00000672,-0.000
 07122,0.,0.00051016,0.00000118,0.,-0.00004363,-0.07146567,0.,0.0474291
 0,-0.00270683,0.,0.03721951,-0.00478716,0.,0.00055626,0.07682488,0.,0.
 00010093,0.,0.,-0.00002740,0.,0.,-0.00087236,0.,0.,0.00243192,0.,0.,0.
 00245137,0.,0.,0.00001551,0.,0.,-0.00005813,0.,0.,-0.00006500,0.,0.,-0
 .04418673,0.,0.,0.00568180,0.,0.,0.01405655,0.,0.,0.02999931,0.0000327
 1,0.,0.00022341,0.00005006,0.,-0.00004770,0.00253303,0.,0.00161557,0.0
 0606108,0.,-0.01285218,-0.00221972,0.,0.00053404,0.00001747,0.,0.00002
 130,-0.00048162,0.,0.00012588,-0.00000116,0.,0.00012096,0.05004020,0.,
 -0.39381446,-0.00454621,0.,-0.00458305,0.00043617,0.,0.00049454,-0.051
 99343,0.,0.40696569,0.00007924,0.,0.00016741,-0.00036987,0.,0.00038120
 ,-0.00037637,0.,-0.00096144,-0.00186635,0.,0.00335061,0.00031113,0.,0.
 00055721,-0.00007301,0.,-0.00008030,-0.00004618,0.,0.00005842,0.000059
 01,0.,-0.00007400,-0.01792697,0.,-0.02345732,-0.27403411,0.,-0.1679007
 6,0.00912443,0.,0.01159428,0.00177783,0.,-0.00019817,0.28324860,0.,0.0
 0015182,0.,0.,-0.00090242,0.,0.,0.00002966,0.,0.,0.01293476,0.,0.,-0.0
 0043644,0.,0.,0.00000846,0.,0.,0.00032681,0.,0.,0.00013788,0.,0.,0.005
 64353,0.,0.,-0.03540580,0.,0.,0.00227215,0.,0.,-0.00929735,0.,0.,0.024
 87738,-0.00005512,0.,0.00010009,0.00001053,0.,-0.00009262,0.00045627,0
 .,0.00078000,0.00184633,0.,-0.00154167,0.00019318,0.,-0.00038707,0.000
 07241,0.,0.00004852,-0.00003221,0.,0.00005970,0.00014071,0.,0.00039113
 ,0.01767065,0.,0.01198359,-0.17114575,0.,-0.20780622,-0.02588243,0.,-0
 .00851171,-0.00013822,0.,0.00182601,0.17687275,0.,0.20304863,-0.193858
 16,0.,-0.05437097,-0.00296339,0.,-0.02286251,0.00881328,0.,0.00430521,
 -0.00569755,0.,-0.00249651,0.00283057,0.,0.00926874,-0.00078095,0.,0.0
 0087676,0.00069094,0.,0.00032032,-0.00061552,0.,-0.00065872,0.00344383
 ,0.,0.00050969,-0.00144496,0.,0.00062156,0.00001789,0.,0.00001570,-0.0
 0001887,0.,-0.00001663,-0.00000392,0.,-0.00002722,0.88305138,0.,-0.063
 48913,0.,0.,0.00278709,0.,0.,0.00691539,0.,0.,-0.00097869,0.,0.,0.0074
 0729,0.,0.,-0.00391770,0.,0.,0.00015939,0.,0.,0.00002691,0.,0.,-0.0009
 9916,0.,0.,0.00009001,0.,0.,0.00005828,0.,0.,-0.00000335,0.,0.,-0.0000
 0442,0.,0.,0.13820746,-0.08417463,0.,-0.16750253,-0.03504256,0.,-0.020
 92032,0.00514248,0.,-0.00505543,-0.00061625,0.,-0.00059471,0.00397451,
 0.,-0.00091264,0.00030319,0.,0.00215937,-0.00130273,0.,-0.00039582,0.0
 0095559,0.,0.00075423,0.00050969,0.,-0.00032393,-0.00010771,0.,0.00044
 422,-0.00009406,0.,0.00018002,0.00011653,0.,0.00009110,-0.00007770,0.,
 -0.00011317,-0.14154102,0.,0.76824616,0.00347645,0.,-0.02967512,-0.005
 17462,0.,-0.00050503,0.00073277,0.,-0.00135277,0.00011824,0.,0.0000519
 5,0.00009245,0.,0.00021290,0.00000118,0.,-0.00004363,-0.00039135,0.,-0
 .00015137,-0.00001487,0.,0.00000672,-0.00001887,0.,0.00011653,-0.00004
 272,0.,-0.00004119,0.00000321,0.,-0.00002059,-0.00000109,0.,0.00000313
 ,0.00000273,0.,0.00001895,-0.07146567,0.,0.04742910,0.07682488,0.,0.00
 243192,0.,0.,0.00245137,0.,0.,-0.00000130,0.,0.,0.00010093,0.,0.,-0.00
 002740,0.,0.,-0.00006500,0.,0.,-0.00022651,0.,0.,0.00001551,0.,0.,-0.0
 0000335,0.,0.,-0.00000451,0.,0.,0.00000282,0.,0.,-0.00000040,0.,0.,0.0
 0000283,0.,0.,-0.04418673,0.,0.,0.02999931,0.00606108,0.,-0.01285218,-
 0.00221972,0.,0.00053404,0.00052147,0.,-0.00062948,0.00003271,0.,0.000
 22341,0.00005006,0.,-0.00004770,-0.00000116,0.,0.00012096,-0.00021429,
 0.,-0.00004738,0.00001747,0.,0.00002130,-0.00001663,0.,0.00009110,-0.0
 0003027,0.,-0.00003639,0.00000502,0.,-0.00001573,0.00000313,0.,-0.0000
 0589,0.00000115,0.,0.00001378,0.05004020,0.,-0.39381446,-0.05199343,0.
 ,0.40696569,-0.05122353,0.,-0.00556204,0.00234989,0.,0.00926800,-0.003
 08459,0.,0.00047331,0.00195273,0.,0.00165874,-0.00269981,0.,-0.0027153
 6,-0.00029883,0.,0.00022945,0.00006111,0.,0.00001190,-0.00016852,0.,-0
 .00015948,-0.00144496,0.,-0.00010771,0.00055247,0.,-0.00037743,0.00003
 158,0.,-0.00006026,-0.00004272,0.,-0.00003027,0.00001498,0.,0.00004021
 ,-0.55556061,0.,0.18112028,-0.00270683,0.,-0.00454621,0.96179936,0.,0.
 00549369,0.,0.,0.00042565,0.,0.,-0.00045678,0.,0.,-0.00004025,0.,0.,-0
 .00010555,0.,0.,0.00022631,0.,0.,0.00002588,0.,0.,-0.00011036,0.,0.,0.
 00009001,0.,0.,0.00001129,0.,0.,-0.00000272,0.,0.,-0.00000451,0.,0.,-0
 .00001471,0.,0.,-0.05251148,0.,0.,0.00568180,0.,0.,0.11386219,-0.01405
 692,0.,0.02032442,-0.00226554,0.,-0.00338736,0.00200152,0.,0.00073694,
 -0.00121158,0.,-0.00003209,-0.00035281,0.,0.00148902,-0.00209946,0.,-0
 .00061084,0.00000280,0.,-0.00001082,-0.00033920,0.,-0.00026083,0.00062
 156,0.,0.00044422,-0.00037743,0.,-0.00007661,0.00003906,0.,-0.00009467
 ,-0.00004119,0.,-0.00003639,0.00003222,0.,0.00006597,0.15889838,0.,-0.
 20586847,0.03721951,0.,-0.00458305,-0.07053216,0.,0.80137491,0.0024289
 1,0.,-0.00082371,-0.00112410,0.,0.00066278,0.00029822,0.,-0.00028094,-
 0.00000536,0.,0.00002649,0.00005280,0.,-0.00004088,-0.00096975,0.,-0.0
 0125013,-0.00001232,0.,-0.00002821,0.00000025,0.,0.00000574,0.00001789
 ,0.,-0.00009406,0.00003158,0.,0.00003906,-0.00000719,0.,0.00001723,0.0
 0000321,0.,0.00000502,-0.00000174,0.,-0.00001507,0.00066549,0.,0.03552
 303,-0.00478716,0.,0.00043617,-0.08307756,0.,0.06524632,0.07718836,0.,
 -0.00823209,0.,0.,0.00016690,0.,0.,0.00014693,0.,0.,-0.00007921,0.,0.,
 0.00026420,0.,0.,0.00031278,0.,0.,0.00001358,0.,0.,-0.00000425,0.,0.,0
 .00005828,0.,0.,-0.00000272,0.,0.,0.00001863,0.,0.,0.00000282,0.,0.,-0
 .00002018,0.,0.,0.00472544,0.,0.,0.01405655,0.,0.,-0.03872719,0.,0.,0.
 02508044,-0.00053635,0.,-0.00034317,-0.00169964,0.,0.00033391,-0.00007
 157,0.,0.00025817,-0.00009026,0.,-0.00011700,0.00012458,0.,-0.00017868
 ,-0.00087639,0.,-0.00018866,-0.00003139,0.,-0.00002088,-0.00000769,0.,
 -0.00000227,0.00001570,0.,0.00018002,-0.00006026,0.,-0.00009467,0.0000
 1723,0.,-0.00005246,-0.00002059,0.,-0.00001573,0.00001871,0.,0.0000389
 6,-0.00240048,0.,-0.00265777,0.00055626,0.,0.00049454,0.06706358,0.,-0
 .39810931,-0.07353853,0.,0.40920906,-0.00186635,0.,0.00335061,0.000311
 13,0.,0.00055721,0.00012365,0.,-0.00026375,0.00007924,0.,0.00016741,-0
 .00036987,0.,0.00038120,0.00005901,0.,-0.00007400,-0.00003328,0.,-0.00
 000426,-0.00007301,0.,-0.00008030,-0.00000392,0.,-0.00007770,0.0000149
 8,0.,0.00003222,-0.00000174,0.,0.00001871,0.00000273,0.,0.00000115,-0.
 00000979,0.,-0.00001625,-0.01792697,0.,-0.02345732,0.00177783,0.,-0.00
 019817,-0.27403411,0.,-0.16790076,0.00912443,0.,0.01159428,0.28324860,
 0.,0.01293476,0.,0.,-0.00043644,0.,0.,-0.00033541,0.,0.,0.00015182,0.,
 0.,-0.00090242,0.,0.,0.00013788,0.,0.,0.00000422,0.,0.,0.00000846,0.,0
 .,-0.00000442,0.,0.,-0.00001471,0.,0.,-0.00002018,0.,0.,0.00000283,0.,
 0.,0.00002722,0.,0.,0.00564353,0.,0.,-0.00929735,0.,0.,-0.03540580,0.,
 0.,0.00227215,0.,0.,0.02487738,0.00184633,0.,-0.00154167,0.00019318,0.
 ,-0.00038707,-0.00004224,0.,0.00009907,-0.00005512,0.,0.00010009,0.000
 01053,0.,-0.00009262,0.00014071,0.,0.00039113,0.00003252,0.,0.00002453
 ,0.00007241,0.,0.00004852,-0.00002722,0.,-0.00011317,0.00004021,0.,0.0
 0006597,-0.00001507,0.,0.00003896,0.00001895,0.,0.00001378,-0.00001625
 ,0.,-0.00002752,0.01767065,0.,0.01198359,-0.00013822,0.,0.00182601,-0.
 17114575,0.,-0.20780622,-0.02588243,0.,-0.00851171,0.17687275,0.,0.203
 04863,-0.28186496,0.,0.04634817,0.04068387,0.,0.09286929,-0.08607948,0
 .,-0.00350231,0.03879910,0.,-0.10187932,-0.32269896,0.,-0.05238495,0.0
 0045149,0.,-0.00245657,-0.00076731,0.,0.00007240,-0.01653229,0.,-0.021
 30069,0.00881328,0.,0.00514248,-0.00308459,0.,0.00200152,0.00029822,0.
 ,-0.00007157,0.00073277,0.,0.00052147,0.00012365,0.,-0.00004224,-0.050
 69773,0.,0.00933007,0.00164466,0.,0.00253303,0.00747632,0.,-0.00455999
 ,0.00007046,0.,-0.00008655,-0.00037637,0.,0.00045627,0.72920927,0.,-0.
 06665363,0.,0.,0.00651649,0.,0.,-0.00714725,0.,0.,0.00696344,0.,0.,-0.
 06248074,0.,0.,0.00773289,0.,0.,-0.00090382,0.,0.,0.00370924,0.,0.,0.0
 0691539,0.,0.,-0.00045678,0.,0.,0.00014693,0.,0.,-0.00000130,0.,0.,-0.
 00033541,0.,0.,0.00394371,0.,0.,-0.00087236,0.,0.,0.00143985,0.,0.,0.0
 0003370,0.,0.,0.00002966,0.,0.,0.14136356,0.13134731,0.,-0.19222263,0.
 03383870,0.,-0.02549407,-0.00350231,0.,0.00092011,-0.03014568,0.,-0.03
 368853,-0.15508112,0.,-0.20944742,-0.00093404,0.,-0.00567965,-0.000109
 96,0.,0.00132231,0.01845364,0.,0.01180930,0.00430521,0.,-0.00505543,0.
 00047331,0.,0.00073694,-0.00028094,0.,0.00025817,-0.00135277,0.,-0.000
 62948,-0.00026375,0.,0.00009907,-0.01602009,0.,0.01274623,-0.00220384,
 0.,0.00161557,-0.00450107,0.,-0.00356408,0.00001437,0.,-0.00016439,-0.
 00096144,0.,0.00078000,0.01926013,0.,0.85217649,0.00324674,0.,0.030627
 02,-0.00558747,0.,0.00090563,-0.00076731,0.,-0.00010996,-0.00490127,0.
 ,-0.00092176,0.00424883,0.,-0.03215639,0.00027247,0.,0.00154912,0.0001
 9345,0.,-0.00001925,0.00172143,0.,0.00019116,0.00069094,0.,-0.00130273
 ,0.00006111,0.,0.00000280,-0.00001232,0.,-0.00003139,-0.00039135,0.,-0
 .00021429,-0.00003328,0.,0.00003252,0.00152092,0.,0.00200951,-0.000071
 22,0.,-0.00048162,0.00010364,0.,-0.00032432,0.00010356,0.,0.00002936,-
 0.00004618,0.,-0.00003221,-0.06620141,0.,0.00766433,0.06584873,0.,0.00
 245183,0.,0.,0.00738426,0.,0.,-0.00090382,0.,0.,0.00880431,0.,0.,0.003
 36360,0.,0.,0.00015352,0.,0.,-0.00106620,0.,0.,-0.00512174,0.,0.,0.000
 15939,0.,0.,0.00002588,0.,0.,0.00001358,0.,0.,-0.00022651,0.,0.,0.0000
 0422,0.,0.,-0.00387382,0.,0.,-0.00005813,0.,0.,0.00012268,0.,0.,-0.000
 08676,0.,0.,0.00032681,0.,0.,-0.03994356,0.,0.,0.02847046,-0.00637214,
 0.,-0.00801350,0.00247304,0.,0.00038433,0.00007240,0.,0.00132231,-0.00
 237829,0.,0.00086658,0.00729904,0.,-0.00851003,-0.00025746,0.,-0.00045
 829,-0.00001925,0.,-0.00027122,0.00041692,0.,0.00134205,0.00032032,0.,
 -0.00039582,0.00001190,0.,-0.00001082,-0.00002821,0.,-0.00002088,-0.00
 015137,0.,-0.00004738,-0.00000426,0.,0.00002453,-0.00213306,0.,0.00155
 432,0.00051016,0.,0.00012588,-0.00012772,0.,0.00000526,-0.00002225,0.,
 -0.00005797,0.00005842,0.,0.00005970,0.00774935,0.,-0.40651850,-0.0074
 1752,0.,0.41861947||0.00001749,0.,0.00004649,0.00003492,0.,-0.00000911
 ,-0.00001850,0.,0.00000156,-0.00001749,0.,-0.00004649,-0.00003492,0.,0
 .00000911,-0.00000151,0.,0.00000467,0.00000808,0.,-0.00000339,0.000001
 51,0.,-0.00000467,0.00003461,0.,0.00004323,-0.00001177,0.,0.00000223,-
 0.00000821,0.,-0.00001365,0.00000335,0.,-0.00000841,0.00000513,0.,-0.0
 0000698,-0.00003461,0.,-0.00004323,-0.00000335,0.,0.00000841,0.0000117
 7,0.,-0.00000223,0.00000821,0.,0.00001365,-0.00000513,0.,0.00000698,0.
 00001850,0.,-0.00000156,-0.00000808,0.,0.00000339|||@


 HAPPINESS IS NOT HAVING WHAT YOU WANT --
 HAPPINESS IS WANTING WHAT YOU HAVE!

              -- FROM MRS. SEVERN'S DESK
 Job cpu time:  0 days  1 hours 24 minutes 23.0 seconds.
 File lengths (MBytes):  RWF=     14 Int=      0 D2E=      0 Chk=      9 Scr=      1
 Normal termination of Gaussian 03 at Sun Mar 19 19:20:20 2006.
