 Entering Gaussian System, Link 0=/opt/gaussian-2003-B.03/g03/g03
 Input=water_ccsd(t).com
 Output=water_ccsd(t).log
 Initial command:
 /opt/gaussian-2003-B.03/g03/l1.exe /scratch/langner/g03-scratch-4WUl14/Gau-7169.inp -scrdir=/scratch/langner/g03-scratch-4WUl14/
 Entering Link 1 = /opt/gaussian-2003-B.03/g03/l1.exe PID=      7170.
  
 Copyright (c) 1988,1990,1992,1993,1995,1998,2003, Gaussian, Inc.
                  All Rights Reserved.
  
 This is the Gaussian(R) 03 program.  It is based on the
 the Gaussian(R) 98 system (copyright 1998, Gaussian, Inc.),
 the Gaussian(R) 94 system (copyright 1995, Gaussian, Inc.),
 the Gaussian 92(TM) system (copyright 1992, Gaussian, Inc.),
 the Gaussian 90(TM) system (copyright 1990, Gaussian, Inc.),
 the Gaussian 88(TM) system (copyright 1988, Gaussian, Inc.),
 the Gaussian 86(TM) system (copyright 1986, Carnegie Mellon
 University), and the Gaussian 82(TM) system (copyright 1983,
 Carnegie Mellon University). Gaussian is a federally registered
 trademark of Gaussian, Inc.
  
 This software contains proprietary and confidential information,
 including trade secrets, belonging to Gaussian, Inc.
  
 This software is provided under written license and may be
 used, copied, transmitted, or stored only in accord with that
 written license.
  
 The following legend is applicable only to US Government
 contracts under DFARS:
  
                    RESTRICTED RIGHTS LEGEND
  
 Use, duplication or disclosure by the US Government is subject
 to restrictions as set forth in subparagraph (c)(1)(ii) of the
 Rights in Technical Data and Computer Software clause at DFARS
 252.227-7013.
  
 Gaussian, Inc.
 Carnegie Office Park, Building 6, Pittsburgh, PA 15106 USA
  
 The following legend is applicable only to US Government
 contracts under FAR:
  
                    RESTRICTED RIGHTS LEGEND
  
 Use, reproduction and disclosure by the US Government is subject
 to restrictions as set forth in subparagraph (c) of the
 Commercial Computer Software - Restricted Rights clause at FAR
 52.227-19.
  
 Gaussian, Inc.
 Carnegie Office Park, Building 6, Pittsburgh, PA 15106 USA
  
  
 ---------------------------------------------------------------
 Warning -- This program may not be used in any manner that
 competes with the business of Gaussian, Inc. or will provide
 assistance to any competitor of Gaussian, Inc.  The licensee
 of this program is prohibited from giving any competitor of
 Gaussian, Inc. access to this program.  By using this program,
 the user acknowledges that Gaussian, Inc. is engaged in the
 business of creating and licensing software in the field of
 computational chemistry and represents and warrants to the
 licensee that it is not a competitor of Gaussian, Inc. and that
 it will not use this program in any manner prohibited above.
 ---------------------------------------------------------------
  

 Cite this work as:
 Gaussian 03, Revision B.03,
 M. J. Frisch, G. W. Trucks, H. B. Schlegel, G. E. Scuseria, 
 M. A. Robb, J. R. Cheeseman, J. A. Montgomery, Jr., T. Vreven, 
 K. N. Kudin, J. C. Burant, J. M. Millam, S. S. Iyengar, J. Tomasi, 
 V. Barone, B. Mennucci, M. Cossi, G. Scalmani, N. Rega, 
 G. A. Petersson, H. Nakatsuji, M. Hada, M. Ehara, K. Toyota, 
 R. Fukuda, J. Hasegawa, M. Ishida, T. Nakajima, Y. Honda, O. Kitao, 
 H. Nakai, M. Klene, X. Li, J. E. Knox, H. P. Hratchian, J. B. Cross, 
 C. Adamo, J. Jaramillo, R. Gomperts, R. E. Stratmann, O. Yazyev, 
 A. J. Austin, R. Cammi, C. Pomelli, J. W. Ochterski, P. Y. Ayala, 
 K. Morokuma, G. A. Voth, P. Salvador, J. J. Dannenberg, 
 V. G. Zakrzewski, S. Dapprich, A. D. Daniels, M. C. Strain, 
 O. Farkas, D. K. Malick, A. D. Rabuck, K. Raghavachari, 
 J. B. Foresman, J. V. Ortiz, Q. Cui, A. G. Baboul, S. Clifford, 
 J. Cioslowski, B. B. Stefanov, G. Liu, A. Liashenko, P. Piskorz, 
 I. Komaromi, R. L. Martin, D. J. Fox, T. Keith, M. A. Al-Laham, 
 C. Y. Peng, A. Nanayakkara, M. Challacombe, P. M. W. Gill, 
 B. Johnson, W. Chen, M. W. Wong, C. Gonzalez, and J. A. Pople, 
 Gaussian, Inc., Pittsburgh PA, 2003.
 
 *********************************************
 Gaussian 03:  x86-Linux-G03RevB.03 4-May-2003
                  23-Feb-2007 
 *********************************************
 -----------------
 #P CCSD(T)/STO-3G
 -----------------
 1/38=1/1;
 2/17=6,18=5,40=1/2;
 3/6=3,11=9,16=1,25=1,30=1/1,2,3;
 4//1;
 5/5=2,38=5/2;
 8/6=7,9=120000,10=1/1,4;
 9/5=7,14=2/13;
 6/7=2,8=2,9=2,10=2/1;
 99/5=1,9=1/99;
 Leave Link    1 at Fri Feb 23 17:43:44 2007, MaxMem=          0 cpu:       0.1
 (Enter /opt/gaussian-2003-B.03/g03/l101.exe)
 -----
 Water
 -----
 Symbolic Z-matrix:
 Charge =  0 Multiplicity = 1
 O
 H                    1    R1
 H                    1    R1       2    A1
       Variables:
  R1                    0.99                     
  A1                  106.                       
 
                    Isotopes and Nuclear Properties:

  Atom         1           2           3
 IAtWgt=          16           1           1
 AtmWgt=  15.9949146   1.0078250   1.0078250
 IAtSpn=           0           1           1
 AtZEff=   0.0000000   0.0000000   0.0000000
 AtQMom=   0.0000000   0.0000000   0.0000000
 AtGFac=   0.0000000   2.7928460   2.7928460
 Leave Link  101 at Fri Feb 23 17:43:44 2007, MaxMem=    6291456 cpu:       0.1
 (Enter /opt/gaussian-2003-B.03/g03/l202.exe)
                          Input orientation:                          
 ---------------------------------------------------------------------
 Center     Atomic     Atomic              Coordinates (Angstroms)
 Number     Number      Type              X           Y           Z
 ---------------------------------------------------------------------
    1          8             0        0.000000    0.000000    0.000000
    2          1             0        0.000000    0.000000    0.990000
    3          1             0        0.951649    0.000000   -0.272881
 ---------------------------------------------------------------------
                    Distance matrix (angstroms):
                    1          2          3
     1  O    0.000000
     2  H    0.990000   0.000000
     3  H    0.990000   1.581298   0.000000
 Stoichiometry    H2O
 Framework group  C2V[C2(O),SGV(H2)]
 Deg. of freedom     2
 Full point group                 C2V     NOp   4
 Largest Abelian subgroup         C2V     NOp   4
 Largest concise Abelian subgroup C2      NOp   2
                         Standard orientation:                         
 ---------------------------------------------------------------------
 Center     Atomic     Atomic              Coordinates (Angstroms)
 Number     Number      Type              X           Y           Z
 ---------------------------------------------------------------------
    1          8             0        0.000000    0.000000    0.119159
    2          1             0        0.000000    0.790649   -0.476637
    3          1             0        0.000000   -0.790649   -0.476637
 ---------------------------------------------------------------------
 Rotational constants (GHZ):    795.3366986    401.0831670    266.6255978
 Leave Link  202 at Fri Feb 23 17:43:44 2007, MaxMem=    6291456 cpu:       0.0
 (Enter /opt/gaussian-2003-B.03/g03/l301.exe)
 Standard basis: STO-3G (5D, 7F)
 There are     4 symmetry adapted basis functions of A1  symmetry.
 There are     0 symmetry adapted basis functions of A2  symmetry.
 There are     1 symmetry adapted basis functions of B1  symmetry.
 There are     2 symmetry adapted basis functions of B2  symmetry.
 Integral buffers will be    262144 words long.
 Raffenetti 1 integral format.
 Two-electron integral symmetry is turned on.
     7 basis functions,    21 primitive gaussians,     7 cartesian basis functions
     5 alpha electrons        5 beta electrons
       nuclear repulsion energy         8.8870062210 Hartrees.
 IExCor=   0 DFT=F Ex=HF Corr=None ExCW=0 ScaHFX=  1.000000
 ScaDFX=  1.000000  1.000000  1.000000  1.000000
 IRadAn=      0 IRanWt=     -1 IRanGd=            0 ICorTp=0
 NAtoms=    3 NActive=    3 NUniq=    2 SFac= 2.76E+00 NAtFMM=   60 Big=F
 Leave Link  301 at Fri Feb 23 17:43:44 2007, MaxMem=    6291456 cpu:       0.0
 (Enter /opt/gaussian-2003-B.03/g03/l302.exe)
 NPDir=0 NMtPBC=     1 NCelOv=     1 NCel=       1 NClECP=     1 NCelD=      1
         NCelK=      1 NCelE2=     1 NClLst=     1 CellRange=     0.0.
 One-electron integrals computed using PRISM.
 One-electron integral symmetry used in STVInt
 NBasis=     7 RedAO= T  NBF=     4     0     1     2
 NBsUse=     7 1.00E-06 NBFU=     4     0     1     2
 Leave Link  302 at Fri Feb 23 17:43:45 2007, MaxMem=    6291456 cpu:       0.1
 (Enter /opt/gaussian-2003-B.03/g03/l303.exe)
 DipDrv:  MaxL=1.
 Leave Link  303 at Fri Feb 23 17:43:45 2007, MaxMem=    6291456 cpu:       0.0
 (Enter /opt/gaussian-2003-B.03/g03/l401.exe)
 Harris functional with IExCor=  205 diagonalized for initial guess.
 ExpMin= 1.69E-01 ExpMax= 1.31E+02 ExpMxC= 1.31E+02 IAcc=1 IRadAn=         1 AccDes= 1.00E-06
 HarFok:  IExCor= 205 AccDes= 1.00E-06 IRadAn=         1 IDoV=1
 ScaDFX=  1.000000  1.000000  1.000000  1.000000
 Harris En= -75.0443641475335    
 Initial guess orbital symmetries:
       Occupied  (A1) (A1) (B2) (A1) (B1)
       Virtual   (A1) (B2)
 The electronic state of the initial guess is 1-A1.
 Leave Link  401 at Fri Feb 23 17:43:45 2007, MaxMem=    6291456 cpu:       0.0
 (Enter /opt/gaussian-2003-B.03/g03/l502.exe)
 Closed shell SCF:
 Requested convergence on RMS density matrix=1.00E-08 within 128 cycles.
 Requested convergence on MAX density matrix=1.00E-06.
 Requested convergence on             energy=1.00E-06.
 No special actions if energy rises.
 Using DIIS extrapolation, IDIIS=  1040.
 Integral symmetry usage will be decided dynamically.
 Keep R1 integrals in memory in canonical form, NReq=      419409.
 IEnd=     18764 IEndB=     18764 NGot=   6291456 MDV=   6289375
 LenX=   6289375
 Symmetry not used in FoFDir.
 MinBra= 0 MaxBra= 1 Meth= 1.
 IRaf=       0 NMat=   1 IRICut=       1 DoRegI=T DoRafI=F ISym2E= 0 JSym2E=0.

 Cycle   1  Pass 1  IDiag  1:
 E= -74.9083117470593    
 DIIS: error= 7.76E-02 at cycle   1 NSaved=   1.
 NSaved= 1 IEnMin= 1 EnMin= -74.9083117470593     IErMin= 1 ErrMin= 7.76E-02
 ErrMax= 7.76E-02 EMaxC= 1.00E-01 BMatC= 4.01E-02 BMatP= 4.01E-02
 IDIUse=3 WtCom= 2.24E-01 WtEn= 7.76E-01
 Coeff-Com:  0.100E+01
 Coeff-En:   0.100E+01
 Coeff:      0.100E+01
 Gap=     0.852 Goal=   None    Shift=    0.000
 GapD=    0.852 DampG=2.000 DampE=0.500 DampFc=1.0000 IDamp=-1.
 RMSDP=4.19E-02 MaxDP=1.48E-01              OVMax= 0.00E+00

 Cycle   2  Pass 1  IDiag  1:
 E= -74.9637999015671     Delta-E=       -0.055488154508 Rises=F Damp=F
 DIIS: error= 6.07E-03 at cycle   2 NSaved=   2.
 NSaved= 2 IEnMin= 2 EnMin= -74.9637999015671     IErMin= 2 ErrMin= 6.07E-03
 ErrMax= 6.07E-03 EMaxC= 1.00E-01 BMatC= 4.81E-04 BMatP= 4.01E-02
 IDIUse=3 WtCom= 9.39E-01 WtEn= 6.07E-02
 Coeff-Com:  0.734E-01 0.927E+00
 Coeff-En:   0.000E+00 0.100E+01
 Coeff:      0.690E-01 0.931E+00
 Gap=     0.959 Goal=   None    Shift=    0.000
 RMSDP=3.25E-03 MaxDP=9.15E-03 DE=-5.55E-02 OVMax= 0.00E+00

 Cycle   3  Pass 1  IDiag  1:
 E= -74.9643163002803     Delta-E=       -0.000516398713 Rises=F Damp=F
 DIIS: error= 1.06E-03 at cycle   3 NSaved=   3.
 NSaved= 3 IEnMin= 3 EnMin= -74.9643163002803     IErMin= 3 ErrMin= 1.06E-03
 ErrMax= 1.06E-03 EMaxC= 1.00E-01 BMatC= 7.36E-06 BMatP= 4.81E-04
 IDIUse=3 WtCom= 9.89E-01 WtEn= 1.06E-02
 Coeff-Com: -0.130E-01-0.147E+00 0.116E+01
 Coeff-En:   0.000E+00 0.000E+00 0.100E+01
 Coeff:     -0.129E-01-0.146E+00 0.116E+01
 Gap=     0.959 Goal=   None    Shift=    0.000
 RMSDP=7.36E-04 MaxDP=3.11E-03 DE=-5.16E-04 OVMax= 0.00E+00

 Cycle   4  Pass 1  IDiag  1:
 E= -74.9643283828003     Delta-E=       -0.000012082520 Rises=F Damp=F
 DIIS: error= 1.54E-04 at cycle   4 NSaved=   4.
 NSaved= 4 IEnMin= 4 EnMin= -74.9643283828003     IErMin= 4 ErrMin= 1.54E-04
 ErrMax= 1.54E-04 EMaxC= 1.00E-01 BMatC= 1.84E-07 BMatP= 7.36E-06
 IDIUse=3 WtCom= 9.98E-01 WtEn= 1.54E-03
 Coeff-Com:  0.149E-02 0.924E-02-0.216E+00 0.120E+01
 Coeff-En:   0.000E+00 0.000E+00 0.000E+00 0.100E+01
 Coeff:      0.149E-02 0.923E-02-0.215E+00 0.120E+01
 Gap=     0.959 Goal=   None    Shift=    0.000
 RMSDP=1.53E-04 MaxDP=6.35E-04 DE=-1.21E-05 OVMax= 0.00E+00

 Cycle   5  Pass 1  IDiag  1:
 E= -74.9643287687559     Delta-E=       -0.000000385956 Rises=F Damp=F
 DIIS: error= 2.87E-05 at cycle   5 NSaved=   5.
 NSaved= 5 IEnMin= 5 EnMin= -74.9643287687559     IErMin= 5 ErrMin= 2.87E-05
 ErrMax= 2.87E-05 EMaxC= 1.00E-01 BMatC= 6.91E-09 BMatP= 1.84E-07
 IDIUse=1 WtCom= 1.00E+00 WtEn= 0.00E+00
 Coeff-Com: -0.883E-03-0.525E-02 0.148E+00-0.907E+00 0.177E+01
 Coeff:     -0.883E-03-0.525E-02 0.148E+00-0.907E+00 0.177E+01
 Gap=     0.959 Goal=   None    Shift=    0.000
 RMSDP=4.41E-05 MaxDP=1.37E-04 DE=-3.86E-07 OVMax= 0.00E+00

 Cycle   6  Pass 1  IDiag  1:
 E= -74.9643287912944     Delta-E=       -0.000000022539 Rises=F Damp=F
 DIIS: error= 3.06E-07 at cycle   6 NSaved=   6.
 NSaved= 6 IEnMin= 6 EnMin= -74.9643287912944     IErMin= 6 ErrMin= 3.06E-07
 ErrMax= 3.06E-07 EMaxC= 1.00E-01 BMatC= 7.43E-13 BMatP= 6.91E-09
 IDIUse=1 WtCom= 1.00E+00 WtEn= 0.00E+00
 Coeff-Com: -0.287E-07-0.143E-04 0.507E-03-0.367E-02 0.158E-01 0.987E+00
 Coeff:     -0.287E-07-0.143E-04 0.507E-03-0.367E-02 0.158E-01 0.987E+00
 Gap=     0.959 Goal=   None    Shift=    0.000
 RMSDP=3.77E-07 MaxDP=1.35E-06 DE=-2.25E-08 OVMax= 0.00E+00

 Cycle   7  Pass 1  IDiag  1:
 E= -74.9643287912963     Delta-E=       -0.000000000002 Rises=F Damp=F
 DIIS: error= 2.44E-10 at cycle   7 NSaved=   7.
 NSaved= 7 IEnMin= 7 EnMin= -74.9643287912963     IErMin= 7 ErrMin= 2.44E-10
 ErrMax= 2.44E-10 EMaxC= 1.00E-01 BMatC= 4.00E-19 BMatP= 7.43E-13
 IDIUse=1 WtCom= 1.00E+00 WtEn= 0.00E+00
 Coeff-Com:  0.740E-10 0.103E-07 0.537E-06-0.578E-05 0.206E-04 0.130E-02
 Coeff-Com:  0.999E+00
 Coeff:      0.740E-10 0.103E-07 0.537E-06-0.578E-05 0.206E-04 0.130E-02
 Coeff:      0.999E+00
 Gap=     0.959 Goal=   None    Shift=    0.000
 RMSDP=2.62E-10 MaxDP=8.41E-10 DE=-1.90E-12 OVMax= 0.00E+00

 SCF Done:  E(RHF) =  -74.9643287913     A.U. after    7 cycles
             Convg  =    0.2621E-09             -V/T =  2.0060
             S**2   =   0.0000
 KE= 7.451686028026E+01 PE=-1.963570297588E+02 EE= 3.798883446619E+01
 Leave Link  502 at Fri Feb 23 17:43:45 2007, MaxMem=    6291456 cpu:       0.0
 (Enter /opt/gaussian-2003-B.03/g03/l801.exe)
 Windowed orbitals will be sorted by symmetry type.
 ExpMin= 1.69E-01 ExpMax= 1.31E+02 ExpMxC= 1.31E+02 IAcc=1 IRadAn=         1 AccDes= 1.00E-06
 HarFok:  IExCor= 205 AccDes= 1.00E-06 IRadAn=         1 IDoV=1
 ScaDFX=  1.000000  1.000000  1.000000  1.000000
 Largest valence mixing into a core orbital is  8.01E-05
 Largest core mixing into a valence orbital is  4.30E-05
 Range of M.O.s used for correlation:     2     7
 NBasis=     7 NAE=     5 NBE=     5 NFC=     1 NFV=     0
 NROrb=      6 NOA=     4 NOB=     4 NVA=     2 NVB=     2
 Leave Link  801 at Fri Feb 23 17:43:45 2007, MaxMem=    6291456 cpu:       0.0
 (Enter /opt/gaussian-2003-B.03/g03/l804.exe)
 Closed-shell transformation, MDV=     6291456 ITran=7 ISComp=2.
 Estimate disk for full transformation     1048703 words.
 Compute canonical integrals, LenV=     6290262.
 Symmetry not used in FoFDir.
 MinBra= 0 MaxBra= 1 Meth= 1.
 IRaf=       0 NMat=   1 IRICut=       1 DoRegI=T DoRafI=F ISym2E= 0 JSym2E=0.
 Spin components of T(2) and E(2):
     alpha-alpha T2 =       0.4074384598E-03 E2=     -0.1088543325E-02
     alpha-beta  T2 =       0.1385761981E-01 E2=     -0.3577624988E-01
     beta-beta   T2 =       0.4074384598E-03 E2=     -0.1088543325E-02
 ANorm=    0.1007309534E+01
 E2=       -0.3795333653E-01 EUMP2=       -0.75002282127824E+02
 Leave Link  804 at Fri Feb 23 17:43:45 2007, MaxMem=    6291456 cpu:       0.1
 (Enter /opt/gaussian-2003-B.03/g03/l913.exe)
 CIDS:  MDV=   6291456.
 Using DD3R+UMP44R for 1st iteration, S=T.
 Using DD4RQ for 2nd and later iterations.
 CCSD(T)
 =======
 Iterations=  50 Convergence= 0.100E-06
 Iteration Nr.   1
 **********************
 MP4(R+Q)=  0.29245531E-03
 Maximum subspace dimension=  5
 Norm of the A-vectors is  1.1942091E-01 conv= 1.00E-05.
 RLE energy=       -0.0519332266
 E3=       -0.10518804E-01        EUMP3=      -0.75012800931E+02
 E4(DQ)=   -0.31002165E-02        UMP4(DQ)=   -0.75015901148E+02
 E4(SDQ)=  -0.32127250E-02        UMP4(SDQ)=  -0.75016013656E+02
 VARIATIONAL ENERGIES WITH THE FIRST-ORDER WAVEFUNCTION:
 DE(Corr)= -0.48169987E-01 E(CORR)=     -75.012498779    
 NORM(A)=   0.10140474E+01
 Iteration Nr.   2
 **********************
 Norm of the A-vectors is  2.8142619E-02 conv= 1.00E-05.
 RLE energy=       -0.0532277503
 DE(Corr)= -0.52586878E-01 E(CORR)=     -75.016915669     Delta=-4.42E-03
 NORM(A)=   0.10151307E+01
 Iteration Nr.   3
 **********************
 Norm of the A-vectors is  5.0184150E-03 conv= 1.00E-05.
 RLE energy=       -0.0533737877
 DE(Corr)= -0.53279563E-01 E(CORR)=     -75.017608354     Delta=-6.93E-04
 NORM(A)=   0.10152912E+01
 Iteration Nr.   4
 **********************
 Norm of the A-vectors is  1.1739485E-03 conv= 1.00E-05.
 RLE energy=       -0.0533473421
 DE(Corr)= -0.53357434E-01 E(CORR)=     -75.017686225     Delta=-7.79E-05
 NORM(A)=   0.10152929E+01
 Iteration Nr.   5
 **********************
 Norm of the A-vectors is  1.2402220E-04 conv= 1.00E-05.
 RLE energy=       -0.0533572413
 DE(Corr)= -0.53352743E-01 E(CORR)=     -75.017681534     Delta= 4.69E-06
 NORM(A)=   0.10152990E+01
 Iteration Nr.   6
 **********************
 Norm of the A-vectors is  3.1091608E-05 conv= 1.00E-05.
 RLE energy=       -0.0533547502
 DE(Corr)= -0.53355504E-01 E(CORR)=     -75.017684296     Delta=-2.76E-06
 NORM(A)=   0.10152976E+01
 Iteration Nr.   7
 **********************
 Norm of the A-vectors is  5.0407251E-06 conv= 1.00E-05.
 RLE energy=       -0.0533548665
 DE(Corr)= -0.53354812E-01 E(CORR)=     -75.017683604     Delta= 6.92E-07
 NORM(A)=   0.10152977E+01
 Iteration Nr.   8
 **********************
 Norm of the A-vectors is  1.0772317E-06 conv= 1.00E-05.
 RLE energy=       -0.0533548331
 DE(Corr)= -0.53354848E-01 E(CORR)=     -75.017683640     Delta=-3.61E-08
 NORM(A)=   0.10152977E+01
 Largest amplitude= 8.18E-02
 Time for triples=        0.00 seconds.
 T4(CCSD)= -0.88864295E-04
 T5(CCSD)=  0.12081413E-04
 CCSD(T)= -0.75017760423E+02
 Leave Link  913 at Fri Feb 23 17:43:45 2007, MaxMem=    6291456 cpu:       0.2
 (Enter /opt/gaussian-2003-B.03/g03/l601.exe)
 Copying SCF densities to generalized density rwf, ISCF=0 IROHF=0.

 **********************************************************************

            Population analysis using the SCF density.

 **********************************************************************

 Orbital symmetries:
       Occupied  (A1) (A1) (B2) (A1) (B1)
       Virtual   (A1) (B2)
 The electronic state is 1-A1.
 Alpha  occ. eigenvalues --  -20.24375  -1.25064  -0.60317  -0.44547  -0.38821
 Alpha virt. eigenvalues --    0.57075   0.70859
          Condensed to atoms (all electrons):
              1          2          3
     1  O    7.824444   0.257385   0.257385
     2  H    0.257385   0.614637  -0.041629
     3  H    0.257385  -0.041629   0.614637
 Mulliken atomic charges:
              1
     1  O   -0.339215
     2  H    0.169607
     3  H    0.169607
 Sum of Mulliken charges=   0.00000
 Atomic charges with hydrogens summed into heavy atoms:
              1
     1  O    0.000000
     2  H    0.000000
     3  H    0.000000
 Sum of Mulliken charges=   0.00000
 Electronic spatial extent (au):  <R**2>=    18.2650
 Charge=     0.0000 electrons
 Dipole moment (field-independent basis, Debye):
    X=     0.0000    Y=     0.0000    Z=    -1.6735  Tot=     1.6735
 Quadrupole moment (field-independent basis, Debye-Ang):
   XX=    -6.1213   YY=    -4.2950   ZZ=    -5.4175
   XY=     0.0000   XZ=     0.0000   YZ=     0.0000
 Traceless Quadrupole moment (field-independent basis, Debye-Ang):
   XX=    -0.8434   YY=     0.9829   ZZ=    -0.1396
   XY=     0.0000   XZ=     0.0000   YZ=     0.0000
 Octapole moment (field-independent basis, Debye-Ang**2):
  XXX=     0.0000  YYY=     0.0000  ZZZ=    -0.1457  XYY=     0.0000
  XXY=     0.0000  XXZ=     0.0136  XZZ=     0.0000  YZZ=     0.0000
  YYZ=    -0.5848  XYZ=     0.0000
 Hexadecapole moment (field-independent basis, Debye-Ang**3):
 XXXX=    -3.2614 YYYY=    -6.8264 ZZZZ=    -4.9965 XXXY=     0.0000
 XXXZ=     0.0000 YYYX=     0.0000 YYYZ=     0.0000 ZZZX=     0.0000
 ZZZY=     0.0000 XXYY=    -1.8585 XXZZ=    -1.4123 YYZZ=    -1.7504
 XXYZ=     0.0000 YYXZ=     0.0000 ZZXY=     0.0000
 N-N= 8.887006221008E+00 E-N=-1.963570297552E+02  KE= 7.451686028026E+01
 Symmetry A1   KE= 6.656897033483E+01
 Symmetry A2   KE= 0.000000000000E+00
 Symmetry B1   KE= 5.057462452019E+00
 Symmetry B2   KE= 2.890427493411E+00
 Leave Link  601 at Fri Feb 23 17:43:45 2007, MaxMem=    6291456 cpu:       0.0
 (Enter /opt/gaussian-2003-B.03/g03/l9999.exe)
 1\1\GINC-PUFFIN\SP\RCCSD(T)-FC\STO-3G\H2O1\LANGNER\23-Feb-2007\0\\#P C
 CSD(T)/STO-3G\\Water\\0,1\O\H,1,0.99\H,1,0.99,2,106.\\Version=x86-Linu
 x-G03RevB.03\State=1-A1\HF=-74.9643288\MP2=-75.0022821\MP3=-75.0128009
 \MP4D=-75.0161936\MP4DQ=-75.0159011\MP4SDQ=-75.0160137\CCSD=-75.017683
 6\CCSD(T)=-75.0177604\RMSD=2.621e-10\PG=C02V [C2(O1),SGV(H2)]\\@


 ON INDUCTION, OR "WHY DO YOU BELIEVE THE SUN WILL RISE TOMORROW?":

 ... THE FARMER WHO HAS FED THE CHICKEN EVERY DAY THROUGHOUT ITS
 LIFE AT LAST WRINGS ITS NECK INSTEAD, SHOWING THAT MORE REFINED VIEWS
 AS TO THE UNIFORMITY OF NATURE WOULD HAVE BEEN USEFUL TO THE CHICKEN.

                               -- BERTRAND RUSSELL
 Job cpu time:  0 days  0 hours  0 minutes  1.6 seconds.
 File lengths (MBytes):  RWF=     19 Int=      0 D2E=      0 Chk=      7 Scr=      1
 Normal termination of Gaussian 03 at Fri Feb 23 17:43:46 2007.
