 argument  1 = C_bigbasis_spherical.in
                                         
                                         


             Northwest Computational Chemistry Package (NWChem) 7.0.2
             --------------------------------------------------------


                    Environmental Molecular Sciences Laboratory
                       Pacific Northwest National Laboratory
                                Richland, WA 99352

                              Copyright (c) 1994-2020
                       Pacific Northwest National Laboratory
                            Battelle Memorial Institute

             NWChem is an open-source computational chemistry package
                        distributed under the terms of the
                      Educational Community License (ECL) 2.0
             A copy of the license is included with this distribution
                              in the LICENSE.TXT file

                                  ACKNOWLEDGMENT
                                  --------------

            This software and its documentation were developed at the
            EMSL at Pacific Northwest National Laboratory, a multiprogram
            national laboratory, operated for the U.S. Department of Energy
            by Battelle under Contract Number DE-AC05-76RL01830. Support
            for this work was provided by the Department of Energy Office
            of Biological and Environmental Research, Office of Basic
            Energy Sciences, and the Office of Advanced Scientific Computing.


           Job information
           ---------------

    hostname        = osmium
    program         = nwchem
    date            = Sat Jun  4 13:32:14 2022

    compiled        = Fri_Jul_02_16:33:00_2021
    source          = /tmp/eric/spack-stage/spack-stage-nwchem-7.0.2-ooqysy46k2ki4umav4357wohumino4rf/spack-src
    nwchem branch   = 7.0.2
    nwchem revision = b9985dfa
    ga revision     = 5.7.2
    use scalapack   = T
    input           = C_bigbasis_spherical.in
    prefix          = carbon.
    data base       = ./carbon.db
    status          = startup
    nproc           =        1
    time left       =     -1s



           Memory information
           ------------------

    heap     =   13107198 doubles =    100.0 Mbytes
    stack    =   13107195 doubles =    100.0 Mbytes
    global   =   26214400 doubles =    200.0 Mbytes (distinct from heap & stack)
    total    =   52428793 doubles =    400.0 Mbytes
    verify   = yes
    hardfail = no 


           Directory information
           ---------------------

  0 permanent = .
  0 scratch   = .




                                NWChem Input Module
                                -------------------


                                      C atom
                                      ------

 Scaling coordinates for geometry "geometry" by  1.889725989
 (inverse scale =  0.529177249)



                             Geometry "geometry" -> ""
                             -------------------------

 Output coordinates in angstroms (scale by  1.889725989 to convert to a.u.)

  No.       Tag          Charge          X              Y              Z
 ---- ---------------- ---------- -------------- -------------- --------------
    1 C                    6.0000     0.00000000     0.00000000     0.00000000

      Atomic Mass 
      ----------- 

      C                 12.000000


 Effective nuclear repulsion energy (a.u.)       0.0000000000

            Nuclear Dipole moment (a.u.) 
            ----------------------------
        X                 Y               Z
 ---------------- ---------------- ----------------
     0.0000000000     0.0000000000     0.0000000000


            XYZ format geometry
            -------------------
     1
 geometry
 C                     0.00000000     0.00000000     0.00000000

  library name resolved from: environment
  library file name is: </home/eric/data/spack/opt/spack/linux-archrolling-zen/gcc-11.1.0/nwchem-7.0.2-ooqysy46k2ki4umav4357wohumino4rf/share/nwchem/libraries/>
  


 Summary of "ao basis" -> "" (spherical)
 ------------------------------------------------------------------------------
       Tag                 Description            Shells   Functions and Types
 ---------------- ------------------------------  ------  ---------------------
 *                        aug-cc-pCVQZ                on all atoms 


                      Basis "ao basis" -> "ao basis" (spherical)
                      -----
  C (Carbon)
  ----------
            Exponent  Coefficients 
       -------------- ---------------------------------------------------------
  1 S  3.39800000E+04  0.000091
  1 S  5.08900000E+03  0.000704
  1 S  1.15700000E+03  0.003693
  1 S  3.26600000E+02  0.015360
  1 S  1.06100000E+02  0.052929
  1 S  3.81100000E+01  0.147043
  1 S  1.47500000E+01  0.305631
  1 S  6.03500000E+00  0.399345
  1 S  2.53000000E+00  0.217051

  2 S  3.39800000E+04 -0.000019
  2 S  5.08900000E+03 -0.000151
  2 S  1.15700000E+03 -0.000785
  2 S  3.26600000E+02 -0.003324
  2 S  1.06100000E+02 -0.011512
  2 S  3.81100000E+01 -0.034160
  2 S  1.47500000E+01 -0.077173
  2 S  6.03500000E+00 -0.141493
  2 S  2.53000000E+00 -0.118019

  3 S  7.35500000E-01  1.000000

  4 S  2.90500000E-01  1.000000

  5 S  1.11100000E-01  1.000000

  6 S  7.21600000E+00  1.000000

  7 S  1.95700000E+01  1.000000

  8 S  5.30730000E+01  1.000000

  9 S  4.14500000E-02  1.000000

 10 P  3.45100000E+01  0.005378
 10 P  7.91500000E+00  0.036132
 10 P  2.36800000E+00  0.142493

 11 P  8.13200000E-01  1.000000

 12 P  2.89000000E-01  1.000000

 13 P  1.00700000E-01  1.000000

 14 P  8.18200000E+00  1.000000

 15 P  2.41860000E+01  1.000000

 16 P  7.14940000E+01  1.000000

 17 P  3.21800000E-02  1.000000

 18 D  1.84800000E+00  1.000000

 19 D  6.49000000E-01  1.000000

 20 D  2.28000000E-01  1.000000

 21 D  8.65600000E+00  1.000000

 22 D  3.32130000E+01  1.000000

 23 D  7.66000000E-02  1.000000

 24 F  1.41900000E+00  1.000000

 25 F  4.85000000E-01  1.000000

 26 F  2.46940000E+01  1.000000

 27 F  1.87000000E-01  1.000000

 28 G  1.01100000E+00  1.000000

 29 G  4.24000000E-01  1.000000



 Summary of "ao basis" -> "ao basis" (spherical)
 ------------------------------------------------------------------------------
       Tag                 Description            Shells   Functions and Types
 ---------------- ------------------------------  ------  ---------------------
 C                        aug-cc-pCVQZ              29      109   9s8p6d4f2g


                                 NWChem SCF Module
                                 -----------------


                                      C atom



  ao basis        = "ao basis"
  functions       =   109
  atoms           =     1
  closed shells   =     3
  open shells     =     0
  charge          =   0.00
  wavefunction    = RHF 
  input vectors   = atomic
  output vectors  = ./carbon.movecs
  use symmetry    = F
  symmetry adapt  = F


 Summary of "ao basis" -> "ao basis" (spherical)
 ------------------------------------------------------------------------------
       Tag                 Description            Shells   Functions and Types
 ---------------- ------------------------------  ------  ---------------------
 C                        aug-cc-pCVQZ              29      109   9s8p6d4f2g



 Forming initial guess at       0.1s


      Superposition of Atomic Density Guess
      -------------------------------------

 Sum of atomic energies:         -37.67213751

      Non-variational initial energy
      ------------------------------

 Total energy =     -37.316043
 1-e energy   =     -50.422650
 2-e energy   =      13.106606
 HOMO         =      -0.079257
 LUMO         =      -0.079257


 Starting SCF solution at       0.3s



 ----------------------------------------------
         Quadratically convergent ROHF

 Convergence threshold     :          1.000E-04
 Maximum no. of iterations :           30
 Final Fock-matrix accuracy:          1.000E-07
 ----------------------------------------------


              iter       energy          gnorm     gmax       time
             ----- ------------------- --------- --------- --------
                 1      -37.5687978054  4.94D-01  1.99D-01      0.4
                 2      -37.6026044584  1.47D-01  8.78D-02      1.0
                 3      -37.6045774816  3.03D-03  1.54D-03      2.8
                 4      -37.6045782756  9.17D-06  4.87D-06      6.0


       Final RHF  results 
       ------------------ 

         Total SCF energy =    -37.604578275565
      One-electron energy =    -50.311163756844
      Two-electron energy =     12.706585481279
 Nuclear repulsion energy =      0.000000000000

        Time for solution =      5.7s


             Final eigenvalues
             -----------------

              1      
    1  -11.3649
    2   -0.7256
    3   -0.3584
    4    0.0189
    5    0.0189
    6    0.0832
    7    0.0898
    8    0.1082
    9    0.1082
   10    0.2323
   11    0.2323
   12    0.2416
   13    0.2416

                       ROHF Final Molecular Orbital Analysis
                       -------------------------------------

 Vector    1  Occ=2.000000D+00  E=-1.136493D+01
              MO Center= -5.8D-18,  1.3D-18,  2.4D-17, r^2= 2.7D-02
   Bfn.  Coefficient  Atom+Function         Bfn.  Coefficient  Atom+Function  
  ----- ------------  ---------------      ----- ------------  ---------------
     1      0.993702  1 C  s          

 Vector    2  Occ=2.000000D+00  E=-7.256175D-01
              MO Center=  2.1D-15,  2.7D-16, -3.2D-15, r^2= 8.4D-01
   Bfn.  Coefficient  Atom+Function         Bfn.  Coefficient  Atom+Function  
  ----- ------------  ---------------      ----- ------------  ---------------
     4      0.591838  1 C  s                  2      0.344912  1 C  s          
     3      0.281046  1 C  s                  5      0.271536  1 C  s          

 Vector    3  Occ=2.000000D+00  E=-3.584495D-01
              MO Center=  2.8D-14,  1.2D-14, -1.1D-14, r^2= 1.2D+00
   Bfn.  Coefficient  Atom+Function         Bfn.  Coefficient  Atom+Function  
  ----- ------------  ---------------      ----- ------------  ---------------
    18      0.311536  1 C  pz                16      0.305260  1 C  px         
    15      0.229462  1 C  pz                13      0.224840  1 C  px         
    21      0.203722  1 C  pz                19      0.199618  1 C  px         

 Vector    4  Occ=0.000000D+00  E= 1.886941D-02
              MO Center= -5.3D-15, -1.4D-14,  1.2D-14, r^2= 4.7D+00
   Bfn.  Coefficient  Atom+Function         Bfn.  Coefficient  Atom+Function  
  ----- ------------  ---------------      ----- ------------  ---------------
    32      0.518536  1 C  py                17      0.294613  1 C  py         
    20      0.233435  1 C  py                14      0.180036  1 C  py         

 Vector    5  Occ=0.000000D+00  E= 1.886941D-02
              MO Center=  1.2D-14,  5.8D-16, -3.1D-14, r^2= 4.7D+00
   Bfn.  Coefficient  Atom+Function         Bfn.  Coefficient  Atom+Function  
  ----- ------------  ---------------      ----- ------------  ---------------
    33     -0.373849  1 C  pz                31      0.369123  1 C  px         
    18     -0.212408  1 C  pz                16      0.209723  1 C  px         
    21     -0.168299  1 C  pz                19      0.166172  1 C  px         

 Vector    6  Occ=0.000000D+00  E= 8.316007D-02
              MO Center=  1.9D-12,  7.2D-13,  1.8D-12, r^2= 8.9D+00
   Bfn.  Coefficient  Atom+Function         Bfn.  Coefficient  Atom+Function  
  ----- ------------  ---------------      ----- ------------  ---------------
     9      1.822071  1 C  s                  5     -1.382082  1 C  s          
     4      0.256979  1 C  s                  2     -0.200476  1 C  s          
     3     -0.201429  1 C  s          

 Vector    7  Occ=0.000000D+00  E= 8.983614D-02
              MO Center= -1.8D-12, -4.1D-13, -1.8D-12, r^2= 1.4D+01
   Bfn.  Coefficient  Atom+Function         Bfn.  Coefficient  Atom+Function  
  ----- ------------  ---------------      ----- ------------  ---------------
    33      0.895029  1 C  pz                31      0.876997  1 C  px         
    21     -0.376079  1 C  pz                19     -0.368502  1 C  px         
    32      0.203055  1 C  py         

 Vector    8  Occ=0.000000D+00  E= 1.081510D-01
              MO Center= -2.7D-15, -3.0D-13, -5.6D-14, r^2= 1.1D+01
   Bfn.  Coefficient  Atom+Function         Bfn.  Coefficient  Atom+Function  
  ----- ------------  ---------------      ----- ------------  ---------------
    32      1.167316  1 C  py                20     -0.796794  1 C  py         
    31     -0.225071  1 C  px                14     -0.206091  1 C  py         
    19      0.153630  1 C  px         

 Vector    9  Occ=0.000000D+00  E= 1.081510D-01
              MO Center= -1.4D-13,  8.2D-14,  1.3D-13, r^2= 1.1D+01
   Bfn.  Coefficient  Atom+Function         Bfn.  Coefficient  Atom+Function  
  ----- ------------  ---------------      ----- ------------  ---------------
    33     -0.842458  1 C  pz                31      0.830122  1 C  px         
    21      0.575051  1 C  pz                19     -0.566630  1 C  px         

 Vector   10  Occ=0.000000D+00  E= 2.323429D-01
              MO Center=  1.5D-14, -9.8D-14,  3.3D-15, r^2= 7.0D+00
   Bfn.  Coefficient  Atom+Function         Bfn.  Coefficient  Atom+Function  
  ----- ------------  ---------------      ----- ------------  ---------------
    60     -0.763310  1 C  d -1              59      0.708173  1 C  d -2       
    63     -0.315328  1 C  d  2              62     -0.157531  1 C  d  1       

 Vector   11  Occ=0.000000D+00  E= 2.323429D-01
              MO Center= -7.7D-15,  2.7D-14,  2.9D-14, r^2= 7.0D+00
   Bfn.  Coefficient  Atom+Function         Bfn.  Coefficient  Atom+Function  
  ----- ------------  ---------------      ----- ------------  ---------------
    63      0.750382  1 C  d  2              62      0.541195  1 C  d  1       
    61      0.478515  1 C  d  0              59      0.337793  1 C  d -2       

 Vector   12  Occ=0.000000D+00  E= 2.416051D-01
              MO Center= -1.6D-15, -7.1D-15,  1.1D-14, r^2= 7.0D+00
   Bfn.  Coefficient  Atom+Function         Bfn.  Coefficient  Atom+Function  
  ----- ------------  ---------------      ----- ------------  ---------------
    61      0.948696  1 C  d  0              63     -0.522344  1 C  d  2       
    59     -0.178700  1 C  d -2              46     -0.169974  1 C  d  0       

 Vector   13  Occ=0.000000D+00  E= 2.416051D-01
              MO Center=  6.9D-14,  3.0D-14,  7.7D-14, r^2= 7.0D+00
   Bfn.  Coefficient  Atom+Function         Bfn.  Coefficient  Atom+Function  
  ----- ------------  ---------------      ----- ------------  ---------------
    60      0.752354  1 C  d -1              59      0.719194  1 C  d -2       
    63     -0.297694  1 C  d  2              62      0.174771  1 C  d  1       

 Vector   14  Occ=0.000000D+00  E= 2.453718D-01
              MO Center=  5.7D-14,  8.0D-15,  6.4D-14, r^2= 7.0D+00
   Bfn.  Coefficient  Atom+Function         Bfn.  Coefficient  Atom+Function  
  ----- ------------  ---------------      ----- ------------  ---------------
    62      0.926608  1 C  d  1              63     -0.429634  1 C  d  2       
    61     -0.269826  1 C  d  0              60     -0.214541  1 C  d -1       
    59     -0.210219  1 C  d -2               5      0.172653  1 C  s          
    47     -0.167080  1 C  d  1       

 Vector   15  Occ=0.000000D+00  E= 4.438319D-01
              MO Center= -1.1D-13, -2.9D-14, -1.4D-13, r^2= 5.8D+00
   Bfn.  Coefficient  Atom+Function         Bfn.  Coefficient  Atom+Function  
  ----- ------------  ---------------      ----- ------------  ---------------
    21      1.331638  1 C  pz                19      1.304811  1 C  px         
    18     -0.728887  1 C  pz                16     -0.714203  1 C  px         
    33     -0.551861  1 C  pz                31     -0.540743  1 C  px         
    20      0.302108  1 C  py                17     -0.165362  1 C  py         

 Vector   16  Occ=0.000000D+00  E= 4.625643D-01
              MO Center= -8.1D-14,  6.7D-14,  2.3D-14, r^2= 5.0D+00
   Bfn.  Coefficient  Atom+Function         Bfn.  Coefficient  Atom+Function  
  ----- ------------  ---------------      ----- ------------  ---------------
    20      1.226368  1 C  py                19     -1.080271  1 C  px         
    17     -0.784378  1 C  py                21      0.780282  1 C  pz         
    16      0.690935  1 C  px                18     -0.499064  1 C  pz         
    32     -0.495323  1 C  py                31      0.436315  1 C  px         
    33     -0.315151  1 C  pz         

 Vector   17  Occ=0.000000D+00  E= 4.625643D-01
              MO Center= -6.5D-14, -1.2D-13,  9.0D-14, r^2= 5.0D+00
   Bfn.  Coefficient  Atom+Function         Bfn.  Coefficient  Atom+Function  
  ----- ------------  ---------------      ----- ------------  ---------------
    20      1.300733  1 C  py                21     -1.020052  1 C  pz         
    17     -0.831941  1 C  py                19      0.739860  1 C  px         
    18      0.652419  1 C  pz                32     -0.525358  1 C  py         
    16     -0.473210  1 C  px                33      0.411993  1 C  pz         
    31     -0.298825  1 C  px         

 Vector   18  Occ=0.000000D+00  E= 4.987103D-01
              MO Center=  1.6D-13,  5.6D-14, -1.1D-13, r^2= 4.9D+00
   Bfn.  Coefficient  Atom+Function         Bfn.  Coefficient  Atom+Function  
  ----- ------------  ---------------      ----- ------------  ---------------
     5      3.787880  1 C  s                  4     -2.769079  1 C  s          
     9     -1.559982  1 C  s                  3      0.395360  1 C  s          
     1      0.283346  1 C  s                  2      0.265031  1 C  s          

 Vector   19  Occ=0.000000D+00  E= 7.441462D-01
              MO Center=  4.0D-14,  1.3D-13, -7.0D-14, r^2= 3.7D+00
   Bfn.  Coefficient  Atom+Function         Bfn.  Coefficient  Atom+Function  
  ----- ------------  ---------------      ----- ------------  ---------------
    85      0.688291  1 C  f -3              86     -0.687574  1 C  f -2       
    87      0.489740  1 C  f -1              88     -0.172217  1 C  f  0       

 Vector   20  Occ=0.000000D+00  E= 7.441462D-01
              MO Center= -8.7D-14,  2.0D-14,  8.3D-14, r^2= 3.7D+00
   Bfn.  Coefficient  Atom+Function         Bfn.  Coefficient  Atom+Function  
  ----- ------------  ---------------      ----- ------------  ---------------
    90      0.709079  1 C  f  2              91      0.686121  1 C  f  3       
    89      0.379039  1 C  f  1              88      0.262952  1 C  f  0       
    87      0.217541  1 C  f -1       

 Vector   21  Occ=0.000000D+00  E= 7.622664D-01
              MO Center=  5.6D-14,  5.8D-14,  1.0D-13, r^2= 3.7D+00
   Bfn.  Coefficient  Atom+Function         Bfn.  Coefficient  Atom+Function  
  ----- ------------  ---------------      ----- ------------  ---------------
    87      0.854451  1 C  f -1              85     -0.617946  1 C  f -3       
    91     -0.297723  1 C  f  3              73     -0.168163  1 C  f -1       
    88     -0.167685  1 C  f  0       

 Vector   22  Occ=0.000000D+00  E= 7.622664D-01
              MO Center=  4.1D-13,  1.2D-13,  3.8D-13, r^2= 3.7D+00
   Bfn.  Coefficient  Atom+Function         Bfn.  Coefficient  Atom+Function  
  ----- ------------  ---------------      ----- ------------  ---------------
    88      0.748207  1 C  f  0              91     -0.644067  1 C  f  3       
    89      0.335996  1 C  f  1              85      0.330846  1 C  f -3       
    90      0.168935  1 C  f  2       

 Vector   23  Occ=0.000000D+00  E= 7.735615D-01
              MO Center=  8.6D-15, -1.1D-14, -1.5D-14, r^2= 3.7D+00
   Bfn.  Coefficient  Atom+Function         Bfn.  Coefficient  Atom+Function  
  ----- ------------  ---------------      ----- ------------  ---------------
    86      0.765881  1 C  f -2              87      0.422431  1 C  f -1       
    90     -0.423469  1 C  f  2              85      0.383322  1 C  f -3       
    91      0.381906  1 C  f  3              72     -0.152091  1 C  f -2       

 Vector   24  Occ=0.000000D+00  E= 7.735615D-01
              MO Center=  2.1D-14, -2.4D-13,  3.2D-14, r^2= 3.7D+00
   Bfn.  Coefficient  Atom+Function         Bfn.  Coefficient  Atom+Function  
  ----- ------------  ---------------      ----- ------------  ---------------
    88      0.713280  1 C  f  0              89     -0.686032  1 C  f  1       
    85     -0.299457  1 C  f -3              86     -0.246681  1 C  f -2       
    91      0.245728  1 C  f  3              90     -0.218371  1 C  f  2       

 Vector   25  Occ=0.000000D+00  E= 7.755698D-01
              MO Center= -1.0D-13,  2.3D-13, -8.3D-14, r^2= 3.1D+00
   Bfn.  Coefficient  Atom+Function         Bfn.  Coefficient  Atom+Function  
  ----- ------------  ---------------      ----- ------------  ---------------
    45     -0.943671  1 C  d -1              44      0.922220  1 C  d -2       
    60      0.477675  1 C  d -1              59     -0.466816  1 C  d -2       
    48     -0.240139  1 C  d  2       

 Vector   26  Occ=0.000000D+00  E= 7.755698D-01
              MO Center= -3.6D-13, -2.5D-13, -4.5D-13, r^2= 3.1D+00
   Bfn.  Coefficient  Atom+Function         Bfn.  Coefficient  Atom+Function  
  ----- ------------  ---------------      ----- ------------  ---------------
    48      0.969124  1 C  d  2              47      0.685728  1 C  d  1       
    46      0.576861  1 C  d  0              63     -0.490559  1 C  d  2       
    62     -0.347107  1 C  d  1              61     -0.292000  1 C  d  0       
    44      0.275354  1 C  d -2       

 Vector   27  Occ=0.000000D+00  E= 7.774150D-01
              MO Center=  1.3D-12, -1.2D-13,  4.8D-13, r^2= 3.7D+00
   Bfn.  Coefficient  Atom+Function         Bfn.  Coefficient  Atom+Function  
  ----- ------------  ---------------      ----- ------------  ---------------
    89      0.701996  1 C  f  1              90     -0.688852  1 C  f  2       
    86     -0.337054  1 C  f -2              91      0.244340  1 C  f  3       
    88      0.202546  1 C  f  0              85     -0.198631  1 C  f -3       
    87     -0.162536  1 C  f -1       

 Vector   28  Occ=0.000000D+00  E= 7.910503D-01
              MO Center= -4.5D-13, -2.2D-14,  4.5D-13, r^2= 3.1D+00
   Bfn.  Coefficient  Atom+Function         Bfn.  Coefficient  Atom+Function  
  ----- ------------  ---------------      ----- ------------  ---------------
    46      1.141784  1 C  d  0              48     -0.673347  1 C  d  2       
    61     -0.579557  1 C  d  0              63      0.341783  1 C  d  2       
    45      0.180712  1 C  d -1       

 Vector   29  Occ=0.000000D+00  E= 7.910503D-01
              MO Center=  2.5D-15,  2.6D-13, -4.4D-14, r^2= 3.1D+00
   Bfn.  Coefficient  Atom+Function         Bfn.  Coefficient  Atom+Function  
  ----- ------------  ---------------      ----- ------------  ---------------
    45      0.905294  1 C  d -1              44      0.897082  1 C  d -2       
    60     -0.459517  1 C  d -1              59     -0.455348  1 C  d -2       
    48     -0.293886  1 C  d  2              46     -0.225675  1 C  d  0       
    47      0.211147  1 C  d  1       

 Vector   30  Occ=0.000000D+00  E= 7.982765D-01
              MO Center= -8.6D-13, -2.0D-13, -9.0D-13, r^2= 3.1D+00
   Bfn.  Coefficient  Atom+Function         Bfn.  Coefficient  Atom+Function  
  ----- ------------  ---------------      ----- ------------  ---------------
    47      1.131007  1 C  d  1              62     -0.572969  1 C  d  1       
    48     -0.524406  1 C  d  2              46     -0.329346  1 C  d  0       
    63      0.265665  1 C  d  2              45     -0.261866  1 C  d -1       
    44     -0.256591  1 C  d -2               5     -0.212225  1 C  s          
     4      0.194624  1 C  s                 61      0.166847  1 C  d  0       

 Vector   31  Occ=0.000000D+00  E= 1.573792D+00
              MO Center=  3.8D-17,  1.7D-16,  1.3D-15, r^2= 2.0D+00
   Bfn.  Coefficient  Atom+Function         Bfn.  Coefficient  Atom+Function  
  ----- ------------  ---------------      ----- ------------  ---------------
    16      1.453761  1 C  px                18     -1.210355  1 C  pz         
    13     -0.996761  1 C  px                17     -0.943796  1 C  py         
    15      0.829871  1 C  pz                19     -0.817999  1 C  px         
    21      0.681040  1 C  pz                14      0.647107  1 C  py         
    20      0.531053  1 C  py                31      0.246895  1 C  px         

 Vector   32  Occ=0.000000D+00  E= 1.573792D+00
              MO Center= -4.3D-16, -7.2D-16,  5.2D-17, r^2= 2.0D+00
   Bfn.  Coefficient  Atom+Function         Bfn.  Coefficient  Atom+Function  
  ----- ------------  ---------------      ----- ------------  ---------------
    17      1.861191  1 C  py                14     -1.276112  1 C  py         
    20     -1.047250  1 C  py                18     -0.884576  1 C  pz         
    15      0.606503  1 C  pz                21      0.497731  1 C  pz         
    16      0.471834  1 C  px                13     -0.323509  1 C  px         
    32      0.316090  1 C  py                19     -0.265490  1 C  px         

 Vector   33  Occ=0.000000D+00  E= 1.591118D+00
              MO Center=  7.8D-15,  2.7D-15,  6.5D-15, r^2= 2.0D+00
   Bfn.  Coefficient  Atom+Function         Bfn.  Coefficient  Atom+Function  
  ----- ------------  ---------------      ----- ------------  ---------------
    18      1.516461  1 C  pz                16      1.485910  1 C  px         
    15     -1.000691  1 C  pz                13     -0.980531  1 C  px         
    21     -0.855003  1 C  pz                19     -0.837778  1 C  px         
    17      0.344039  1 C  py                33      0.257166  1 C  pz         
    31      0.251985  1 C  px                14     -0.227026  1 C  py         

 Vector   34  Occ=0.000000D+00  E= 2.025892D+00
              MO Center= -3.7D-15,  1.1D-15, -8.7D-15, r^2= 1.8D+00
   Bfn.  Coefficient  Atom+Function         Bfn.  Coefficient  Atom+Function  
  ----- ------------  ---------------      ----- ------------  ---------------
     4      4.720433  1 C  s                  3     -3.664895  1 C  s          
     2     -2.822875  1 C  s                  5     -2.748517  1 C  s          
     1     -1.454675  1 C  s                  9      0.806026  1 C  s          
     6     -0.540380  1 C  s          

 Vector   35  Occ=0.000000D+00  E= 2.089992D+00
              MO Center= -8.8D-15, -8.8D-15,  1.1D-14, r^2= 2.0D+00
   Bfn.  Coefficient  Atom+Function         Bfn.  Coefficient  Atom+Function  
  ----- ------------  ---------------      ----- ------------  ---------------
   108      0.686358  1 C  g  3             109      0.564995  1 C  g  4       
   107      0.531862  1 C  g  2             106      0.252092  1 C  g  1       
   104      0.171271  1 C  g -1             105      0.164563  1 C  g  0       
   101      0.150134  1 C  g -4       

 Vector   36  Occ=0.000000D+00  E= 2.089992D+00
              MO Center= -4.4D-14,  2.4D-14,  3.8D-14, r^2= 2.0D+00
   Bfn.  Coefficient  Atom+Function         Bfn.  Coefficient  Atom+Function  
  ----- ------------  ---------------      ----- ------------  ---------------
   102      0.688029  1 C  g -3             101     -0.564985  1 C  g -4       
   103     -0.517521  1 C  g -2             104      0.321550  1 C  g -1       

 Vector   37  Occ=0.000000D+00  E= 2.118339D+00
              MO Center= -7.1D-14, -3.2D-14, -3.2D-14, r^2= 2.0D+00
   Bfn.  Coefficient  Atom+Function         Bfn.  Coefficient  Atom+Function  
  ----- ------------  ---------------      ----- ------------  ---------------
   104      0.733450  1 C  g -1             109     -0.609958  1 C  g  4       
   101      0.325304  1 C  g -4             103     -0.280468  1 C  g -2       
   107      0.235597  1 C  g  2             106      0.233944  1 C  g  1       

 Vector   38  Occ=0.000000D+00  E= 2.118339D+00
              MO Center= -7.7D-15, -1.4D-15,  1.5D-14, r^2= 2.0D+00
   Bfn.  Coefficient  Atom+Function         Bfn.  Coefficient  Atom+Function  
  ----- ------------  ---------------      ----- ------------  ---------------
   101      0.605169  1 C  g -4             105     -0.573569  1 C  g  0       
   107     -0.428315  1 C  g  2             106     -0.319189  1 C  g  1       
   109      0.320034  1 C  g  4             103     -0.278521  1 C  g -2       
   104      0.211122  1 C  g -1       

 Vector   39  Occ=0.000000D+00  E= 2.138632D+00
              MO Center=  2.6D-14,  7.0D-15,  3.4D-14, r^2= 2.0D+00
   Bfn.  Coefficient  Atom+Function         Bfn.  Coefficient  Atom+Function  
  ----- ------------  ---------------      ----- ------------  ---------------
   104      0.575838  1 C  g -1             109      0.530026  1 C  g  4       
   105      0.442699  1 C  g  0             108     -0.415650  1 C  g  3       
   103      0.401409  1 C  g -2             107     -0.285778  1 C  g  2       

 Vector   40  Occ=0.000000D+00  E= 2.138632D+00
              MO Center= -6.9D-15,  3.2D-15, -8.9D-15, r^2= 2.0D+00
   Bfn.  Coefficient  Atom+Function         Bfn.  Coefficient  Atom+Function  
  ----- ------------  ---------------      ----- ------------  ---------------
   105      0.632421  1 C  g  0             101      0.539475  1 C  g -4       
   102      0.426704  1 C  g -3             103     -0.356088  1 C  g -2       
   104     -0.347020  1 C  g -1             106     -0.251590  1 C  g  1       
   108     -0.196767  1 C  g  3       

 Vector   41  Occ=0.000000D+00  E= 2.150827D+00
              MO Center= -8.2D-15, -4.7D-16,  1.2D-15, r^2= 2.0D+00
   Bfn.  Coefficient  Atom+Function         Bfn.  Coefficient  Atom+Function  
  ----- ------------  ---------------      ----- ------------  ---------------
   106      0.936313  1 C  g  1             102      0.322067  1 C  g -3       
   101      0.238807  1 C  g -4             107     -0.228329  1 C  g  2       
   105     -0.207434  1 C  g  0             104     -0.201642  1 C  g -1       
   108     -0.201592  1 C  g  3              97     -0.168500  1 C  g  1       

 Vector   42  Occ=0.000000D+00  E= 2.150827D+00
              MO Center= -2.7D-15, -2.7D-16,  1.5D-16, r^2= 2.0D+00
   Bfn.  Coefficient  Atom+Function         Bfn.  Coefficient  Atom+Function  
  ----- ------------  ---------------      ----- ------------  ---------------
   103      0.624875  1 C  g -2             102      0.560875  1 C  g -3       
   108      0.529876  1 C  g  3             109     -0.313228  1 C  g  4       
   107     -0.270032  1 C  g  2             101      0.191479  1 C  g -4       

 Vector   43  Occ=0.000000D+00  E= 2.154895D+00
              MO Center=  3.6D-15, -8.6D-16,  6.0D-15, r^2= 2.0D+00
   Bfn.  Coefficient  Atom+Function         Bfn.  Coefficient  Atom+Function  
  ----- ------------  ---------------      ----- ------------  ---------------
   107      0.693502  1 C  g  2             105     -0.451873  1 C  g  0       
   108     -0.451952  1 C  g  3             102      0.367405  1 C  g -3       
   103      0.339329  1 C  g -2             106     -0.204647  1 C  g  1       
   101      0.163532  1 C  g -4       

 Vector   44  Occ=0.000000D+00  E= 2.190629D+00
              MO Center=  2.8D-15, -1.8D-14,  2.7D-14, r^2= 1.4D+00
   Bfn.  Coefficient  Atom+Function         Bfn.  Coefficient  Atom+Function  
  ----- ------------  ---------------      ----- ------------  ---------------
    39      0.789391  1 C  d -2              43      0.713080  1 C  d  2       
    44     -0.592751  1 C  d -2              41      0.574496  1 C  d  0       
    42      0.552800  1 C  d  1              40     -0.536462  1 C  d -1       
    48     -0.535449  1 C  d  2              46     -0.431387  1 C  d  0       
    47     -0.415096  1 C  d  1              45      0.402828  1 C  d -1       

 Vector   45  Occ=0.000000D+00  E= 2.190629D+00
              MO Center= -8.6D-15,  3.7D-15,  2.0D-14, r^2= 1.4D+00
   Bfn.  Coefficient  Atom+Function         Bfn.  Coefficient  Atom+Function  
  ----- ------------  ---------------      ----- ------------  ---------------
    40      0.848060  1 C  d -1              43      0.786098  1 C  d  2       
    39     -0.650819  1 C  d -2              45     -0.636805  1 C  d -1       
    48     -0.590278  1 C  d  2              44      0.488698  1 C  d -2       
    42      0.484354  1 C  d  1              47     -0.363700  1 C  d  1       
    41      0.244390  1 C  d  0              60      0.213779  1 C  d -1       

 Vector   46  Occ=0.000000D+00  E= 2.224677D+00
              MO Center= -1.3D-14, -1.2D-14,  1.6D-14, r^2= 1.4D+00
   Bfn.  Coefficient  Atom+Function         Bfn.  Coefficient  Atom+Function  
  ----- ------------  ---------------      ----- ------------  ---------------
    41      1.238414  1 C  d  0              46     -0.935938  1 C  d  0       
    43     -0.659578  1 C  d  2              48      0.498480  1 C  d  2       
    61      0.312434  1 C  d  0              39     -0.278812  1 C  d -2       
    44      0.210714  1 C  d -2              63     -0.166402  1 C  d  2       

 Vector   47  Occ=0.000000D+00  E= 2.224677D+00
              MO Center= -2.7D-14,  3.0D-14,  2.4D-14, r^2= 1.4D+00
   Bfn.  Coefficient  Atom+Function         Bfn.  Coefficient  Atom+Function  
  ----- ------------  ---------------      ----- ------------  ---------------
    40      0.982204  1 C  d -1              39      0.923115  1 C  d -2       
    45     -0.742306  1 C  d -1              44     -0.697649  1 C  d -2       
    43     -0.420713  1 C  d  2              48      0.317956  1 C  d  2       
    60      0.247796  1 C  d -1              59      0.232889  1 C  d -2       
    42      0.227743  1 C  d  1              47     -0.172118  1 C  d  1       

 Vector   48  Occ=0.000000D+00  E= 2.237432D+00
              MO Center= -1.1D-15, -1.9D-15,  8.6D-15, r^2= 1.4D+00
   Bfn.  Coefficient  Atom+Function         Bfn.  Coefficient  Atom+Function  
  ----- ------------  ---------------      ----- ------------  ---------------
    42      1.205651  1 C  d  1              47     -0.911942  1 C  d  1       
    43     -0.559016  1 C  d  2              48      0.422834  1 C  d  2       
    41     -0.351083  1 C  d  0              62      0.303750  1 C  d  1       
    40     -0.279149  1 C  d -1              39     -0.273526  1 C  d -2       
    46      0.265555  1 C  d  0              45      0.211146  1 C  d -1       

 Vector   49  Occ=0.000000D+00  E= 2.245171D+00
              MO Center=  1.3D-14, -3.8D-15, -1.2D-14, r^2= 1.6D+00
   Bfn.  Coefficient  Atom+Function         Bfn.  Coefficient  Atom+Function  
  ----- ------------  ---------------      ----- ------------  ---------------
    76      0.820079  1 C  f  2              77      0.707413  1 C  f  3       
    75      0.460501  1 C  f  1              71     -0.408839  1 C  f -3       
    90     -0.398884  1 C  f  2              74      0.369000  1 C  f  0       
    91     -0.344084  1 C  f  3              72      0.260074  1 C  f -2       
    89     -0.223986  1 C  f  1              85      0.198858  1 C  f -3       

 Vector   50  Occ=0.000000D+00  E= 2.245171D+00
              MO Center=  1.2D-13,  7.7D-15, -1.8D-14, r^2= 1.6D+00
   Bfn.  Coefficient  Atom+Function         Bfn.  Coefficient  Atom+Function  
  ----- ------------  ---------------      ----- ------------  ---------------
    72     -0.779108  1 C  f -2              71      0.713089  1 C  f -3       
    73      0.636907  1 C  f -1              77      0.415165  1 C  f  3       
    86      0.378956  1 C  f -2              85     -0.346844  1 C  f -3       
    87     -0.309790  1 C  f -1              76      0.231318  1 C  f  2       
    91     -0.201935  1 C  f  3       

 Vector   51  Occ=0.000000D+00  E= 2.283145D+00
              MO Center=  6.2D-15, -2.0D-14, -3.5D-14, r^2= 1.6D+00
   Bfn.  Coefficient  Atom+Function         Bfn.  Coefficient  Atom+Function  
  ----- ------------  ---------------      ----- ------------  ---------------
    74      0.897676  1 C  f  0              77     -0.742619  1 C  f  3       
    71      0.433982  1 C  f -3              88     -0.434823  1 C  f  0       
    75      0.389216  1 C  f  1              91      0.359715  1 C  f  3       
    85     -0.210215  1 C  f -3              76      0.202880  1 C  f  2       
    89     -0.188531  1 C  f  1       

 Vector   52  Occ=0.000000D+00  E= 2.283145D+00
              MO Center=  2.4D-14,  2.0D-14, -8.1D-14, r^2= 1.6D+00
   Bfn.  Coefficient  Atom+Function         Bfn.  Coefficient  Atom+Function  
  ----- ------------  ---------------      ----- ------------  ---------------
    73      1.020300  1 C  f -1              71     -0.709423  1 C  f -3       
    87     -0.494220  1 C  f -1              77     -0.396527  1 C  f  3       
    85      0.343635  1 C  f -3              91      0.192072  1 C  f  3       
    75      0.175427  1 C  f  1       

 Vector   53  Occ=0.000000D+00  E= 2.306622D+00
              MO Center=  1.3D-14,  6.1D-15, -1.1D-14, r^2= 1.6D+00
   Bfn.  Coefficient  Atom+Function         Bfn.  Coefficient  Atom+Function  
  ----- ------------  ---------------      ----- ------------  ---------------
    74      0.848284  1 C  f  0              75     -0.813183  1 C  f  1       
    88     -0.409762  1 C  f  0              89      0.392806  1 C  f  1       
    71     -0.343977  1 C  f -3              77      0.302122  1 C  f  3       
    72     -0.270520  1 C  f -2              76     -0.270883  1 C  f  2       
    85      0.166158  1 C  f -3       

 Vector   54  Occ=0.000000D+00  E= 2.306622D+00
              MO Center=  1.2D-15,  3.9D-15, -6.0D-15, r^2= 1.6D+00
   Bfn.  Coefficient  Atom+Function         Bfn.  Coefficient  Atom+Function  
  ----- ------------  ---------------      ----- ------------  ---------------
    72      0.914738  1 C  f -2              73      0.497852  1 C  f -1       
    76     -0.495658  1 C  f  2              71      0.462843  1 C  f -3       
    77      0.445618  1 C  f  3              86     -0.441862  1 C  f -2       
    87     -0.240487  1 C  f -1              90      0.239426  1 C  f  2       
    85     -0.223575  1 C  f -3              91     -0.215255  1 C  f  3       

 Vector   55  Occ=0.000000D+00  E= 2.314600D+00
              MO Center=  1.1D-14, -3.6D-15, -1.5D-14, r^2= 1.6D+00
   Bfn.  Coefficient  Atom+Function         Bfn.  Coefficient  Atom+Function  
  ----- ------------  ---------------      ----- ------------  ---------------
    75      0.832006  1 C  f  1              76     -0.816428  1 C  f  2       
    89     -0.401506  1 C  f  1              72     -0.399477  1 C  f -2       
    90      0.393988  1 C  f  2              77      0.289592  1 C  f  3       
    74      0.240057  1 C  f  0              71     -0.235417  1 C  f -3       
    73     -0.192638  1 C  f -1              86      0.192778  1 C  f -2       

 Vector   56  Occ=0.000000D+00  E= 5.167139D+00
              MO Center=  1.1D-15,  5.0D-17, -8.7D-16, r^2= 6.8D-01
   Bfn.  Coefficient  Atom+Function         Bfn.  Coefficient  Atom+Function  
  ----- ------------  ---------------      ----- ------------  ---------------
    13      1.409567  1 C  px                10     -1.270929  1 C  px         
    15     -1.149714  1 C  pz                12      1.036634  1 C  pz         
    14     -1.020217  1 C  py                11      0.919874  1 C  py         
    16     -0.897898  1 C  px                18      0.732370  1 C  pz         
    17      0.649881  1 C  py                19      0.394550  1 C  px         

 Vector   57  Occ=0.000000D+00  E= 5.167139D+00
              MO Center=  5.9D-16,  9.4D-16, -7.5D-16, r^2= 6.8D-01
   Bfn.  Coefficient  Atom+Function         Bfn.  Coefficient  Atom+Function  
  ----- ------------  ---------------      ----- ------------  ---------------
    14      1.788136  1 C  py                11     -1.612264  1 C  py         
    17     -1.139047  1 C  py                15     -0.930303  1 C  pz         
    12      0.838803  1 C  pz                18      0.592605  1 C  pz         
    13      0.535416  1 C  px                20      0.500515  1 C  py         
    10     -0.482755  1 C  px                16     -0.341061  1 C  px         

 Vector   58  Occ=0.000000D+00  E= 5.224839D+00
              MO Center= -3.2D-15, -1.4D-15, -2.9D-15, r^2= 6.8D-01
   Bfn.  Coefficient  Atom+Function         Bfn.  Coefficient  Atom+Function  
  ----- ------------  ---------------      ----- ------------  ---------------
    15      1.477641  1 C  pz                13      1.447873  1 C  px         
    12     -1.321209  1 C  pz                10     -1.294592  1 C  px         
    18     -0.940991  1 C  pz                16     -0.922034  1 C  px         
    21      0.412256  1 C  pz                19      0.403951  1 C  px         
    14      0.335232  1 C  py                11     -0.299742  1 C  py         

 Vector   59  Occ=0.000000D+00  E= 5.873904D+00
              MO Center= -2.9D-15,  3.7D-15,  2.0D-15, r^2= 8.6D-01
   Bfn.  Coefficient  Atom+Function         Bfn.  Coefficient  Atom+Function  
  ----- ------------  ---------------      ----- ------------  ---------------
    99      0.644014  1 C  g  3             100      0.613297  1 C  g  4       
    93      0.428690  1 C  g -3              94     -0.417192  1 C  g -2       
    98      0.409773  1 C  g  2              95      0.364746  1 C  g -1       
   108     -0.307922  1 C  g  3             109     -0.293235  1 C  g  4       
    92     -0.228275  1 C  g -4             102     -0.204969  1 C  g -3       

 Vector   60  Occ=0.000000D+00  E= 5.873904D+00
              MO Center= -1.7D-15, -4.9D-15,  2.8D-15, r^2= 8.6D-01
   Bfn.  Coefficient  Atom+Function         Bfn.  Coefficient  Atom+Function  
  ----- ------------  ---------------      ----- ------------  ---------------
    93     -0.641066  1 C  g -3              92      0.613965  1 C  g -4       
    98      0.452652  1 C  g  2              99      0.421281  1 C  g  3       
    94      0.415175  1 C  g -2             102      0.306513  1 C  g -3       
   101     -0.293555  1 C  g -4              97      0.243135  1 C  g  1       
   100      0.229238  1 C  g  4              96      0.221219  1 C  g  0       

 Vector   61  Occ=0.000000D+00  E= 5.921174D+00
              MO Center=  4.4D-15, -5.0D-15, -1.4D-15, r^2= 8.5D-01
   Bfn.  Coefficient  Atom+Function         Bfn.  Coefficient  Atom+Function  
  ----- ------------  ---------------      ----- ------------  ---------------
    96     -0.651495  1 C  g  0              92      0.620690  1 C  g -4       
    98     -0.511433  1 C  g  2             100      0.449332  1 C  g  4       
    97     -0.390169  1 C  g  1             105      0.310920  1 C  g  0       
   101     -0.296219  1 C  g -4              94     -0.265417  1 C  g -2       
   107      0.244077  1 C  g  2             109     -0.214439  1 C  g  4       

 Vector   62  Occ=0.000000D+00  E= 5.921174D+00
              MO Center= -3.0D-16, -7.6D-16,  5.8D-16, r^2= 8.5D-01
   Bfn.  Coefficient  Atom+Function         Bfn.  Coefficient  Atom+Function  
  ----- ------------  ---------------      ----- ------------  ---------------
    95      0.846002  1 C  g -1             100     -0.626816  1 C  g  4       
    92      0.454434  1 C  g -4             104     -0.403747  1 C  g -1       
    94     -0.354135  1 C  g -2             109      0.299142  1 C  g  4       
   101     -0.216874  1 C  g -4              97      0.209991  1 C  g  1       
    98      0.194926  1 C  g  2             103      0.169008  1 C  g -2       

 Vector   63  Occ=0.000000D+00  E= 5.954845D+00
              MO Center=  7.4D-16, -1.7D-17, -9.3D-16, r^2= 8.5D-01
   Bfn.  Coefficient  Atom+Function         Bfn.  Coefficient  Atom+Function  
  ----- ------------  ---------------      ----- ------------  ---------------
    96      0.855021  1 C  g  0              99     -0.479007  1 C  g  3       
   100      0.440484  1 C  g  4              92      0.431191  1 C  g -4       
   105     -0.407504  1 C  g  0              93      0.314904  1 C  g -3       
   108      0.228295  1 C  g  3             109     -0.209935  1 C  g  4       
   101     -0.205506  1 C  g -4              97     -0.194866  1 C  g  1       

 Vector   64  Occ=0.000000D+00  E= 5.954845D+00
              MO Center=  1.0D-15, -1.5D-15,  3.1D-15, r^2= 8.5D-01
   Bfn.  Coefficient  Atom+Function         Bfn.  Coefficient  Atom+Function  
  ----- ------------  ---------------      ----- ------------  ---------------
    95      0.735552  1 C  g -1              94      0.600250  1 C  g -2       
    92     -0.422759  1 C  g -4             100      0.400023  1 C  g  4       
    93     -0.362215  1 C  g -3             104     -0.350565  1 C  g -1       
   103     -0.286080  1 C  g -2              98     -0.268743  1 C  g  2       
    97      0.203782  1 C  g  1             101      0.201487  1 C  g -4       

 Vector   65  Occ=0.000000D+00  E= 5.975011D+00
              MO Center=  4.7D-15,  1.6D-15, -5.5D-16, r^2= 8.5D-01
   Bfn.  Coefficient  Atom+Function         Bfn.  Coefficient  Atom+Function  
  ----- ------------  ---------------      ----- ------------  ---------------
    97      1.052500  1 C  g  1             106     -0.501214  1 C  g  1       
    93      0.334682  1 C  g -3              92      0.258307  1 C  g -4       
    99     -0.249320  1 C  g  3              98     -0.243041  1 C  g  2       
    96     -0.233389  1 C  g  0              95     -0.231050  1 C  g -1       
   102     -0.159380  1 C  g -3       

 Vector   66  Occ=0.000000D+00  E= 5.975011D+00
              MO Center= -7.7D-17,  1.2D-15,  3.1D-16, r^2= 8.5D-01
   Bfn.  Coefficient  Atom+Function         Bfn.  Coefficient  Atom+Function  
  ----- ------------  ---------------      ----- ------------  ---------------
    94      0.698964  1 C  g -2              93      0.641571  1 C  g -3       
    99      0.583239  1 C  g  3             100     -0.345102  1 C  g  4       
   103     -0.332855  1 C  g -2              98     -0.312196  1 C  g  2       
   102     -0.305524  1 C  g -3             108     -0.277746  1 C  g  3       
    92      0.224854  1 C  g -4             109      0.164342  1 C  g  4       

 Vector   67  Occ=0.000000D+00  E= 5.981727D+00
              MO Center=  5.5D-15,  8.5D-16, -4.1D-15, r^2= 8.5D-01
   Bfn.  Coefficient  Atom+Function         Bfn.  Coefficient  Atom+Function  
  ----- ------------  ---------------      ----- ------------  ---------------
    98      0.775854  1 C  g  2              96     -0.505532  1 C  g  0       
    99     -0.505621  1 C  g  3              93      0.411033  1 C  g -3       
    94      0.379624  1 C  g -2             107     -0.369370  1 C  g  2       
   105      0.240675  1 C  g  0             108      0.240717  1 C  g  3       
    97     -0.228949  1 C  g  1             102     -0.195686  1 C  g -3       

 Vector   68  Occ=0.000000D+00  E= 6.319865D+00
              MO Center=  1.5D-14, -2.2D-14, -1.9D-14, r^2= 5.4D-01
   Bfn.  Coefficient  Atom+Function         Bfn.  Coefficient  Atom+Function  
  ----- ------------  ---------------      ----- ------------  ---------------
    34      0.819481  1 C  d -2              39     -0.696074  1 C  d -2       
    38      0.636287  1 C  d  2              35     -0.587617  1 C  d -1       
    36      0.542059  1 C  d  0              43     -0.540468  1 C  d  2       
    37      0.502731  1 C  d  1              40      0.499127  1 C  d -1       
    41     -0.460430  1 C  d  0              42     -0.427024  1 C  d  1       

 Vector   69  Occ=0.000000D+00  E= 6.319865D+00
              MO Center=  2.8D-15,  2.0D-14, -1.4D-14, r^2= 5.4D-01
   Bfn.  Coefficient  Atom+Function         Bfn.  Coefficient  Atom+Function  
  ----- ------------  ---------------      ----- ------------  ---------------
    38      0.820979  1 C  d  2              35      0.786882  1 C  d -1       
    43     -0.697347  1 C  d  2              40     -0.668385  1 C  d -1       
    34     -0.575288  1 C  d -2              37      0.514430  1 C  d  1       
    39      0.488655  1 C  d -2              42     -0.436962  1 C  d  1       
    48      0.327199  1 C  d  2              45      0.313609  1 C  d -1       

 Vector   70  Occ=0.000000D+00  E= 6.374997D+00
              MO Center=  5.9D-16, -4.1D-15, -4.3D-15, r^2= 5.4D-01
   Bfn.  Coefficient  Atom+Function         Bfn.  Coefficient  Atom+Function  
  ----- ------------  ---------------      ----- ------------  ---------------
    36      1.213915  1 C  d  0              41     -1.034060  1 C  d  0       
    38     -0.644514  1 C  d  2              43      0.549022  1 C  d  2       
    46      0.483878  1 C  d  0              34     -0.277417  1 C  d -2       
    48     -0.256910  1 C  d  2              39      0.236314  1 C  d -2       
    61     -0.151873  1 C  d  0       

 Vector   71  Occ=0.000000D+00  E= 6.374997D+00
              MO Center= -1.8D-15,  2.7D-16,  1.3D-15, r^2= 5.4D-01
   Bfn.  Coefficient  Atom+Function         Bfn.  Coefficient  Atom+Function  
  ----- ------------  ---------------      ----- ------------  ---------------
    35      0.962782  1 C  d -1              34      0.903432  1 C  d -2       
    40     -0.820135  1 C  d -1              39     -0.769579  1 C  d -2       
    38     -0.415296  1 C  d  2              45      0.383774  1 C  d -1       
    44      0.360117  1 C  d -2              43      0.353765  1 C  d  2       
    37      0.223201  1 C  d  1              42     -0.190131  1 C  d  1       

 Vector   72  Occ=0.000000D+00  E= 6.393612D+00
              MO Center= -6.4D-15,  2.4D-16,  4.2D-15, r^2= 5.4D-01
   Bfn.  Coefficient  Atom+Function         Bfn.  Coefficient  Atom+Function  
  ----- ------------  ---------------      ----- ------------  ---------------
    37      1.183133  1 C  d  1              42     -1.008624  1 C  d  1       
    38     -0.548575  1 C  d  2              47      0.471520  1 C  d  1       
    43      0.467662  1 C  d  2              36     -0.344525  1 C  d  0       
    41      0.293709  1 C  d  0              35     -0.273936  1 C  d -1       
    34     -0.268417  1 C  d -2              40      0.233531  1 C  d -1       

 Vector   73  Occ=0.000000D+00  E= 6.418132D+00
              MO Center= -2.4D-14,  5.0D-15,  2.3D-14, r^2= 6.2D-01
   Bfn.  Coefficient  Atom+Function         Bfn.  Coefficient  Atom+Function  
  ----- ------------  ---------------      ----- ------------  ---------------
    69      0.791779  1 C  f  2              70      0.724887  1 C  f  3       
    76     -0.498966  1 C  f  2              77     -0.456812  1 C  f  3       
    68      0.433847  1 C  f  1              67      0.324705  1 C  f  0       
    75     -0.273403  1 C  f  1              64     -0.233808  1 C  f -3       
    74     -0.204624  1 C  f  0              90      0.185227  1 C  f  2       

 Vector   74  Occ=0.000000D+00  E= 6.418132D+00
              MO Center=  1.7D-15, -1.5D-15, -1.7D-15, r^2= 6.2D-01
   Bfn.  Coefficient  Atom+Function         Bfn.  Coefficient  Atom+Function  
  ----- ------------  ---------------      ----- ------------  ---------------
    65     -0.760052  1 C  f -2              64      0.728827  1 C  f -3       
    66      0.580635  1 C  f -1              72      0.478973  1 C  f -2       
    71     -0.459295  1 C  f -3              73     -0.365907  1 C  f -1       
    70      0.240672  1 C  f  3              86     -0.177806  1 C  f -2       
    85      0.170501  1 C  f -3              77     -0.151668  1 C  f  3       

 Vector   75  Occ=0.000000D+00  E= 6.473027D+00
              MO Center=  4.3D-15,  7.6D-16,  9.4D-15, r^2= 6.2D-01
   Bfn.  Coefficient  Atom+Function         Bfn.  Coefficient  Atom+Function  
  ----- ------------  ---------------      ----- ------------  ---------------
    67      0.844849  1 C  f  0              70     -0.656109  1 C  f  3       
    74     -0.531902  1 C  f  0              64      0.461102  1 C  f -3       
    77      0.413075  1 C  f  3              68      0.346549  1 C  f  1       
    71     -0.290302  1 C  f -3              75     -0.218181  1 C  f  1       
    88      0.197045  1 C  f  0              69      0.191222  1 C  f  2       

 Vector   76  Occ=0.000000D+00  E= 6.473027D+00
              MO Center= -1.9D-15,  1.0D-14, -4.4D-15, r^2= 6.2D-01
   Bfn.  Coefficient  Atom+Function         Bfn.  Coefficient  Atom+Function  
  ----- ------------  ---------------      ----- ------------  ---------------
    66      0.953371  1 C  f -1              64     -0.622225  1 C  f -3       
    73     -0.600226  1 C  f -1              70     -0.429100  1 C  f  3       
    71      0.391742  1 C  f -3              77      0.270154  1 C  f  3       
    87      0.222356  1 C  f -1              68      0.194845  1 C  f  1       

 Vector   77  Occ=0.000000D+00  E= 6.506281D+00
              MO Center=  8.4D-16, -2.0D-15, -2.3D-15, r^2= 6.2D-01
   Bfn.  Coefficient  Atom+Function         Bfn.  Coefficient  Atom+Function  
  ----- ------------  ---------------      ----- ------------  ---------------
    65      0.771278  1 C  f -2              69     -0.507433  1 C  f  2       
    72     -0.485242  1 C  f -2              66      0.478897  1 C  f -1       
    70      0.468766  1 C  f  3              64      0.345850  1 C  f -3       
    76      0.319246  1 C  f  2              73     -0.301293  1 C  f -1       
    77     -0.294920  1 C  f  3              67      0.273572  1 C  f  0       

 Vector   78  Occ=0.000000D+00  E= 6.506281D+00
              MO Center=  2.9D-15,  1.4D-15, -1.5D-16, r^2= 6.2D-01
   Bfn.  Coefficient  Atom+Function         Bfn.  Coefficient  Atom+Function  
  ----- ------------  ---------------      ----- ------------  ---------------
    67      0.747350  1 C  f  0              68     -0.740380  1 C  f  1       
    74     -0.470188  1 C  f  0              75      0.465803  1 C  f  1       
    65     -0.441378  1 C  f -2              64     -0.411081  1 C  f -3       
    72      0.277688  1 C  f -2              71      0.258628  1 C  f -3       
    70      0.178351  1 C  f  3              88      0.173961  1 C  f  0       

 Vector   79  Occ=0.000000D+00  E= 6.517435D+00
              MO Center= -3.8D-15, -1.9D-15,  2.9D-15, r^2= 6.2D-01
   Bfn.  Coefficient  Atom+Function         Bfn.  Coefficient  Atom+Function  
  ----- ------------  ---------------      ----- ------------  ---------------
    68      0.775251  1 C  f  1              69     -0.760736  1 C  f  2       
    75     -0.487615  1 C  f  1              76      0.478485  1 C  f  2       
    65     -0.372227  1 C  f -2              70      0.269837  1 C  f  3       
    72      0.234122  1 C  f -2              67      0.223682  1 C  f  0       
    64     -0.219358  1 C  f -3              66     -0.179497  1 C  f -1       

 Vector   80  Occ=0.000000D+00  E= 8.952256D+00
              MO Center=  6.0D-16,  2.1D-16,  3.0D-15, r^2= 4.8D-01
   Bfn.  Coefficient  Atom+Function         Bfn.  Coefficient  Atom+Function  
  ----- ------------  ---------------      ----- ------------  ---------------
     2     15.465344  1 C  s                  1     10.092074  1 C  s          
     6      4.129193  1 C  s                  3      3.351479  1 C  s          
     4     -2.545547  1 C  s                  5      1.231570  1 C  s          
     9     -0.353824  1 C  s                  8      0.186935  1 C  s          

 Vector   81  Occ=0.000000D+00  E= 1.865905D+01
              MO Center=  7.5D-17, -7.4D-16,  1.3D-16, r^2= 2.0D-01
   Bfn.  Coefficient  Atom+Function         Bfn.  Coefficient  Atom+Function  
  ----- ------------  ---------------      ----- ------------  ---------------
    11      1.715758  1 C  py                23     -1.719299  1 C  py         
    14     -0.976334  1 C  py                12     -0.861289  1 C  pz         
    24      0.863067  1 C  pz                17      0.518509  1 C  py         
    15      0.490108  1 C  pz                10      0.481741  1 C  px         
    22     -0.482735  1 C  px                13     -0.274130  1 C  px         

 Vector   82  Occ=0.000000D+00  E= 1.865905D+01
              MO Center=  5.4D-16,  9.1D-17, -3.9D-16, r^2= 2.0D-01
   Bfn.  Coefficient  Atom+Function         Bfn.  Coefficient  Atom+Function  
  ----- ------------  ---------------      ----- ------------  ---------------
    10      1.347496  1 C  px                22     -1.350277  1 C  px         
    12     -1.108296  1 C  pz                24      1.110584  1 C  pz         
    11     -0.934693  1 C  py                23      0.936622  1 C  py         
    13     -0.766779  1 C  px                15      0.630665  1 C  pz         
    14      0.531878  1 C  py                16      0.407218  1 C  px         

 Vector   83  Occ=0.000000D+00  E= 1.872025D+01
              MO Center=  4.2D-17,  7.3D-17, -4.8D-16, r^2= 2.0D-01
   Bfn.  Coefficient  Atom+Function         Bfn.  Coefficient  Atom+Function  
  ----- ------------  ---------------      ----- ------------  ---------------
    12      1.398016  1 C  pz                24     -1.398277  1 C  pz         
    10      1.369852  1 C  px                22     -1.370108  1 C  px         
    15     -0.795871  1 C  pz                13     -0.779838  1 C  px         
    18      0.422265  1 C  pz                16      0.413758  1 C  px         
    11      0.317167  1 C  py                23     -0.317227  1 C  py         

 Vector   84  Occ=0.000000D+00  E= 2.637504D+01
              MO Center= -1.0D-16,  4.5D-16, -1.6D-17, r^2= 1.1D-01
   Bfn.  Coefficient  Atom+Function         Bfn.  Coefficient  Atom+Function  
  ----- ------------  ---------------      ----- ------------  ---------------
    50      0.776642  1 C  d -1              49     -0.681974  1 C  d -2       
    35     -0.444588  1 C  d -1              53      0.444429  1 C  d  2       
    34      0.390395  1 C  d -2              40      0.271654  1 C  d -1       
    38     -0.254413  1 C  d  2              52      0.248017  1 C  d  1       
    39     -0.238541  1 C  d -2              43      0.155453  1 C  d  2       

 Vector   85  Occ=0.000000D+00  E= 2.637504D+01
              MO Center= -3.4D-16, -3.2D-17,  2.4D-16, r^2= 1.1D-01
   Bfn.  Coefficient  Atom+Function         Bfn.  Coefficient  Atom+Function  
  ----- ------------  ---------------      ----- ------------  ---------------
    53      0.729278  1 C  d  2              52      0.536896  1 C  d  1       
    51      0.499027  1 C  d  0              49      0.461141  1 C  d -2       
    38     -0.417475  1 C  d  2              37     -0.307346  1 C  d  1       
    36     -0.285668  1 C  d  0              34     -0.263980  1 C  d -2       
    43      0.255087  1 C  d  2              50     -0.221036  1 C  d -1       

 Vector   86  Occ=0.000000D+00  E= 2.642040D+01
              MO Center=  3.4D-17, -3.0D-16, -2.1D-16, r^2= 1.1D-01
   Bfn.  Coefficient  Atom+Function         Bfn.  Coefficient  Atom+Function  
  ----- ------------  ---------------      ----- ------------  ---------------
    50      0.792217  1 C  d -1              49      0.738188  1 C  d -2       
    35     -0.454173  1 C  d -1              34     -0.423199  1 C  d -2       
    53     -0.352264  1 C  d  2              40      0.277412  1 C  d -1       
    39      0.258492  1 C  d -2              38      0.201951  1 C  d  2       
    52      0.183520  1 C  d  1       

 Vector   87  Occ=0.000000D+00  E= 2.642040D+01
              MO Center= -2.8D-16,  1.8D-17,  1.4D-16, r^2= 1.1D-01
   Bfn.  Coefficient  Atom+Function         Bfn.  Coefficient  Atom+Function  
  ----- ------------  ---------------      ----- ------------  ---------------
    51      0.998821  1 C  d  0              36     -0.572618  1 C  d  0       
    53     -0.522987  1 C  d  2              41      0.349758  1 C  d  0       
    38      0.299826  1 C  d  2              49     -0.243231  1 C  d -2       
    43     -0.183135  1 C  d  2              46     -0.159653  1 C  d  0       

 Vector   88  Occ=0.000000D+00  E= 2.643532D+01
              MO Center= -4.0D-16, -2.9D-17,  3.0D-17, r^2= 1.1D-01
   Bfn.  Coefficient  Atom+Function         Bfn.  Coefficient  Atom+Function  
  ----- ------------  ---------------      ----- ------------  ---------------
    52      0.973150  1 C  d  1              37     -0.558162  1 C  d  1       
    53     -0.451214  1 C  d  2              42      0.340881  1 C  d  1       
    51     -0.283379  1 C  d  0              38      0.258799  1 C  d  2       
    50     -0.225317  1 C  d -1              49     -0.220778  1 C  d -2       
    36      0.162535  1 C  d  0              43     -0.158054  1 C  d  2       

 Vector   89  Occ=0.000000D+00  E= 3.520176D+01
              MO Center=  4.4D-16,  4.5D-16, -3.7D-18, r^2= 1.4D-01
   Bfn.  Coefficient  Atom+Function         Bfn.  Coefficient  Atom+Function  
  ----- ------------  ---------------      ----- ------------  ---------------
     2     10.107423  1 C  s                  6      6.793142  1 C  s          
     1      4.180134  1 C  s                  7     -1.860923  1 C  s          
     3      1.694532  1 C  s                  4     -1.183803  1 C  s          
     5      0.570960  1 C  s                  8      0.510410  1 C  s          
     9     -0.166050  1 C  s          

 Vector   90  Occ=0.000000D+00  E= 6.630291D+01
              MO Center= -7.4D-17, -1.4D-16,  1.3D-16, r^2= 5.9D-02
   Bfn.  Coefficient  Atom+Function         Bfn.  Coefficient  Atom+Function  
  ----- ------------  ---------------      ----- ------------  ---------------
    23      1.667254  1 C  py                26     -1.575707  1 C  py         
    11     -0.954688  1 C  py                24     -0.636468  1 C  pz         
    27      0.601520  1 C  pz                14      0.478365  1 C  py         
    12      0.364448  1 C  pz                22      0.263528  1 C  px         
    17     -0.253725  1 C  py                25     -0.249057  1 C  px         

 Vector   91  Occ=0.000000D+00  E= 6.630291D+01
              MO Center=  1.5D-16, -1.3D-16, -1.5D-16, r^2= 5.9D-02
   Bfn.  Coefficient  Atom+Function         Bfn.  Coefficient  Atom+Function  
  ----- ------------  ---------------      ----- ------------  ---------------
    22      1.277336  1 C  px                25     -1.207198  1 C  px         
    24     -1.109692  1 C  pz                27      1.048760  1 C  pz         
    10     -0.731416  1 C  px                12      0.635422  1 C  pz         
    23     -0.625517  1 C  py                26      0.591171  1 C  py         
    13      0.366490  1 C  px                11      0.358178  1 C  py         

 Vector   92  Occ=0.000000D+00  E= 6.634334D+01
              MO Center=  1.7D-17, -2.4D-16, -3.1D-16, r^2= 5.9D-02
   Bfn.  Coefficient  Atom+Function         Bfn.  Coefficient  Atom+Function  
  ----- ------------  ---------------      ----- ------------  ---------------
    24      1.272557  1 C  pz                22      1.246920  1 C  px         
    27     -1.202005  1 C  pz                25     -1.177790  1 C  px         
    12     -0.728927  1 C  pz                10     -0.714242  1 C  px         
    15      0.365212  1 C  pz                13      0.357854  1 C  px         
    23      0.288704  1 C  py                26     -0.272698  1 C  py         

 Vector   93  Occ=0.000000D+00  E= 9.865573D+01
              MO Center= -6.5D-17, -9.0D-17,  8.5D-17, r^2= 2.6D-02
   Bfn.  Coefficient  Atom+Function         Bfn.  Coefficient  Atom+Function  
  ----- ------------  ---------------      ----- ------------  ---------------
    83      0.579190  1 C  f  2              84      0.471191  1 C  f  3       
    78     -0.397965  1 C  f -3              82      0.332539  1 C  f  1       
    79      0.296069  1 C  f -2              81      0.282030  1 C  f  0       

 Vector   94  Occ=0.000000D+00  E= 9.865573D+01
              MO Center=  2.8D-19,  8.3D-17, -2.0D-17, r^2= 2.6D-02
   Bfn.  Coefficient  Atom+Function         Bfn.  Coefficient  Atom+Function  
  ----- ------------  ---------------      ----- ------------  ---------------
    79      0.544939  1 C  f -2              78     -0.476244  1 C  f -3       
    80     -0.473097  1 C  f -1              84     -0.401919  1 C  f  3       
    83     -0.280092  1 C  f  2       

 Vector   95  Occ=0.000000D+00  E= 9.867875D+01
              MO Center= -7.2D-17, -4.8D-18,  9.9D-17, r^2= 2.6D-02
   Bfn.  Coefficient  Atom+Function         Bfn.  Coefficient  Atom+Function  
  ----- ------------  ---------------      ----- ------------  ---------------
    80      0.767994  1 C  f -1              78     -0.460976  1 C  f -3       
    84     -0.403673  1 C  f  3              82      0.187581  1 C  f  1       

 Vector   96  Occ=0.000000D+00  E= 9.867875D+01
              MO Center=  1.4D-16,  8.4D-17, -1.4D-16, r^2= 2.6D-02
   Bfn.  Coefficient  Atom+Function         Bfn.  Coefficient  Atom+Function  
  ----- ------------  ---------------      ----- ------------  ---------------
    81      0.686573  1 C  f  0              84     -0.491108  1 C  f  3       
    78      0.426487  1 C  f -3              82      0.262197  1 C  f  1       
    83      0.155673  1 C  f  2       

 Vector   97  Occ=0.000000D+00  E= 9.869254D+01
              MO Center= -4.2D-17,  9.6D-18, -1.2D-17, r^2= 2.6D-02
   Bfn.  Coefficient  Atom+Function         Bfn.  Coefficient  Atom+Function  
  ----- ------------  ---------------      ----- ------------  ---------------
    79      0.678392  1 C  f -2              83     -0.385557  1 C  f  2       
    80      0.381086  1 C  f -1              84      0.349154  1 C  f  3       
    78      0.334344  1 C  f -3       

 Vector   98  Occ=0.000000D+00  E= 9.869254D+01
              MO Center=  8.3D-17,  4.0D-17, -1.3D-16, r^2= 2.6D-02
   Bfn.  Coefficient  Atom+Function         Bfn.  Coefficient  Atom+Function  
  ----- ------------  ---------------      ----- ------------  ---------------
    81      0.635552  1 C  f  0              82     -0.614061  1 C  f  1       
    78     -0.279397  1 C  f -3              79     -0.243431  1 C  f -2       
    84      0.208729  1 C  f  3              83     -0.183012  1 C  f  2       

 Vector   99  Occ=0.000000D+00  E= 9.869713D+01
              MO Center= -4.6D-16,  1.7D-16, -4.4D-16, r^2= 2.6D-02
   Bfn.  Coefficient  Atom+Function         Bfn.  Coefficient  Atom+Function  
  ----- ------------  ---------------      ----- ------------  ---------------
    82      0.628848  1 C  f  1              83     -0.617074  1 C  f  2       
    79     -0.301933  1 C  f -2              84      0.218880  1 C  f  3       
    81      0.181440  1 C  f  0              78     -0.177933  1 C  f -3       

 Vector  100  Occ=0.000000D+00  E= 1.151039D+02
              MO Center= -6.5D-17,  7.6D-17, -8.3D-18, r^2= 2.6D-02
   Bfn.  Coefficient  Atom+Function         Bfn.  Coefficient  Atom+Function  
  ----- ------------  ---------------      ----- ------------  ---------------
    55     -0.806119  1 C  d -1              54      0.761221  1 C  d -2       
    50      0.399496  1 C  d -1              49     -0.377245  1 C  d -2       
    58     -0.290293  1 C  d  2              35     -0.154410  1 C  d -1       

 Vector  101  Occ=0.000000D+00  E= 1.151039D+02
              MO Center=  1.1D-16, -8.4D-17, -1.1D-16, r^2= 2.6D-02
   Bfn.  Coefficient  Atom+Function         Bfn.  Coefficient  Atom+Function  
  ----- ------------  ---------------      ----- ------------  ---------------
    58      0.804291  1 C  d  2              57      0.576300  1 C  d  1       
    56      0.501151  1 C  d  0              53     -0.398590  1 C  d  2       
    54      0.316142  1 C  d -2              52     -0.285602  1 C  d  1       
    51     -0.248360  1 C  d  0              49     -0.156673  1 C  d -2       
    38      0.154059  1 C  d  2       

 Vector  102  Occ=0.000000D+00  E= 1.151263D+02
              MO Center= -1.1D-16,  2.9D-17, -9.6D-17, r^2= 2.6D-02
   Bfn.  Coefficient  Atom+Function         Bfn.  Coefficient  Atom+Function  
  ----- ------------  ---------------      ----- ------------  ---------------
    55      0.792976  1 C  d -1              54      0.742577  1 C  d -2       
    50     -0.393081  1 C  d -1              49     -0.368098  1 C  d -2       
    58     -0.345129  1 C  d  2              57      0.183794  1 C  d  1       
    53      0.171082  1 C  d  2              35      0.151956  1 C  d -1       

 Vector  103  Occ=0.000000D+00  E= 1.151263D+02
              MO Center= -1.2D-16, -1.3D-16,  2.2D-16, r^2= 2.6D-02
   Bfn.  Coefficient  Atom+Function         Bfn.  Coefficient  Atom+Function  
  ----- ------------  ---------------      ----- ------------  ---------------
    56      0.999805  1 C  d  0              58     -0.528695  1 C  d  2       
    51     -0.495607  1 C  d  0              53      0.262076  1 C  d  2       
    54     -0.232859  1 C  d -2              36      0.191591  1 C  d  0       

 Vector  104  Occ=0.000000D+00  E= 1.151337D+02
              MO Center=  4.0D-16, -3.0D-17,  6.7D-16, r^2= 2.6D-02
   Bfn.  Coefficient  Atom+Function         Bfn.  Coefficient  Atom+Function  
  ----- ------------  ---------------      ----- ------------  ---------------
    57      0.974428  1 C  d  1              52     -0.483067  1 C  d  1       
    58     -0.451806  1 C  d  2              56     -0.283751  1 C  d  0       
    55     -0.225613  1 C  d -1              53      0.223980  1 C  d  2       
    54     -0.221068  1 C  d -2              37      0.186753  1 C  d  1       

 Vector  105  Occ=0.000000D+00  E= 1.215483D+02
              MO Center= -1.5D-16, -3.4D-18, -1.0D-16, r^2= 4.3D-02
   Bfn.  Coefficient  Atom+Function         Bfn.  Coefficient  Atom+Function  
  ----- ------------  ---------------      ----- ------------  ---------------
     2      5.715567  1 C  s                  6      4.392566  1 C  s          
     7     -3.722976  1 C  s                  1      2.655238  1 C  s          
     8      2.664213  1 C  s                  3      0.847036  1 C  s          
     4     -0.593580  1 C  s                  5      0.288850  1 C  s          

 Vector  106  Occ=0.000000D+00  E= 2.248202D+02
              MO Center=  6.3D-18,  1.9D-17,  1.2D-17, r^2= 1.8D-02
   Bfn.  Coefficient  Atom+Function         Bfn.  Coefficient  Atom+Function  
  ----- ------------  ---------------      ----- ------------  ---------------
    29     -1.351525  1 C  py                26      1.334978  1 C  py         
    23     -0.808106  1 C  py                30      0.721667  1 C  pz         
    27     -0.712832  1 C  pz                24      0.431500  1 C  pz         
    28     -0.423580  1 C  px                25      0.418395  1 C  px         
    11      0.414737  1 C  py                22     -0.253268  1 C  px         

 Vector  107  Occ=0.000000D+00  E= 2.248202D+02
              MO Center=  1.4D-17, -2.2D-17, -5.3D-17, r^2= 1.8D-02
   Bfn.  Coefficient  Atom+Function         Bfn.  Coefficient  Atom+Function  
  ----- ------------  ---------------      ----- ------------  ---------------
    28     -1.068354  1 C  px                25      1.055274  1 C  px         
    30      0.865964  1 C  pz                27     -0.855362  1 C  pz         
    29      0.797226  1 C  py                26     -0.787466  1 C  py         
    22     -0.638792  1 C  px                24      0.517779  1 C  pz         
    23      0.476679  1 C  py                10      0.327842  1 C  px         

 Vector  108  Occ=0.000000D+00  E= 2.248392D+02
              MO Center= -1.3D-16,  2.1D-17, -8.2D-17, r^2= 1.8D-02
   Bfn.  Coefficient  Atom+Function         Bfn.  Coefficient  Atom+Function  
  ----- ------------  ---------------      ----- ------------  ---------------
    30     -1.120792  1 C  pz                27      1.107180  1 C  pz         
    28     -1.098213  1 C  px                25      1.084875  1 C  px         
    24     -0.670291  1 C  pz                22     -0.656788  1 C  px         
    12      0.344028  1 C  pz                10      0.337097  1 C  px         
    29     -0.254274  1 C  py                26      0.251186  1 C  py         

 Vector  109  Occ=0.000000D+00  E= 5.084469D+02
              MO Center=  1.3D-17, -2.3D-17,  1.9D-17, r^2= 1.0D-02
   Bfn.  Coefficient  Atom+Function         Bfn.  Coefficient  Atom+Function  
  ----- ------------  ---------------      ----- ------------  ---------------
     1     68.411149  1 C  s                  2     43.112056  1 C  s          
     6    -13.880353  1 C  s                  7     -7.956734  1 C  s          
     8     -7.232810  1 C  s                  3     -0.260953  1 C  s          
     4      0.205741  1 C  s          


                                 Final MO vectors
                                 ----------------


 global array: scf_init: MOs[1:109,1:109],  handle: -1000 

            1           2           3           4           5           6  
       ----------- ----------- ----------- ----------- ----------- -----------
   1       0.99370     0.00059    -0.00000     0.00000    -0.00000    -0.07328
   2       0.00103     0.34491    -0.00000     0.00000    -0.00000    -0.20048
   3       0.01599     0.28105    -0.00000     0.00000    -0.00000    -0.20143
   4      -0.00368     0.59184     0.00000     0.00000     0.00000     0.25698
   5       0.00171     0.27154    -0.00000     0.00000    -0.00000    -1.38208
   6       0.00044     0.00026    -0.00000     0.00000    -0.00000    -0.02902
   7      -0.00002    -0.00008     0.00000    -0.00000     0.00000     0.00059
   8       0.00005     0.00007    -0.00000    -0.00000    -0.00000    -0.00160
   9      -0.00044     0.00291     0.00000    -0.00000     0.00000     1.82207
  10      -0.00000    -0.00000     0.11504    -0.01785     0.06752    -0.00000
  11       0.00000     0.00000     0.02664     0.09485     0.00981    -0.00000
  12       0.00000    -0.00000     0.11740    -0.00403    -0.06838    -0.00000
  13       0.00000    -0.00000     0.22484    -0.03389     0.12816    -0.00000
  14      -0.00000    -0.00000     0.05206     0.18004     0.01861    -0.00000
  15      -0.00000     0.00000     0.22946    -0.00764    -0.12980    -0.00000
  16      -0.00000     0.00000     0.30526    -0.05545     0.20972    -0.00000
  17       0.00000     0.00000     0.07068     0.29461     0.03046    -0.00000
  18      -0.00000    -0.00000     0.31154    -0.01250    -0.21241     0.00000
  19      -0.00000     0.00000     0.19962    -0.04394     0.16617    -0.00000
  20      -0.00000    -0.00000     0.04622     0.23343     0.02413    -0.00000
  21       0.00000     0.00000     0.20372    -0.00991    -0.16830    -0.00000
  22       0.00000    -0.00000     0.00013     0.00000    -0.00000    -0.00000
  23      -0.00000    -0.00000     0.00003    -0.00001    -0.00000    -0.00000
  24      -0.00000    -0.00000     0.00013     0.00000     0.00000    -0.00000
  25      -0.00000    -0.00000    -0.00023     0.00001    -0.00004    -0.00000
  26       0.00000    -0.00000    -0.00005    -0.00005    -0.00001     0.00000
  27       0.00000     0.00000    -0.00023     0.00000     0.00004    -0.00000
  28       0.00000     0.00000     0.00017    -0.00003     0.00010    -0.00000
  29      -0.00000    -0.00000     0.00004     0.00014     0.00001    -0.00000
  30      -0.00000    -0.00000     0.00018    -0.00001    -0.00010    -0.00000
  31      -0.00000    -0.00000     0.01643    -0.09760     0.36912     0.00000
  32       0.00000     0.00000     0.00380     0.51854     0.05361     0.00000
  33      -0.00000     0.00000     0.01676    -0.02201    -0.37385     0.00000
  34       0.00002     0.00037     0.00000    -0.00000    -0.00000     0.00011
  35       0.00002     0.00037    -0.00000     0.00000     0.00000     0.00011
  36       0.00002     0.00047    -0.00000     0.00000    -0.00000     0.00014
  37      -0.00007    -0.00162    -0.00000     0.00000     0.00000    -0.00049
  38       0.00003     0.00075    -0.00000     0.00000    -0.00000     0.00023
  39       0.00015    -0.00007    -0.00000    -0.00000     0.00000    -0.00001
  40       0.00016    -0.00007     0.00000     0.00000     0.00000    -0.00001
  41       0.00020    -0.00009     0.00000     0.00000     0.00000    -0.00001
  42      -0.00068     0.00031     0.00000    -0.00000    -0.00000     0.00005
  43       0.00031    -0.00014     0.00000     0.00000     0.00000    -0.00002
  44       0.00000     0.00161     0.00000    -0.00000    -0.00000     0.00203
  45       0.00000     0.00164    -0.00000     0.00000    -0.00000     0.00207
  46       0.00000     0.00206    -0.00000    -0.00000    -0.00000     0.00260
  47      -0.00001    -0.00709    -0.00000     0.00000     0.00000    -0.00894
  48       0.00000     0.00329    -0.00000     0.00000    -0.00000     0.00414
  49      -0.00010     0.00009     0.00000    -0.00000    -0.00000    -0.00003
  50      -0.00010     0.00009     0.00000     0.00000    -0.00000    -0.00003
  51      -0.00012     0.00012     0.00000     0.00000     0.00000    -0.00003
  52       0.00042    -0.00041    -0.00000    -0.00000    -0.00000     0.00012
  53      -0.00019     0.00019     0.00000     0.00000    -0.00000    -0.00005
  54      -0.00000    -0.00000    -0.00000     0.00000    -0.00000     0.00000
  55      -0.00000    -0.00000    -0.00000     0.00000    -0.00000     0.00000
  56      -0.00000    -0.00000    -0.00000    -0.00000    -0.00000     0.00000
  57       0.00001     0.00001     0.00000     0.00000     0.00000    -0.00001
  58      -0.00001    -0.00000    -0.00000     0.00000    -0.00000     0.00000
  59       0.00001     0.00085    -0.00000    -0.00000     0.00000    -0.01187
  60       0.00001     0.00087     0.00000     0.00000     0.00000    -0.01211
  61       0.00001     0.00109    -0.00000     0.00000     0.00000    -0.01523
  62      -0.00004    -0.00375     0.00000     0.00000    -0.00000     0.05231
  63       0.00002     0.00174     0.00000     0.00000     0.00000    -0.02426
  64       0.00000     0.00000    -0.00073    -0.00082    -0.00041    -0.00000
  65       0.00000     0.00000    -0.00125    -0.00151    -0.00017     0.00000
  66      -0.00000     0.00000    -0.00060    -0.00074     0.00034    -0.00000
  67      -0.00000    -0.00000     0.00075     0.00008     0.00135    -0.00000
  68       0.00000     0.00000     0.00260    -0.00025    -0.00127    -0.00000
  69       0.00000     0.00000    -0.00255     0.00070    -0.00056    -0.00000
  70       0.00000     0.00000     0.00090    -0.00061     0.00060    -0.00000
  71      -0.00000    -0.00000    -0.00166    -0.00153    -0.00076     0.00000
  72      -0.00000    -0.00000    -0.00282    -0.00280    -0.00031    -0.00000
  73      -0.00000    -0.00000    -0.00136    -0.00138     0.00063     0.00000
  74       0.00000     0.00000     0.00169     0.00015     0.00252     0.00000
  75      -0.00000    -0.00000     0.00586    -0.00047    -0.00236     0.00000
  76      -0.00000    -0.00000    -0.00575     0.00130    -0.00105     0.00000
  77      -0.00000    -0.00000     0.00204    -0.00114     0.00111    -0.00000
  78       0.00000    -0.00000    -0.00000    -0.00000    -0.00000     0.00000
  79      -0.00000     0.00000    -0.00001    -0.00001    -0.00000     0.00000
  80       0.00000     0.00000    -0.00000    -0.00000     0.00000     0.00000
  81       0.00000     0.00000     0.00000     0.00000     0.00001    -0.00000
[...]
  78       0.33434    -0.27940    -0.17793    -0.00000    -0.00000    -0.00000
  79       0.67839    -0.24343    -0.30193    -0.00000     0.00000     0.00000
  80       0.38109     0.07552    -0.14560     0.00000    -0.00000    -0.00000
  81       0.11280     0.63555     0.18144    -0.00000    -0.00000    -0.00000
  82      -0.02385    -0.61406     0.62885     0.00000    -0.00000    -0.00000
  83      -0.38556    -0.18301    -0.61707    -0.00000    -0.00000     0.00000
  84       0.34915     0.20873     0.21888     0.00000    -0.00000    -0.00000
  85      -0.00339     0.00284     0.00181    -0.00000     0.00000    -0.00000
  86      -0.00689     0.00247     0.00307    -0.00000     0.00000     0.00000
  87      -0.00387    -0.00077     0.00148    -0.00000     0.00000     0.00000
  88      -0.00115    -0.00645    -0.00184     0.00000    -0.00000    -0.00000
  89       0.00024     0.00623    -0.00638    -0.00000     0.00000     0.00000
  90       0.00391     0.00186     0.00627     0.00000     0.00000     0.00000
  91      -0.00354    -0.00212    -0.00222     0.00000    -0.00000     0.00000
  92      -0.00000     0.00000    -0.00000     0.00000     0.00000     0.00000
  93      -0.00000     0.00000     0.00000     0.00000     0.00000     0.00001
  94       0.00000    -0.00000    -0.00000    -0.00001    -0.00000     0.00001
  95      -0.00000    -0.00000     0.00000    -0.00001     0.00000     0.00000
  96       0.00000     0.00000    -0.00000     0.00000     0.00001    -0.00000
  97       0.00000     0.00000    -0.00000    -0.00000    -0.00000     0.00000
  98      -0.00000     0.00000     0.00000     0.00000    -0.00000    -0.00000
  99      -0.00000     0.00000     0.00000     0.00000    -0.00000     0.00001
 100       0.00000     0.00000     0.00000    -0.00000     0.00000    -0.00000
 101       0.00000    -0.00000     0.00000    -0.00000    -0.00000    -0.00000
 102      -0.00000    -0.00000     0.00000    -0.00000    -0.00000    -0.00001
 103       0.00000     0.00000    -0.00000     0.00000     0.00000    -0.00001
 104       0.00000     0.00000     0.00000     0.00001    -0.00000    -0.00000
 105       0.00000    -0.00000     0.00000    -0.00000    -0.00001     0.00000
 106       0.00000    -0.00000     0.00000     0.00000     0.00000    -0.00000
 107      -0.00000    -0.00000    -0.00000    -0.00000     0.00000     0.00000
 108      -0.00000    -0.00000    -0.00000    -0.00000     0.00000    -0.00001
 109       0.00000     0.00000    -0.00000     0.00000    -0.00000     0.00000

          103         104         105         106         107         108  
       ----------- ----------- ----------- ----------- ----------- -----------
   1      -0.00000    -0.00768     2.65524     0.00000    -0.00000    -0.00000
   2       0.00000    -0.01662     5.71557     0.00000    -0.00000     0.00000
   3       0.00000    -0.00275     0.84704     0.00000    -0.00000     0.00000
   4      -0.00000     0.00199    -0.59358     0.00000    -0.00000    -0.00000
   5       0.00000    -0.00098     0.28885    -0.00000     0.00000     0.00000
   6       0.00000    -0.01204     4.39257     0.00000    -0.00000     0.00000
   7      -0.00000     0.00954    -3.72298    -0.00000     0.00000    -0.00000
   8       0.00000    -0.00709     2.66421     0.00000    -0.00000     0.00000
   9      -0.00000     0.00029    -0.08454    -0.00000     0.00000    -0.00000
  10       0.00000    -0.00000     0.00000     0.12998     0.32784     0.33710
  11      -0.00000     0.00000    -0.00000     0.41474    -0.24464     0.07805
  12       0.00000    -0.00000     0.00000    -0.22146    -0.26574     0.34403
  13       0.00000     0.00000     0.00000    -0.06545    -0.16507    -0.16972
  14       0.00000    -0.00000     0.00000    -0.20882     0.12318    -0.03930
  15      -0.00000    -0.00000     0.00000     0.11150     0.13380    -0.17321
  16      -0.00000    -0.00000     0.00000     0.03517     0.08870     0.09119
  17      -0.00000     0.00000    -0.00000     0.11221    -0.06619     0.02111
  18       0.00000     0.00000    -0.00000    -0.05992    -0.07190     0.09307
  19       0.00000     0.00000    -0.00000    -0.01569    -0.03957    -0.04068
  20       0.00000     0.00000    -0.00000    -0.05006     0.02953    -0.00942
  21      -0.00000    -0.00000     0.00000     0.02673     0.03207    -0.04151
  22      -0.00000     0.00000    -0.00000    -0.25327    -0.63879    -0.65679
  23       0.00000    -0.00000     0.00000    -0.80811     0.47668    -0.15207
  24      -0.00000     0.00000    -0.00000     0.43150     0.51778    -0.67029
  25       0.00000    -0.00000     0.00000     0.41839     1.05527     1.08488
  26      -0.00000    -0.00000     0.00000     1.33498    -0.78747     0.25119
  27       0.00000    -0.00000     0.00000    -0.71283    -0.85536     1.10718
  28       0.00000    -0.00000     0.00000    -0.42358    -1.06835    -1.09821
  29       0.00000     0.00000     0.00000    -1.35152     0.79723    -0.25427
  30       0.00000    -0.00000     0.00000     0.72167     0.86596    -1.12079
  31      -0.00000    -0.00000     0.00000     0.00479     0.01207     0.01241
  32      -0.00000    -0.00000     0.00000     0.01528    -0.00901     0.00287
  33       0.00000     0.00000    -0.00000    -0.00816    -0.00979     0.01267
  34      -0.04462    -0.04237    -0.00014    -0.00000     0.00000     0.00000
  35       0.00459    -0.04324    -0.00015     0.00000     0.00000     0.00000
  36       0.19159    -0.05438    -0.00018    -0.00000     0.00000     0.00000
  37      -0.00024     0.18675     0.00063     0.00000     0.00000     0.00000
  38      -0.10131    -0.08659    -0.00029    -0.00000     0.00000    -0.00000
  39       0.02700     0.02563     0.00010     0.00000    -0.00000    -0.00000
  40      -0.00278     0.02616     0.00010     0.00000    -0.00000    -0.00000
  41      -0.11592     0.03290     0.00012    -0.00000    -0.00000    -0.00000
  42       0.00015    -0.11299    -0.00043    -0.00000    -0.00000    -0.00000
  43       0.06130     0.05239     0.00020     0.00000    -0.00000     0.00000
  44      -0.01258    -0.01194    -0.00005    -0.00000    -0.00000     0.00000
  45       0.00130    -0.01219    -0.00005    -0.00000     0.00000     0.00000
  46       0.05401    -0.01533    -0.00006     0.00000     0.00000    -0.00000
  47      -0.00007     0.05265     0.00021     0.00000     0.00000     0.00000
  48      -0.02856    -0.02441    -0.00010    -0.00000    -0.00000    -0.00000
  49       0.11543     0.10959     0.00032     0.00000    -0.00000    -0.00000
  50      -0.01188     0.11185     0.00032    -0.00000    -0.00000    -0.00000
  51      -0.49561     0.14067     0.00041     0.00000    -0.00000    -0.00000
  52       0.00063    -0.48307    -0.00140    -0.00000     0.00000    -0.00000
  53       0.26208     0.22398     0.00065     0.00000    -0.00000    -0.00000
  54      -0.23286    -0.22107    -0.00058     0.00000     0.00000     0.00000
  55       0.02397    -0.22561    -0.00059     0.00000     0.00000     0.00000
  56       0.99980    -0.28375    -0.00075    -0.00000     0.00000     0.00000
  57      -0.00127     0.97443     0.00257     0.00000    -0.00000    -0.00000
  58      -0.52870    -0.45181    -0.00119    -0.00000    -0.00000    -0.00000
  59       0.00415     0.00394     0.00002     0.00000     0.00000    -0.00000
  60      -0.00043     0.00402     0.00002     0.00000    -0.00000     0.00000
  61      -0.01782     0.00506     0.00002    -0.00000    -0.00000     0.00000
  62       0.00002    -0.01736    -0.00007    -0.00000     0.00000    -0.00000
  63       0.00942     0.00805     0.00003     0.00000     0.00000     0.00000
  64      -0.00000     0.00000     0.00000     0.00000    -0.00000     0.00000
  65       0.00000     0.00000    -0.00000     0.00000    -0.00000     0.00000
  66      -0.00000    -0.00000    -0.00000     0.00000    -0.00000     0.00000
  67      -0.00000     0.00000    -0.00000    -0.00000    -0.00000    -0.00000
  68      -0.00000    -0.00000     0.00000     0.00000     0.00000    -0.00000
  69      -0.00000     0.00000     0.00000    -0.00000     0.00000     0.00000
  70      -0.00000    -0.00000     0.00000     0.00000    -0.00000    -0.00000
  71       0.00000    -0.00000    -0.00000    -0.00000     0.00000    -0.00000
  72      -0.00000     0.00000    -0.00000    -0.00000     0.00000    -0.00000
  73      -0.00000     0.00000     0.00000    -0.00000     0.00000    -0.00000
  74      -0.00000    -0.00000     0.00000     0.00000     0.00000     0.00000
  75       0.00000     0.00000    -0.00000    -0.00000    -0.00000     0.00001
  76      -0.00000    -0.00000     0.00000     0.00000    -0.00000    -0.00001
  77       0.00000    -0.00000    -0.00000    -0.00000     0.00000     0.00000
  78       0.00000    -0.00000     0.00000     0.00002    -0.00000     0.00001
  79       0.00000     0.00000    -0.00000     0.00002    -0.00001     0.00001
  80      -0.00000     0.00000     0.00000     0.00001    -0.00001     0.00001
  81       0.00000    -0.00000     0.00000    -0.00002    -0.00002    -0.00001
  82       0.00000     0.00000    -0.00000     0.00002     0.00002    -0.00003
  83       0.00000    -0.00000     0.00000    -0.00000     0.00002     0.00003
  84      -0.00000     0.00000    -0.00000     0.00000    -0.00002    -0.00001
  85      -0.00000     0.00000     0.00000     0.00000    -0.00000     0.00000
  86      -0.00000     0.00000    -0.00000     0.00000    -0.00000     0.00000
  87       0.00000     0.00000     0.00000     0.00000    -0.00000     0.00000
  88       0.00000     0.00000    -0.00000    -0.00000    -0.00000    -0.00000
  89      -0.00000    -0.00000    -0.00000     0.00000     0.00000    -0.00000
  90       0.00000     0.00000    -0.00000    -0.00000     0.00000     0.00000
  91      -0.00000     0.00000    -0.00000     0.00000    -0.00000    -0.00000
  92      -0.00000    -0.00000    -0.00000     0.00000     0.00000    -0.00000
  93      -0.00000    -0.00001    -0.00000     0.00000    -0.00000    -0.00000
  94       0.00000    -0.00001    -0.00000    -0.00000    -0.00000     0.00000
  95       0.00000    -0.00000    -0.00000    -0.00000    -0.00000     0.00000
  96       0.00000     0.00001     0.00000     0.00000    -0.00000     0.00000
  97      -0.00001     0.00000     0.00000     0.00000    -0.00000    -0.00000
  98       0.00000    -0.00001    -0.00000     0.00000    -0.00000     0.00000
  99       0.00000     0.00001     0.00000     0.00000     0.00000     0.00000
 100      -0.00000    -0.00000    -0.00000     0.00000     0.00000    -0.00000
 101       0.00000     0.00000     0.00000    -0.00000    -0.00000     0.00000
 102       0.00000     0.00001     0.00000    -0.00000     0.00000    -0.00000
 103      -0.00000     0.00000     0.00000    -0.00000    -0.00000    -0.00000
 104      -0.00000     0.00000     0.00000    -0.00000    -0.00000    -0.00000
 105      -0.00000    -0.00001    -0.00000    -0.00000     0.00000     0.00000
 106       0.00001    -0.00000    -0.00000    -0.00000     0.00000    -0.00000
 107      -0.00000     0.00001     0.00000     0.00000     0.00000    -0.00000
 108      -0.00000    -0.00001    -0.00000    -0.00000    -0.00000    -0.00000
 109       0.00000     0.00000     0.00000    -0.00000    -0.00000     0.00000

          109  
       -----------
   1      68.41115
   2      43.11206
   3      -0.26095
   4       0.20574
   5      -0.10418
   6     -13.88035
   7      -7.95673
   8      -7.23281
   9       0.03094
  10      -0.00000
  11      -0.00000
  12      -0.00000
  13       0.00000
  14       0.00000
  15       0.00000
  16       0.00000
  17      -0.00000
  18      -0.00000
  19      -0.00000
  20       0.00000
  21       0.00000
  22       0.00000
  23       0.00000
  24       0.00000
  25      -0.00000
  26      -0.00000
  27       0.00000
  28      -0.00000
  29       0.00000
  30      -0.00000
  31       0.00000
  32      -0.00000
  33       0.00000
  34       0.00000
  35       0.00000
  36       0.00000
  37      -0.00001
  38       0.00001
  39      -0.00000
  40      -0.00000
  41      -0.00000
  42       0.00001
  43      -0.00001
  44       0.00000
  45       0.00000
  46       0.00000
  47      -0.00001
  48       0.00000
  49      -0.00000
  50      -0.00000
  51      -0.00000
  52       0.00002
  53      -0.00001
  54       0.00000
  55       0.00000
  56       0.00000
  57      -0.00001
  58       0.00001
  59      -0.00000
  60      -0.00000
  61      -0.00000
  62       0.00000
  63      -0.00000
  64      -0.00000
  65      -0.00000
  66      -0.00000
  67       0.00000
  68      -0.00000
  69       0.00000
  70      -0.00000
  71       0.00000
  72       0.00000
  73       0.00000
  74      -0.00000
  75      -0.00000
  76       0.00000
  77       0.00000
  78      -0.00000
  79      -0.00000
  80      -0.00000
  81       0.00000
  82      -0.00000
  83       0.00000
  84      -0.00000
  85      -0.00000
  86       0.00000
  87      -0.00000
  88       0.00000
  89       0.00000
  90      -0.00000
  91      -0.00000
  92       0.00000
  93       0.00000
  94       0.00000
  95       0.00000
  96      -0.00000
  97      -0.00000
  98       0.00000
  99      -0.00000
 100       0.00000
 101      -0.00000
 102      -0.00000
 103      -0.00000
 104      -0.00000
 105       0.00000
 106       0.00000
 107      -0.00000
 108       0.00000
 109      -0.00000

 center of mass
 --------------
 x =   0.00000000 y =   0.00000000 z =   0.00000000

 moments of inertia (a.u.)
 ------------------
           0.000000000000           0.000000000000           0.000000000000
           0.000000000000           0.000000000000           0.000000000000
           0.000000000000           0.000000000000           0.000000000000

  Mulliken analysis of the total density
  --------------------------------------

    Atom       Charge   Shell Charges
 -----------   ------   -------------------------------------------------------
    1 C    6     6.00   1.99 -0.03  0.44  1.13  0.48  0.00 -0.00  0.00  0.00  0.18  0.55  0.83  0.43  0.00 -0.00  0.00  0.02  0.00 -0.00  0.00  0.00 -0.00  0.00  0.00  0.00
  0.00  0.00  0.00  0.00

       Multipole analysis of the density wrt the origin
       ------------------------------------------------

     L   x y z        total         open         nuclear
     -   - - -        -----         ----         -------
     0   0 0 0     -0.000000      0.000000      6.000000

     1   1 0 0     -0.000000      0.000000      0.000000
     1   0 1 0     -0.000000      0.000000      0.000000
     1   0 0 1      0.000000      0.000000      0.000000

     2   2 0 0     -5.356399      0.000000      0.000000
     2   1 1 0     -0.367062      0.000000      0.000000
     2   1 0 1     -1.617944      0.000000      0.000000
     2   0 2 0     -3.856037      0.000000      0.000000
     2   0 1 1     -0.374609      0.000000      0.000000
     2   0 0 2     -5.422258      0.000000      0.000000


 Task  times  cpu:        6.0s     wall:        6.0s
 Summary of allocated global arrays
-----------------------------------
  No active global arrays



                         GA Statistics for process    0
                         ------------------------------

       create   destroy   get      put      acc     scatter   gather  read&inc
calls:  181      181     6240     4017     3241        0        0      262     
number of processes/call -1.13e+15 6.15e+13 1.80e+15 0.00e+00 0.00e+00
bytes total:             2.29e+07 1.46e+07 2.74e+06 0.00e+00 0.00e+00 2.10e+03
bytes remote:            0.00e+00 0.00e+00 0.00e+00 0.00e+00 0.00e+00 0.00e+00
Max memory consumed for GA by this process: 1235624 bytes
MA_summarize_allocated_blocks: starting scan ...
MA_summarize_allocated_blocks: scan completed: 0 heap blocks, 0 stack blocks
MA usage statistics:

	allocation statistics:
					      heap	     stack
					      ----	     -----
	current number of blocks	         0	         0
	maximum number of blocks	        16	        14
	current total bytes		         0	         0
	maximum total bytes		     80120	  42712952
	maximum total K-bytes		        81	     42713
	maximum total M-bytes		         1	        43


                                NWChem Input Module
                                -------------------





                                     CITATION
                                     --------
                Please cite the following reference when publishing
                           results obtained with NWChem:

          E. Apr, E. J. Bylaska, W. A. de Jong, N. Govind, K. Kowalski,
       T. P. Straatsma, M. Valiev, H. J. J. van Dam, Y. Alexeev, J. Anchell,
       V. Anisimov, F. W. Aquino, R. Atta-Fynn, J. Autschbach, N. P. Bauman,
     J. C. Becca, D. E. Bernholdt, K. Bhaskaran-Nair, S. Bogatko, P. Borowski,
        J. Boschen, J. Brabec, A. Bruner, E. Caut, Y. Chen, G. N. Chuev,
      C. J. Cramer, J. Daily, M. J. O. Deegan, T. H. Dunning Jr., M. Dupuis,
   K. G. Dyall, G. I. Fann, S. A. Fischer, A. Fonari, H. Frchtl, L. Gagliardi,
      J. Garza, N. Gawande, S. Ghosh, K. Glaesemann, A. W. Gtz, J. Hammond,
       V. Helms, E. D. Hermes, K. Hirao, S. Hirata, M. Jacquelin, L. Jensen,
   B. G. Johnson, H. Jnsson, R. A. Kendall, M. Klemm, R. Kobayashi, V. Konkov,
      S. Krishnamoorthy, M. Krishnan, Z. Lin, R. D. Lins, R. J. Littlefield,
      A. J. Logsdail, K. Lopata, W. Ma, A. V. Marenich, J. Martin del Campo,
   D. Mejia-Rodriguez, J. E. Moore, J. M. Mullin, T. Nakajima, D. R. Nascimento,
    J. A. Nichols, P. J. Nichols, J. Nieplocha, A. Otero-de-la-Roza, B. Palmer,
    A. Panyala, T. Pirojsirikul, B. Peng, R. Peverati, J. Pittner, L. Pollack,
   R. M. Richard, P. Sadayappan, G. C. Schatz, W. A. Shelton, D. W. Silverstein,
   D. M. A. Smith, T. A. Soares, D. Song, M. Swart, H. L. Taylor, G. S. Thomas,
            V. Tipparaju, D. G. Truhlar, K. Tsemekhman, T. Van Voorhis,
     . Vzquez-Mayagoitia, P. Verma, O. Villa, A. Vishnu, K. D. Vogiatzis,
        D. Wang, J. H. Weare, M. J. Williamson, T. L. Windus, K. Woliski,
        A. T. Wong, Q. Wu, C. Yang, Q. Yu, M. Zacharias, Z. Zhang, Y. Zhao,
                                and R. J. Harrison
                        "NWChem: Past, present, and future
                         J. Chem. Phys. 152, 184102 (2020)
                               doi:10.1063/5.0004997

                                      AUTHORS
                                      -------
     E. Apra, E. J. Bylaska, N. Govind, K. Kowalski, M. Valiev, W. A. de Jong,
      T. P. Straatsma, H. J. J. van Dam, D. Wang, T. L. Windus, N. P. Bauman,
       A. Panyala, J. Hammond, J. Autschbach, K. Bhaskaran-Nair, J. Brabec,
    K. Lopata, S. A. Fischer, S. Krishnamoorthy, M. Jacquelin, W. Ma, M. Klemm,
       O. Villa, Y. Chen, V. Anisimov, F. Aquino, S. Hirata, M. T. Hackler,
           Eric Hermes, L. Jensen, J. E. Moore, J. C. Becca, V. Konjkov,
            D. Mejia-Rodriguez, T. Risthaus, M. Malagoli, A. Marenich,
   A. Otero-de-la-Roza, J. Mullin, P. Nichols, R. Peverati, J. Pittner, Y. Zhao,
        P.-D. Fan, A. Fonari, M. J. Williamson, R. J. Harrison, J. R. Rehr,
      M. Dupuis, D. Silverstein, D. M. A. Smith, J. Nieplocha, V. Tipparaju,
      M. Krishnan, B. E. Van Kuiken, A. Vazquez-Mayagoitia, M. Swart, Q. Wu,
   T. Van Voorhis, A. A. Auer, M. Nooijen, L. D. Crosby, E. Brown, G. Cisneros,
     G. I. Fann, H. Fruchtl, J. Garza, K. Hirao, R. A. Kendall, J. A. Nichols,
       K. Tsemekhman, K. Wolinski, J. Anchell, D. E. Bernholdt, P. Borowski,
       T. Clark, D. Clerc, H. Dachsel, M. J. O. Deegan, K. Dyall, D. Elwood,
      E. Glendening, M. Gutowski, A. C. Hess, J. Jaffe, B. G. Johnson, J. Ju,
        R. Kobayashi, R. Kutteh, Z. Lin, R. Littlefield, X. Long, B. Meng,
      T. Nakajima, S. Niu, L. Pollack, M. Rosing, K. Glaesemann, G. Sandrone,
      M. Stave, H. Taylor, G. Thomas, J. H. van Lenthe, A. T. Wong, Z. Zhang.

 Total times  cpu:        6.0s     wall:        6.0s
