 argument  1 = dvb_gopt_hf.in
                                         
                                         


             Northwest Computational Chemistry Package (NWChem) 7.0.2
             --------------------------------------------------------


                    Environmental Molecular Sciences Laboratory
                       Pacific Northwest National Laboratory
                                Richland, WA 99352

                              Copyright (c) 1994-2020
                       Pacific Northwest National Laboratory
                            Battelle Memorial Institute

             NWChem is an open-source computational chemistry package
                        distributed under the terms of the
                      Educational Community License (ECL) 2.0
             A copy of the license is included with this distribution
                              in the LICENSE.TXT file

                                  ACKNOWLEDGMENT
                                  --------------

            This software and its documentation were developed at the
            EMSL at Pacific Northwest National Laboratory, a multiprogram
            national laboratory, operated for the U.S. Department of Energy
            by Battelle under Contract Number DE-AC05-76RL01830. Support
            for this work was provided by the Department of Energy Office
            of Biological and Environmental Research, Office of Basic
            Energy Sciences, and the Office of Advanced Scientific Computing.


           Job information
           ---------------

    hostname        = osmium
    program         = nwchem
    date            = Sat Jun  4 13:32:30 2022

    compiled        = Fri_Jul_02_16:33:00_2021
    source          = /tmp/eric/spack-stage/spack-stage-nwchem-7.0.2-ooqysy46k2ki4umav4357wohumino4rf/spack-src
    nwchem branch   = 7.0.2
    nwchem revision = b9985dfa
    ga revision     = 5.7.2
    use scalapack   = T
    input           = dvb_gopt_hf.in
    prefix          = dvb.
    data base       = ./dvb.db
    status          = startup
    nproc           =        1
    time left       =     -1s



           Memory information
           ------------------

    heap     =   13107198 doubles =    100.0 Mbytes
    stack    =   13107195 doubles =    100.0 Mbytes
    global   =   26214400 doubles =    200.0 Mbytes (distinct from heap & stack)
    total    =   52428793 doubles =    400.0 Mbytes
    verify   = yes
    hardfail = no 


           Directory information
           ---------------------

  0 permanent = .
  0 scratch   = .




                                NWChem Input Module
                                -------------------


                        Divinylbenzene in STO-3G basis set
                        ----------------------------------

 Scaling coordinates for geometry "geometry" by  1.889725989
 (inverse scale =  0.529177249)

 C2H symmetry detected

          ------
          auto-z
          ------
  no constraints, skipping    0.0000000000000000     
  no constraints, skipping    0.0000000000000000     


                             Geometry "geometry" -> ""
                             -------------------------

 Output coordinates in angstroms (scale by  1.889725989 to convert to a.u.)

  No.       Tag          Charge          X              Y              Z
 ---- ---------------- ---------- -------------- -------------- --------------
    1 C                    6.0000     0.23680554     1.41416660     0.00000000
    2 C                    6.0000    -0.23680554    -1.41416660     0.00000000
    3 C                    6.0000     1.31675086     0.48901061     0.00000000
    4 C                    6.0000    -1.31675086    -0.48901061     0.00000000
    5 C                    6.0000     1.08679847    -0.89447642     0.00000000
    6 C                    6.0000    -1.08679847     0.89447642     0.00000000
    7 H                    1.0000     2.34780221     0.86863451     0.00000000
    8 H                    1.0000    -2.34780221    -0.86863451     0.00000000
    9 H                    1.0000     1.93764188    -1.58693865     0.00000000
   10 H                    1.0000    -1.93764188     1.58693865     0.00000000
   11 C                    6.0000    -0.53450789    -2.88212824     0.00000000
   12 C                    6.0000     0.53450789     2.88212824     0.00000000
   13 H                    1.0000    -1.60655769    -3.13289308     0.00000000
   14 H                    1.0000     1.60655769     3.13289308     0.00000000
   15 C                    6.0000     0.36419263    -3.88177971     0.00000000
   16 C                    6.0000    -0.36419263     3.88177971     0.00000000
   17 H                    1.0000     1.44522900    -3.70144241     0.00000000
   18 H                    1.0000    -1.44522900     3.70144241     0.00000000
   19 H                    1.0000     0.04815351    -4.93192286     0.00000000
   20 H                    1.0000    -0.04815351     4.93192286     0.00000000

      Atomic Mass 
      ----------- 

      C                 12.000000
      H                  1.007825


 Effective nuclear repulsion energy (a.u.)     445.9370121674

            Nuclear Dipole moment (a.u.) 
            ----------------------------
        X                 Y               Z
 ---------------- ---------------- ----------------
     0.0000000000     0.0000000000     0.0000000000

      Symmetry information
      --------------------

 Group name             C2h       
 Group number             21
 Group order               4
 No. of unique centers    10

      Symmetry unique atoms

     1    3    5    7    9   11   13   15   17   19



                                Z-matrix (autoz)
                                -------- 

 Units are Angstrom for bonds and degrees for angles

      Type          Name      I     J     K     L     M      Value
      ----------- --------  ----- ----- ----- ----- ----- ----------
    1 Stretch                  1     3                       1.42204
    2 Stretch                  1     6                       1.42197
    3 Stretch                  1    12                       1.49784
    4 Stretch                  2     4                       1.42204
    5 Stretch                  2     5                       1.42197
    6 Stretch                  2    11                       1.49784
    7 Stretch                  3     5                       1.40247
    8 Stretch                  3     7                       1.09872
    9 Stretch                  4     6                       1.40247
   10 Stretch                  4     8                       1.09872
   11 Stretch                  5     9                       1.09701
   12 Stretch                  6    10                       1.09701
   13 Stretch                 11    13                       1.10099
   14 Stretch                 11    15                       1.34423
   15 Stretch                 12    14                       1.10099
   16 Stretch                 12    16                       1.34423
   17 Stretch                 15    17                       1.09597
   18 Stretch                 15    19                       1.09667
   19 Stretch                 16    18                       1.09597
   20 Stretch                 16    20                       1.09667
   21 Bend                     1     3     5               121.14867
   22 Bend                     1     3     7               119.20109
   23 Bend                     1     6     4               120.87358
   24 Bend                     1     6    10               119.42285
   25 Bend                     1    12    14               114.62953
   26 Bend                     1    12    16               126.57992
   27 Bend                     2     4     6               121.14867
   28 Bend                     2     4     8               119.20109
   29 Bend                     2     5     3               120.87358
   30 Bend                     2     5     9               119.42285
   31 Bend                     2    11    13               114.62953
   32 Bend                     2    11    15               126.57992
   33 Bend                     3     1     6               117.97776
   34 Bend                     3     1    12               119.12155
   35 Bend                     3     5     9               119.70357
   36 Bend                     4     2     5               117.97776
   37 Bend                     4     2    11               119.12155
   38 Bend                     4     6    10               119.70357
   39 Bend                     5     2    11               122.90069
   40 Bend                     5     3     7               119.65024
   41 Bend                     6     1    12               122.90069
   42 Bend                     6     4     8               119.65024
   43 Bend                    11    15    17               122.48517
   44 Bend                    11    15    19               121.29492
   45 Bend                    12    16    18               122.48517
   46 Bend                    12    16    20               121.29492
   47 Bend                    13    11    15               118.79054
   48 Bend                    14    12    16               118.79054
   49 Bend                    17    15    19               116.21990
   50 Bend                    18    16    20               116.21990
   51 Torsion                  1     3     5     2           0.00000
   52 Torsion                  1     3     5     9         180.00000
   53 Torsion                  1     6     4     2           0.00000
   54 Torsion                  1     6     4     8         180.00000
   55 Torsion                  1    12    16    18           0.00000
   56 Torsion                  1    12    16    20         180.00000
   57 Torsion                  2     4     6    10         180.00000
   58 Torsion                  2     5     3     7         180.00000
   59 Torsion                  2    11    15    17           0.00000
   60 Torsion                  2    11    15    19         180.00000
   61 Torsion                  3     1     6     4           0.00000
   62 Torsion                  3     1     6    10         180.00000
   63 Torsion                  3     1    12    14           0.00000
   64 Torsion                  3     1    12    16         180.00000
   65 Torsion                  3     5     2     4           0.00000
   66 Torsion                  3     5     2    11         180.00000
   67 Torsion                  4     2     5     9         180.00000
   68 Torsion                  4     2    11    13           0.00000
   69 Torsion                  4     2    11    15         180.00000
   70 Torsion                  4     6     1    12         180.00000
   71 Torsion                  5     2     4     6          -0.00000
   72 Torsion                  5     2     4     8         180.00000
   73 Torsion                  5     2    11    13         180.00000
   74 Torsion                  5     2    11    15           0.00000
   75 Torsion                  5     3     1     6           0.00000
   76 Torsion                  5     3     1    12         180.00000
   77 Torsion                  6     1     3     7         180.00000
   78 Torsion                  6     1    12    14         180.00000
   79 Torsion                  6     1    12    16           0.00000
   80 Torsion                  6     4     2    11         180.00000
   81 Torsion                  7     3     1    12          -0.00000
   82 Torsion                  7     3     5     9           0.00000
   83 Torsion                  8     4     2    11          -0.00000
   84 Torsion                  8     4     6    10           0.00000
   85 Torsion                  9     5     2    11           0.00000
   86 Torsion                 10     6     1    12           0.00000
   87 Torsion                 13    11    15    17         180.00000
   88 Torsion                 13    11    15    19          -0.00000
   89 Torsion                 14    12    16    18         180.00000
   90 Torsion                 14    12    16    20          -0.00000


            XYZ format geometry
            -------------------
    20
 geometry
 C                     0.23680554     1.41416660     0.00000000
 C                    -0.23680554    -1.41416660     0.00000000
 C                     1.31675086     0.48901061     0.00000000
 C                    -1.31675086    -0.48901061     0.00000000
 C                     1.08679847    -0.89447642     0.00000000
 C                    -1.08679847     0.89447642     0.00000000
 H                     2.34780221     0.86863451     0.00000000
 H                    -2.34780221    -0.86863451     0.00000000
 H                     1.93764188    -1.58693865     0.00000000
 H                    -1.93764188     1.58693865     0.00000000
 C                    -0.53450789    -2.88212824     0.00000000
 C                     0.53450789     2.88212824     0.00000000
 H                    -1.60655769    -3.13289308     0.00000000
 H                     1.60655769     3.13289308     0.00000000
 C                     0.36419263    -3.88177971     0.00000000
 C                    -0.36419263     3.88177971     0.00000000
 H                     1.44522900    -3.70144241     0.00000000
 H                    -1.44522900     3.70144241     0.00000000
 H                     0.04815351    -4.93192286     0.00000000
 H                    -0.04815351     4.93192286     0.00000000

 ==============================================================================
                                internuclear distances
 ------------------------------------------------------------------------------
       center one      |      center two      | atomic units |  angstroms
 ------------------------------------------------------------------------------
    3 C                |   1 C                |     2.68726  |     1.42204
    4 C                |   2 C                |     2.68726  |     1.42204
    5 C                |   2 C                |     2.68714  |     1.42197
    5 C                |   3 C                |     2.65028  |     1.40247
    6 C                |   1 C                |     2.68714  |     1.42197
    6 C                |   4 C                |     2.65028  |     1.40247
    7 H                |   3 C                |     2.07628  |     1.09872
    8 H                |   4 C                |     2.07628  |     1.09872
    9 H                |   5 C                |     2.07305  |     1.09701
   10 H                |   6 C                |     2.07305  |     1.09701
   11 C                |   2 C                |     2.83052  |     1.49784
   12 C                |   1 C                |     2.83052  |     1.49784
   13 H                |  11 C                |     2.08056  |     1.10099
   14 H                |  12 C                |     2.08056  |     1.10099
   15 C                |  11 C                |     2.54023  |     1.34423
   16 C                |  12 C                |     2.54023  |     1.34423
   17 H                |  15 C                |     2.07109  |     1.09597
   18 H                |  16 C                |     2.07109  |     1.09597
   19 H                |  15 C                |     2.07240  |     1.09667
   20 H                |  16 C                |     2.07240  |     1.09667
 ------------------------------------------------------------------------------
                         number of included internuclear distances:         20
 ==============================================================================



 ==============================================================================
                                 internuclear angles
 ------------------------------------------------------------------------------
        center 1       |       center 2       |       center 3       |  degrees
 ------------------------------------------------------------------------------
    3 C                |   1 C                |   6 C                |   117.98
    3 C                |   1 C                |  12 C                |   119.12
    6 C                |   1 C                |  12 C                |   122.90
    4 C                |   2 C                |   5 C                |   117.98
    4 C                |   2 C                |  11 C                |   119.12
    5 C                |   2 C                |  11 C                |   122.90
    1 C                |   3 C                |   5 C                |   121.15
    1 C                |   3 C                |   7 H                |   119.20
    5 C                |   3 C                |   7 H                |   119.65
    2 C                |   4 C                |   6 C                |   121.15
    2 C                |   4 C                |   8 H                |   119.20
    6 C                |   4 C                |   8 H                |   119.65
    2 C                |   5 C                |   3 C                |   120.87
    2 C                |   5 C                |   9 H                |   119.42
    3 C                |   5 C                |   9 H                |   119.70
    1 C                |   6 C                |   4 C                |   120.87
    1 C                |   6 C                |  10 H                |   119.42
    4 C                |   6 C                |  10 H                |   119.70
    2 C                |  11 C                |  13 H                |   114.63
    2 C                |  11 C                |  15 C                |   126.58
   13 H                |  11 C                |  15 C                |   118.79
    1 C                |  12 C                |  14 H                |   114.63
    1 C                |  12 C                |  16 C                |   126.58
   14 H                |  12 C                |  16 C                |   118.79
   11 C                |  15 C                |  17 H                |   122.49
   11 C                |  15 C                |  19 H                |   121.29
   17 H                |  15 C                |  19 H                |   116.22
   12 C                |  16 C                |  18 H                |   122.49
   12 C                |  16 C                |  20 H                |   121.29
   18 H                |  16 C                |  20 H                |   116.22
 ------------------------------------------------------------------------------
                            number of included internuclear angles:         30
 ==============================================================================



  library name resolved from: environment
  library file name is: </home/eric/data/spack/opt/spack/linux-archrolling-zen/gcc-11.1.0/nwchem-7.0.2-ooqysy46k2ki4umav4357wohumino4rf/share/nwchem/libraries/>
  


 Summary of "ao basis" -> "" (cartesian)
 ------------------------------------------------------------------------------
       Tag                 Description            Shells   Functions and Types
 ---------------- ------------------------------  ------  ---------------------
 *                           sto-3g                   on all atoms 




                           NWChem Geometry Optimization
                           ----------------------------




                        Divinylbenzene in STO-3G basis set


  no constraints, skipping    0.0000000000000000     
 maximum gradient threshold         (gmax) =   0.000450
 rms gradient threshold             (grms) =   0.000300
 maximum cartesian step threshold   (xmax) =   0.001800
 rms cartesian step threshold       (xrms) =   0.001200
 fixed trust radius                (trust) =   0.300000
 maximum step size to saddle      (sadstp) =   0.100000
 energy precision                  (eprec) =   1.0D-07
 maximum number of steps          (nptopt) =   20
 initial hessian option           (inhess) =    0
 line search option               (linopt) =    1
 hessian update option            (modupd) =    1
 saddle point option              (modsad) =    0
 initial eigen-mode to follow     (moddir) =    0
 initial variable to follow       (vardir) =    0
 follow first negative mode     (firstneg) =    T
 apply conjugacy                    (opcg) =    F
 source of zmatrix                         =   autoz   


          -------------------
          Energy Minimization
          -------------------


 Names of Z-matrix variables 
    1              2              3              4              5         
    6              7              8              9             10         
   11             12             13             14             15         
   16             17             18             19             20         
   21             22             23             24             25         
   26             27             28             29             30         
   31             32             33             34             35         
   36             37             38             39             40         
   41             42             43             44             45         
   46             47             48             49             50         
   51             52             53             54             55         
   56             57             58             59             60         
   61             62             63             64             65         
   66             67             68             69             70         
   71             72             73             74             75         
   76             77             78             79             80         
   81             82             83             84             85         
   86             87             88             89             90         

 Variables with the same non-blank name are constrained to be equal


 Using diagonal initial Hessian 
 Scaling for Hessian diagonals: bonds = 1.00  angles = 0.25  torsions = 0.10

          --------
          Step   0
          --------


                         Geometry "geometry" -> "geometry"
                         ---------------------------------

 Output coordinates in angstroms (scale by  1.889725989 to convert to a.u.)

  No.       Tag          Charge          X              Y              Z
 ---- ---------------- ---------- -------------- -------------- --------------
    1 C                    6.0000     0.23680554     1.41416660     0.00000000
    2 C                    6.0000    -0.23680554    -1.41416660     0.00000000
    3 C                    6.0000     1.31675086     0.48901061     0.00000000
    4 C                    6.0000    -1.31675086    -0.48901061     0.00000000
    5 C                    6.0000     1.08679847    -0.89447642     0.00000000
    6 C                    6.0000    -1.08679847     0.89447642     0.00000000
    7 H                    1.0000     2.34780221     0.86863451     0.00000000
    8 H                    1.0000    -2.34780221    -0.86863451     0.00000000
    9 H                    1.0000     1.93764188    -1.58693865     0.00000000
   10 H                    1.0000    -1.93764188     1.58693865     0.00000000
   11 C                    6.0000    -0.53450789    -2.88212824     0.00000000
   12 C                    6.0000     0.53450789     2.88212824     0.00000000
   13 H                    1.0000    -1.60655769    -3.13289308     0.00000000
   14 H                    1.0000     1.60655769     3.13289308     0.00000000
   15 C                    6.0000     0.36419263    -3.88177971     0.00000000
   16 C                    6.0000    -0.36419263     3.88177971     0.00000000
   17 H                    1.0000     1.44522900    -3.70144241     0.00000000
   18 H                    1.0000    -1.44522900     3.70144241     0.00000000
   19 H                    1.0000     0.04815351    -4.93192286     0.00000000
   20 H                    1.0000    -0.04815351     4.93192286     0.00000000

      Atomic Mass 
      ----------- 

      C                 12.000000
      H                  1.007825


 Effective nuclear repulsion energy (a.u.)     445.9370121674

            Nuclear Dipole moment (a.u.) 
            ----------------------------
        X                 Y               Z
 ---------------- ---------------- ----------------
     0.0000000000     0.0000000000     0.0000000000

      Symmetry information
      --------------------

 Group name             C2h       
 Group number             21
 Group order               4
 No. of unique centers    10

      Symmetry unique atoms

     1    3    5    7    9   11   13   15   17   19

                      Basis "ao basis" -> "ao basis" (cartesian)
                      -----
  C (Carbon)
  ----------
            Exponent  Coefficients 
       -------------- ---------------------------------------------------------
  1 S  7.16168370E+01  0.154329
  1 S  1.30450960E+01  0.535328
  1 S  3.53051220E+00  0.444635

  2 S  2.94124940E+00 -0.099967
  2 S  6.83483100E-01  0.399513
  2 S  2.22289900E-01  0.700115

  3 P  2.94124940E+00  0.155916
  3 P  6.83483100E-01  0.607684
  3 P  2.22289900E-01  0.391957

  H (Hydrogen)
  ------------
            Exponent  Coefficients 
       -------------- ---------------------------------------------------------
  1 S  3.42525091E+00  0.154329
  1 S  6.23913730E-01  0.535328
  1 S  1.68855400E-01  0.444635



 Summary of "ao basis" -> "ao basis" (cartesian)
 ------------------------------------------------------------------------------
       Tag                 Description            Shells   Functions and Types
 ---------------- ------------------------------  ------  ---------------------
 C                           sto-3g                  3        5   2s1p
 H                           sto-3g                  1        1   1s


                                 NWChem SCF Module
                                 -----------------


                        Divinylbenzene in STO-3G basis set



  ao basis        = "ao basis"
  functions       =    60
  atoms           =    20
  closed shells   =    35
  open shells     =     0
  charge          =   0.00
  wavefunction    = RHF 
  input vectors   = atomic
  output vectors  = ./dvb.movecs
  use symmetry    = T
  symmetry adapt  = T


 Summary of "ao basis" -> "ao basis" (cartesian)
 ------------------------------------------------------------------------------
       Tag                 Description            Shells   Functions and Types
 ---------------- ------------------------------  ------  ---------------------
 C                           sto-3g                  3        5   2s1p
 H                           sto-3g                  1        1   1s


      Symmetry analysis of basis
      --------------------------

        ag         25
        au          5
        bg          5
        bu         25


 Forming initial guess at       0.0s


      Superposition of Atomic Density Guess
      -------------------------------------

 Sum of atomic energies:        -376.44825176

      Non-variational initial energy
      ------------------------------

 Total energy =    -379.429467
 1-e energy   =   -1401.451096
 2-e energy   =     576.084617
 HOMO         =      -0.037645
 LUMO         =       0.163723


      Symmetry analysis of molecular orbitals - initial
      -------------------------------------------------

  Numbering of irreducible representations: 

     1 ag          2 au          3 bg          4 bu      

  Orbital symmetries:

     1 ag          2 bu          3 ag          4 bu          5 bu      
     6 ag          7 bu          8 ag          9 bu         10 ag      
    11 ag         12 bu         13 ag         14 bu         15 bu      
    16 ag         17 ag         18 bu         19 ag         20 ag      
    21 bu         22 bu         23 ag         24 bu         25 bu      
    26 ag         27 bu         28 au         29 bu         30 ag      
    31 ag         32 bg         33 au         34 bg         35 bg      
    36 au         37 au         38 bg         39 au         40 bg      
    41 ag         42 bu         43 bu         44 ag         45 bu      


 Starting SCF solution at       0.2s



 ----------------------------------------------
         Quadratically convergent ROHF

 Convergence threshold     :          1.000E-04
 Maximum no. of iterations :           30
 Final Fock-matrix accuracy:          1.000E-07
 ----------------------------------------------


              iter       energy          gnorm     gmax       time
             ----- ------------------- --------- --------- --------
                 1     -379.7024485570  7.56D-01  1.81D-01      0.5
                 2     -379.7670205711  1.53D-01  4.40D-02      1.2
                 3     -379.7689540267  6.43D-03  2.31D-03      2.2
                 4     -379.7689610929  3.38D-05  9.25D-06      3.8


       Final RHF  results 
       ------------------ 

         Total SCF energy =   -379.768961092935
      One-electron energy =  -1400.222176091991
      Two-electron energy =    574.516202831610
 Nuclear repulsion energy =    445.937012167446

        Time for solution =      3.6s



       Symmetry analysis of molecular orbitals - final
       -----------------------------------------------

  Numbering of irreducible representations: 

     1 ag          2 au          3 bg          4 bu      

  Orbital symmetries:

     1 bu          2 ag          3 bu          4 ag          5 bu      
     6 ag          7 bu          8 ag          9 bu         10 ag      
    11 ag         12 bu         13 ag         14 bu         15 bu      
    16 ag         17 ag         18 bu         19 ag         20 ag      
    21 bu         22 bu         23 bu         24 ag         25 bu      
    26 bu         27 ag         28 au         29 bu         30 ag      
    31 ag         32 bg         33 au         34 bg         35 bg      
    36 au         37 au         38 bg         39 au         40 bg      
    41 ag         42 bu         43 ag         44 bu         45 ag      

             Final eigenvalues
             -----------------

              1      
    1  -11.0406
    2  -11.0405
    3  -11.0316
    4  -11.0316
    5  -11.0290
    6  -11.0288
    7  -11.0286
    8  -11.0286
    9  -11.0175
   10  -11.0175
   11   -1.0903
   12   -1.0203
   13   -0.9749
   14   -0.9503
   15   -0.9096
   16   -0.7999
   17   -0.7628
   18   -0.7276
   19   -0.6968
   20   -0.6281
   21   -0.6057
   22   -0.5729
   23   -0.5536
   24   -0.5532
   25   -0.5254
   26   -0.4967
   27   -0.4925
   28   -0.4637
   29   -0.4464
   30   -0.4217
   31   -0.4156
   32   -0.3770
   33   -0.3151
   34   -0.2784
   35   -0.2222
   36    0.1990
   37    0.2685
   38    0.3088
   39    0.3971
   40    0.5218
   41    0.5650
   42    0.5756
   43    0.6216
   44    0.6258
   45    0.6582

                       ROHF Final Molecular Orbital Analysis
                       -------------------------------------

 Vector   11  Occ=2.000000D+00  E=-1.090299D+00  Symmetry=ag
              MO Center=  2.4D-17, -4.4D-17,  2.8D-18, r^2= 3.0D+00
   Bfn.  Coefficient  Atom+Function         Bfn.  Coefficient  Atom+Function  
  ----- ------------  ---------------      ----- ------------  ---------------
     2      0.275368   1 C  s                 7      0.275368   2 C  s         
    12      0.247273   3 C  s                17      0.247273   4 C  s         
    22      0.247125   5 C  s                27      0.247125   6 C  s         

 Vector   12  Occ=2.000000D+00  E=-1.020254D+00  Symmetry=bu
              MO Center=  1.6D-16,  7.1D-16, -8.2D-20, r^2= 7.9D+00
   Bfn.  Coefficient  Atom+Function         Bfn.  Coefficient  Atom+Function  
  ----- ------------  ---------------      ----- ------------  ---------------
    36      0.298699  11 C  s                41     -0.298699  12 C  s         
     2     -0.270807   1 C  s                 7      0.270807   2 C  s         
    48      0.213652  15 C  s                53     -0.213652  16 C  s         

 Vector   13  Occ=2.000000D+00  E=-9.749253D-01  Symmetry=ag
              MO Center= -3.8D-16,  4.5D-16, -4.9D-34, r^2= 1.1D+01
   Bfn.  Coefficient  Atom+Function         Bfn.  Coefficient  Atom+Function  
  ----- ------------  ---------------      ----- ------------  ---------------
    36      0.314473  11 C  s                41      0.314473  12 C  s         
    48      0.310076  15 C  s                53      0.310076  16 C  s         

 Vector   14  Occ=2.000000D+00  E=-9.503037D-01  Symmetry=bu
              MO Center= -9.2D-17, -1.3D-17, -6.8D-34, r^2= 3.1D+00
   Bfn.  Coefficient  Atom+Function         Bfn.  Coefficient  Atom+Function  
  ----- ------------  ---------------      ----- ------------  ---------------
    12      0.357133   3 C  s                17     -0.357133   4 C  s         
    22      0.325009   5 C  s                27     -0.325009   6 C  s         

 Vector   15  Occ=2.000000D+00  E=-9.096351D-01  Symmetry=bu
              MO Center=  2.1D-17,  3.0D-17, -7.7D-32, r^2= 8.8D+00
   Bfn.  Coefficient  Atom+Function         Bfn.  Coefficient  Atom+Function  
  ----- ------------  ---------------      ----- ------------  ---------------
    48      0.292220  15 C  s                53     -0.292220  16 C  s         
     2      0.279080   1 C  s                 7     -0.279080   2 C  s         
    22     -0.200698   5 C  s                27      0.200698   6 C  s         

 Vector   16  Occ=2.000000D+00  E=-7.998827D-01  Symmetry=ag
              MO Center= -4.5D-16, -3.0D-16, -1.8D-33, r^2= 8.5D+00
   Bfn.  Coefficient  Atom+Function         Bfn.  Coefficient  Atom+Function  
  ----- ------------  ---------------      ----- ------------  ---------------
    48      0.239928  15 C  s                53      0.239928  16 C  s         
    22      0.229428   5 C  s                27      0.229428   6 C  s         
     2     -0.212931   1 C  s                 7     -0.212931   2 C  s         
    14     -0.159170   3 C  py               19      0.159170   4 C  py        
    36     -0.159504  11 C  s                41     -0.159504  12 C  s         

 Vector   17  Occ=2.000000D+00  E=-7.628266D-01  Symmetry=ag
              MO Center=  5.0D-16,  9.4D-17,  3.7D-33, r^2= 5.0D+00
   Bfn.  Coefficient  Atom+Function         Bfn.  Coefficient  Atom+Function  
  ----- ------------  ---------------      ----- ------------  ---------------
    12      0.324855   3 C  s                17      0.324855   4 C  s         
     3      0.189937   1 C  px                8     -0.189937   2 C  px        
    22     -0.180806   5 C  s                27     -0.180806   6 C  s         
    31      0.173636   7 H  s                32      0.173636   8 H  s         
    24      0.169743   5 C  py               29     -0.169743   6 C  py        

 Vector   18  Occ=2.000000D+00  E=-7.276317D-01  Symmetry=bu
              MO Center= -7.2D-17,  4.9D-17,  1.3D-32, r^2= 1.2D+01
   Bfn.  Coefficient  Atom+Function         Bfn.  Coefficient  Atom+Function  
  ----- ------------  ---------------      ----- ------------  ---------------
    36      0.297522  11 C  s                41     -0.297522  12 C  s         
    48     -0.248205  15 C  s                53      0.248205  16 C  s         
    45      0.174840  13 H  s                46     -0.174840  14 H  s         
    57     -0.163892  17 H  s                58      0.163892  18 H  s         

 Vector   19  Occ=2.000000D+00  E=-6.967772D-01  Symmetry=ag
              MO Center=  1.8D-16,  1.9D-16, -4.1D-34, r^2= 7.9D+00
   Bfn.  Coefficient  Atom+Function         Bfn.  Coefficient  Atom+Function  
  ----- ------------  ---------------      ----- ------------  ---------------
    23      0.194626   5 C  px               28     -0.194626   6 C  px        
    36      0.187352  11 C  s                41      0.187352  12 C  s         
    13      0.174309   3 C  px               18     -0.174309   4 C  px        
     2     -0.170808   1 C  s                 7     -0.170808   2 C  s         
    33      0.168855   9 H  s                34      0.168855  10 H  s         

 Vector   20  Occ=2.000000D+00  E=-6.280524D-01  Symmetry=ag
              MO Center=  3.0D-16, -2.2D-15,  5.5D-18, r^2= 9.3D+00
   Bfn.  Coefficient  Atom+Function         Bfn.  Coefficient  Atom+Function  
  ----- ------------  ---------------      ----- ------------  ---------------
    49      0.204699  15 C  px               54     -0.204699  16 C  px        
    38      0.183206  11 C  py               43     -0.183206  12 C  py        
    57      0.178851  17 H  s                58      0.178851  18 H  s         
    45     -0.152733  13 H  s                46     -0.152733  14 H  s         

 Vector   21  Occ=2.000000D+00  E=-6.056785D-01  Symmetry=bu
              MO Center= -1.6D-16,  5.0D-15, -6.5D-19, r^2= 1.0D+01
   Bfn.  Coefficient  Atom+Function         Bfn.  Coefficient  Atom+Function  
  ----- ------------  ---------------      ----- ------------  ---------------
    37      0.215047  11 C  px               42      0.215047  12 C  px        
    50      0.201796  15 C  py               55      0.201796  16 C  py        
    14      0.181913   3 C  py               19      0.181913   4 C  py        
    59     -0.179093  19 H  s                60      0.179093  20 H  s         
    45     -0.165300  13 H  s                46      0.165300  14 H  s         

 Vector   22  Occ=2.000000D+00  E=-5.729431D-01  Symmetry=bu
              MO Center= -2.1D-16,  3.2D-16,  4.7D-32, r^2= 7.0D+00
   Bfn.  Coefficient  Atom+Function         Bfn.  Coefficient  Atom+Function  
  ----- ------------  ---------------      ----- ------------  ---------------
    33      0.234898   9 H  s                34     -0.234898  10 H  s         
    31     -0.225759   7 H  s                32      0.225759   8 H  s         
     2      0.223487   1 C  s                 7     -0.223487   2 C  s         
    13     -0.220803   3 C  px               18     -0.220803   4 C  px        
    24     -0.179466   5 C  py               29     -0.179466   6 C  py        

 Vector   23  Occ=2.000000D+00  E=-5.536035D-01  Symmetry=bu
              MO Center=  4.0D-16, -2.8D-15,  2.2D-32, r^2= 8.9D+00
   Bfn.  Coefficient  Atom+Function         Bfn.  Coefficient  Atom+Function  
  ----- ------------  ---------------      ----- ------------  ---------------
    49      0.252836  15 C  px               54      0.252836  16 C  px        
    23      0.248954   5 C  px               28      0.248954   6 C  px        
     3     -0.221990   1 C  px                8     -0.221990   2 C  px        
    57      0.222771  17 H  s                58     -0.222771  18 H  s         
    38      0.178894  11 C  py               43      0.178894  12 C  py        

 Vector   24  Occ=2.000000D+00  E=-5.531660D-01  Symmetry=ag
              MO Center= -1.1D-16, -9.9D-17, -2.5D-33, r^2= 1.5D+01
   Bfn.  Coefficient  Atom+Function         Bfn.  Coefficient  Atom+Function  
  ----- ------------  ---------------      ----- ------------  ---------------
    50      0.336239  15 C  py               55     -0.336239  16 C  py        
    59     -0.268358  19 H  s                60     -0.268358  20 H  s         
    37      0.248998  11 C  px               42     -0.248998  12 C  px        
    45     -0.151363  13 H  s                46     -0.151363  14 H  s         

 Vector   25  Occ=2.000000D+00  E=-5.253611D-01  Symmetry=bu
              MO Center=  3.8D-16, -4.8D-16, -1.3D-18, r^2= 4.4D+00
   Bfn.  Coefficient  Atom+Function         Bfn.  Coefficient  Atom+Function  
  ----- ------------  ---------------      ----- ------------  ---------------
    13      0.299403   3 C  px               18      0.299403   4 C  px        
    31      0.258504   7 H  s                32     -0.258504   8 H  s         
    24     -0.232845   5 C  py               29     -0.232845   6 C  py        
    33      0.223597   9 H  s                34     -0.223597  10 H  s         
    23      0.179045   5 C  px               28      0.179045   6 C  px        

 Vector   26  Occ=2.000000D+00  E=-4.966990D-01  Symmetry=bu
              MO Center=  3.5D-16, -5.2D-16,  3.0D-33, r^2= 8.9D+00
   Bfn.  Coefficient  Atom+Function         Bfn.  Coefficient  Atom+Function  
  ----- ------------  ---------------      ----- ------------  ---------------
    50     -0.238943  15 C  py               55     -0.238943  16 C  py        
    14      0.222971   3 C  py               19      0.222971   4 C  py        
    37     -0.201997  11 C  px               42     -0.201997  12 C  px        
    38      0.188761  11 C  py               43      0.188761  12 C  py        
    24     -0.184876   5 C  py               29     -0.184876   6 C  py        

 Vector   27  Occ=2.000000D+00  E=-4.925284D-01  Symmetry=ag
              MO Center= -7.3D-16,  1.5D-16,  2.0D-36, r^2= 1.2D+01
   Bfn.  Coefficient  Atom+Function         Bfn.  Coefficient  Atom+Function  
  ----- ------------  ---------------      ----- ------------  ---------------
    49      0.296132  15 C  px               54     -0.296132  16 C  px        
    57      0.273185  17 H  s                58      0.273185  18 H  s         
    37     -0.209362  11 C  px               42      0.209362  12 C  px        
    45      0.202959  13 H  s                46      0.202959  14 H  s         
    31     -0.156849   7 H  s                32     -0.156849   8 H  s         

 Vector   28  Occ=2.000000D+00  E=-4.637309D-01  Symmetry=au
              MO Center= -9.0D-16,  3.1D-15, -7.2D-17, r^2= 3.6D+00
   Bfn.  Coefficient  Atom+Function         Bfn.  Coefficient  Atom+Function  
  ----- ------------  ---------------      ----- ------------  ---------------
     5      0.331504   1 C  pz               10      0.331504   2 C  pz        
    15      0.302831   3 C  pz               20      0.302831   4 C  pz        
    25      0.301868   5 C  pz               30      0.301868   6 C  pz        
    39      0.165577  11 C  pz               44      0.165577  12 C  pz        

 Vector   29  Occ=2.000000D+00  E=-4.464301D-01  Symmetry=bu
              MO Center= -2.5D-16, -4.6D-18,  4.0D-34, r^2= 1.2D+01
   Bfn.  Coefficient  Atom+Function         Bfn.  Coefficient  Atom+Function  
  ----- ------------  ---------------      ----- ------------  ---------------
    45      0.257253  13 H  s                46     -0.257253  14 H  s         
     4      0.243717   1 C  py                9      0.243717   2 C  py        
    57      0.226299  17 H  s                58     -0.226299  18 H  s         
    37     -0.214535  11 C  px               42     -0.214535  12 C  px        
    59     -0.211967  19 H  s                60      0.211967  20 H  s         

 Vector   30  Occ=2.000000D+00  E=-4.216541D-01  Symmetry=ag
              MO Center=  2.3D-16, -4.0D-16, -1.8D-16, r^2= 5.7D+00
   Bfn.  Coefficient  Atom+Function         Bfn.  Coefficient  Atom+Function  
  ----- ------------  ---------------      ----- ------------  ---------------
    14     -0.268211   3 C  py               19      0.268211   4 C  py        
     4      0.260254   1 C  py                9     -0.260254   2 C  py        
    33     -0.253901   9 H  s                34     -0.253901  10 H  s         
    38      0.232931  11 C  py               43     -0.232931  12 C  py        
    24      0.223472   5 C  py               29     -0.223472   6 C  py        

 Vector   31  Occ=2.000000D+00  E=-4.156211D-01  Symmetry=ag
              MO Center=  1.5D-16,  1.9D-16,  1.4D-16, r^2= 6.3D+00
   Bfn.  Coefficient  Atom+Function         Bfn.  Coefficient  Atom+Function  
  ----- ------------  ---------------      ----- ------------  ---------------
     3      0.278851   1 C  px                8     -0.278851   2 C  px        
    23      0.269036   5 C  px               28     -0.269036   6 C  px        
    31     -0.251625   7 H  s                32     -0.251625   8 H  s         
    13     -0.210354   3 C  px               18      0.210354   4 C  px        
    45     -0.183775  13 H  s                46     -0.183775  14 H  s         

 Vector   32  Occ=2.000000D+00  E=-3.769632D-01  Symmetry=bg
              MO Center= -3.3D-16, -2.9D-15,  1.7D-19, r^2= 8.6D+00
   Bfn.  Coefficient  Atom+Function         Bfn.  Coefficient  Atom+Function  
  ----- ------------  ---------------      ----- ------------  ---------------
    39      0.383213  11 C  pz               44     -0.383213  12 C  pz        
     5     -0.318676   1 C  pz               10      0.318676   2 C  pz        
    51      0.306665  15 C  pz               56     -0.306665  16 C  pz        

 Vector   33  Occ=2.000000D+00  E=-3.151269D-01  Symmetry=au
              MO Center= -2.9D-16,  7.9D-16,  3.7D-17, r^2= 1.1D+01
   Bfn.  Coefficient  Atom+Function         Bfn.  Coefficient  Atom+Function  
  ----- ------------  ---------------      ----- ------------  ---------------
    51      0.426295  15 C  pz               56      0.426295  16 C  pz        
    39      0.415175  11 C  pz               44      0.415175  12 C  pz        
    15     -0.164508   3 C  pz               20     -0.164508   4 C  pz        
    25     -0.164934   5 C  pz               30     -0.164934   6 C  pz        

 Vector   34  Occ=2.000000D+00  E=-2.783652D-01  Symmetry=bg
              MO Center=  1.3D-15, -2.5D-16, -3.1D-19, r^2= 2.7D+00
   Bfn.  Coefficient  Atom+Function         Bfn.  Coefficient  Atom+Function  
  ----- ------------  ---------------      ----- ------------  ---------------
    15      0.459817   3 C  pz               20     -0.459817   4 C  pz        
    25      0.461493   5 C  pz               30     -0.461493   6 C  pz        

 Vector   35  Occ=2.000000D+00  E=-2.221905D-01  Symmetry=bg
              MO Center= -2.0D-17, -6.3D-16,  1.2D-18, r^2= 7.2D+00
   Bfn.  Coefficient  Atom+Function         Bfn.  Coefficient  Atom+Function  
  ----- ------------  ---------------      ----- ------------  ---------------
     5      0.417993   1 C  pz               10     -0.417993   2 C  pz        
    51      0.358184  15 C  pz               56     -0.358184  16 C  pz        
    15      0.231888   3 C  pz               20     -0.231888   4 C  pz        
    25     -0.232000   5 C  pz               30      0.232000   6 C  pz        
    39      0.218350  11 C  pz               44     -0.218350  12 C  pz        

 Vector   36  Occ=0.000000D+00  E= 1.989923D-01  Symmetry=au
              MO Center= -8.2D-17,  2.3D-14,  1.9D-17, r^2= 7.3D+00
   Bfn.  Coefficient  Atom+Function         Bfn.  Coefficient  Atom+Function  
  ----- ------------  ---------------      ----- ------------  ---------------
     5      0.471534   1 C  pz               10      0.471534   2 C  pz        
    51     -0.414928  15 C  pz               56     -0.414928  16 C  pz        
    25     -0.278569   5 C  pz               30     -0.278569   6 C  pz        
    15     -0.249974   3 C  pz               20     -0.249974   4 C  pz        
    39      0.246934  11 C  pz               44      0.246934  12 C  pz        

 Vector   37  Occ=0.000000D+00  E= 2.685137D-01  Symmetry=au
              MO Center= -8.1D-17, -1.6D-16,  2.2D-17, r^2= 2.7D+00
   Bfn.  Coefficient  Atom+Function         Bfn.  Coefficient  Atom+Function  
  ----- ------------  ---------------      ----- ------------  ---------------
    15      0.578558   3 C  pz               20      0.578558   4 C  pz        
    25     -0.558107   5 C  pz               30     -0.558107   6 C  pz        

 Vector   38  Occ=0.000000D+00  E= 3.088251D-01  Symmetry=bg
              MO Center=  1.4D-16, -2.4D-14, -5.4D-19, r^2= 1.1D+01
   Bfn.  Coefficient  Atom+Function         Bfn.  Coefficient  Atom+Function  
  ----- ------------  ---------------      ----- ------------  ---------------
    51     -0.531237  15 C  pz               56      0.531237  16 C  pz        
    39      0.524390  11 C  pz               44     -0.524390  12 C  pz        
    15      0.225543   3 C  pz               20     -0.225543   4 C  pz        
    25     -0.220434   5 C  pz               30      0.220434   6 C  pz        

 Vector   39  Occ=0.000000D+00  E= 3.970769D-01  Symmetry=au
              MO Center= -7.1D-16, -7.5D-15,  1.1D-15, r^2= 8.4D+00
   Bfn.  Coefficient  Atom+Function         Bfn.  Coefficient  Atom+Function  
  ----- ------------  ---------------      ----- ------------  ---------------
    39      0.535070  11 C  pz               44      0.535070  12 C  pz        
     5     -0.473494   1 C  pz               10     -0.473494   2 C  pz        
    51     -0.407351  15 C  pz               56     -0.407351  16 C  pz        
    25      0.186775   5 C  pz               30      0.186775   6 C  pz        
    15      0.161861   3 C  pz               20      0.161861   4 C  pz        

 Vector   40  Occ=0.000000D+00  E= 5.217565D-01  Symmetry=bg
              MO Center=  8.0D-16,  7.0D-15, -2.6D-19, r^2= 3.8D+00
   Bfn.  Coefficient  Atom+Function         Bfn.  Coefficient  Atom+Function  
  ----- ------------  ---------------      ----- ------------  ---------------
     5      0.538711   1 C  pz               10     -0.538711   2 C  pz        
    15     -0.469482   3 C  pz               20      0.469482   4 C  pz        
    25      0.471487   5 C  pz               30     -0.471487   6 C  pz        
    39      0.278750  11 C  pz               44     -0.278750  12 C  pz        
    51     -0.158475  15 C  pz               56      0.158475  16 C  pz        

 Vector   41  Occ=0.000000D+00  E= 5.650142D-01  Symmetry=ag
              MO Center=  3.9D-17, -4.0D-16, -4.7D-16, r^2= 8.7D+00
   Bfn.  Coefficient  Atom+Function         Bfn.  Coefficient  Atom+Function  
  ----- ------------  ---------------      ----- ------------  ---------------
    33      0.434809   9 H  s                34      0.434809  10 H  s         
    31      0.420950   7 H  s                32      0.420950   8 H  s         
     2     -0.380042   1 C  s                 7     -0.380042   2 C  s         
    59      0.353825  19 H  s                60      0.353825  20 H  s         
    38      0.323933  11 C  py               43     -0.323933  12 C  py        

 Vector   42  Occ=0.000000D+00  E= 5.755623D-01  Symmetry=bu
              MO Center= -1.1D-15, -2.4D-14,  3.6D-20, r^2= 1.0D+01
   Bfn.  Coefficient  Atom+Function         Bfn.  Coefficient  Atom+Function  
  ----- ------------  ---------------      ----- ------------  ---------------
    45      0.448708  13 H  s                46     -0.448708  14 H  s         
    13      0.355539   3 C  px               18      0.355539   4 C  px        
    37      0.350908  11 C  px               42      0.350908  12 C  px        
    57     -0.321571  17 H  s                58      0.321571  18 H  s         
    31     -0.318891   7 H  s                32      0.318891   8 H  s         

 Vector   43  Occ=0.000000D+00  E= 6.215603D-01  Symmetry=ag
              MO Center= -1.4D-14, -5.6D-16,  5.2D-16, r^2= 1.2D+01
   Bfn.  Coefficient  Atom+Function         Bfn.  Coefficient  Atom+Function  
  ----- ------------  ---------------      ----- ------------  ---------------
    45      0.589566  13 H  s                46      0.589566  14 H  s         
    12      0.397895   3 C  s                17      0.397895   4 C  s         
    36     -0.394565  11 C  s                41     -0.394565  12 C  s         
    57     -0.381368  17 H  s                58     -0.381368  18 H  s         
    37      0.350696  11 C  px               42     -0.350696  12 C  px        

 Vector   44  Occ=0.000000D+00  E= 6.258005D-01  Symmetry=bu
              MO Center=  4.6D-16, -3.9D-17,  2.0D-19, r^2= 8.4D+00
   Bfn.  Coefficient  Atom+Function         Bfn.  Coefficient  Atom+Function  
  ----- ------------  ---------------      ----- ------------  ---------------
    36      0.529790  11 C  s                41     -0.529790  12 C  s         
     4      0.453569   1 C  py                9      0.453569   2 C  py        
    33      0.408877   9 H  s                34     -0.408877  10 H  s         
    59      0.389453  19 H  s                60     -0.389453  20 H  s         
    48     -0.337623  15 C  s                53      0.337623  16 C  s         

 Vector   45  Occ=0.000000D+00  E= 6.582334D-01  Symmetry=ag
              MO Center= -1.2D-15,  1.6D-15, -4.0D-17, r^2= 1.2D+01
   Bfn.  Coefficient  Atom+Function         Bfn.  Coefficient  Atom+Function  
  ----- ------------  ---------------      ----- ------------  ---------------
    48      0.683572  15 C  s                53      0.683572  16 C  s         
    22      0.582873   5 C  s                27      0.582873   6 C  s         
    57     -0.541817  17 H  s                58     -0.541817  18 H  s         
    12     -0.457375   3 C  s                17     -0.457375   4 C  s         
    59     -0.330802  19 H  s                60     -0.330802  20 H  s         


 center of mass
 --------------
 x =   0.00000000 y =   0.00000000 z =   0.00000000

 moments of inertia (a.u.)
 ------------------
        2631.731379210404           0.000000000000           0.000000000000
           0.000000000000         390.819001468288           0.000000000000
           0.000000000000           0.000000000000        3022.550380678692

  Mulliken analysis of the total density
  --------------------------------------

    Atom       Charge   Shell Charges
 -----------   ------   -------------------------------------------------------
    1 C    6     6.00   1.99  1.14  2.87
    2 C    6     6.00   1.99  1.14  2.87
    3 C    6     6.06   1.99  1.15  2.92
    4 C    6     6.06   1.99  1.15  2.92
    5 C    6     6.06   1.99  1.15  2.92
    6 C    6     6.06   1.99  1.15  2.92
    7 H    1     0.94   0.94
    8 H    1     0.94   0.94
    9 H    1     0.94   0.94
   10 H    1     0.94   0.94
   11 C    6     6.06   1.99  1.15  2.91
   12 C    6     6.06   1.99  1.15  2.91
   13 H    1     0.94   0.94
   14 H    1     0.94   0.94
   15 C    6     6.12   1.99  1.16  2.97
   16 C    6     6.12   1.99  1.16  2.97
   17 H    1     0.94   0.94
   18 H    1     0.94   0.94
   19 H    1     0.94   0.94
   20 H    1     0.94   0.94

       Multipole analysis of the density wrt the origin
       ------------------------------------------------

     L   x y z        total         open         nuclear
     -   - - -        -----         ----         -------
     0   0 0 0     -0.000000      0.000000     70.000000

     1   1 0 0     -0.000000      0.000000      0.000000
     1   0 1 0     -0.000000      0.000000      0.000000
     1   0 0 1      0.000000      0.000000      0.000000

     2   2 0 0    -38.360884      0.000000    244.795872
     2   1 1 0      0.065438      0.000000     -5.631027
     2   1 0 1     -0.000000      0.000000      0.000000
     2   0 2 0    -39.006243      0.000000   1496.963300
     2   0 1 1      0.000000      0.000000      0.000000
     2   0 0 2    -43.564268      0.000000      0.000000

                              NWChem Gradients Module
                              -----------------------


                        Divinylbenzene in STO-3G basis set


  wavefunction    =   RHF     

  Using symmetry


                         RHF ENERGY GRADIENTS

    atom               coordinates                        gradient
                 x          y          z           x          y          z
   1 C       0.447498   2.672387   0.000000    0.004028   0.024724   0.000000
   2 C      -0.447498  -2.672387   0.000000   -0.004028  -0.024724  -0.000000
   3 C       2.488298   0.924096   0.000000    0.014289   0.002868   0.000000
   4 C      -2.488298  -0.924096   0.000000   -0.014289  -0.002868   0.000000
   5 C       2.053751  -1.690315   0.000000    0.013557  -0.005636   0.000000
   6 C      -2.053751   1.690315   0.000000   -0.013557   0.005636   0.000000
   7 H       4.436703   1.641481   0.000000    0.013098   0.004960   0.000000
   8 H      -4.436703  -1.641481   0.000000   -0.013098  -0.004960   0.000000
   9 H       3.661612  -2.998879   0.000000    0.009782  -0.009902   0.000000
  10 H      -3.661612   2.998879   0.000000   -0.009782   0.009902  -0.000000
  11 C      -1.010073  -5.446433   0.000000   -0.017299   0.032961   0.000000
  12 C       1.010073   5.446433   0.000000    0.017299  -0.032961   0.000000
  13 H      -3.035954  -5.920309   0.000000   -0.014124  -0.003179   0.000000
  14 H       3.035954   5.920309   0.000000    0.014124   0.003179   0.000000
  15 C       0.688224  -7.335500   0.000000    0.020904  -0.024090   0.000000
  16 C      -0.688224   7.335500   0.000000   -0.020904   0.024090   0.000000
  17 H       2.731087  -6.994712   0.000000    0.013533   0.003314   0.000000
  18 H      -2.731087   6.994712   0.000000   -0.013533  -0.003314   0.000000
  19 H       0.090997  -9.319983   0.000000   -0.003965  -0.013248   0.000000
  20 H      -0.090997   9.319983   0.000000    0.003965   0.013248   0.000000

                 ----------------------------------------
                 |  Time  |  1-e(secs)   |  2-e(secs)   |
                 ----------------------------------------
                 |  CPU   |       0.00   |       0.54   |
                 ----------------------------------------
                 |  WALL  |       0.00   |       0.54   |
                 ----------------------------------------
  no constraints, skipping    0.0000000000000000     

@ Step       Energy      Delta E   Gmax     Grms     Xrms     Xmax   Walltime
@ ---- ---------------- -------- -------- -------- -------- -------- --------
@    0    -379.76896109  0.0D+00  0.04567  0.01110  0.00000  0.00000      4.4
                                                                    



                                Z-matrix (autoz)
                                -------- 

 Units are Angstrom for bonds and degrees for angles

      Type          Name      I     J     K     L     M      Value     Gradient
      ----------- --------  ----- ----- ----- ----- ----- ---------- ----------
    1 Stretch                  1     3                       1.42204    0.02930
    2 Stretch                  1     6                       1.42197    0.02981
    3 Stretch                  1    12                       1.49784    0.00435
    4 Stretch                  2     4                       1.42204    0.02930
    5 Stretch                  2     5                       1.42197    0.02981
    6 Stretch                  2    11                       1.49784    0.00435
    7 Stretch                  3     5                       1.40247    0.02655
    8 Stretch                  3     7                       1.09872    0.01401
    9 Stretch                  4     6                       1.40247    0.02655
   10 Stretch                  4     8                       1.09872    0.01401
   11 Stretch                  5     9                       1.09701    0.01384
   12 Stretch                  6    10                       1.09701    0.01384
   13 Stretch                 11    13                       1.10099    0.01448
   14 Stretch                 11    15                       1.34423    0.04567
   15 Stretch                 12    14                       1.10099    0.01448
   16 Stretch                 12    16                       1.34423    0.04567
   17 Stretch                 15    17                       1.09597    0.01389
   18 Stretch                 15    19                       1.09667    0.01383
   19 Stretch                 16    18                       1.09597    0.01389
   20 Stretch                 16    20                       1.09667    0.01383
   21 Bend                     1     3     5               121.14867   -0.00062
   22 Bend                     1     3     7               119.20109    0.00024
   23 Bend                     1     6     4               120.87358    0.00003
   24 Bend                     1     6    10               119.42285   -0.00084
   25 Bend                     1    12    14               114.62953    0.00026
   26 Bend                     1    12    16               126.57992   -0.00066
   27 Bend                     2     4     6               121.14867   -0.00062
   28 Bend                     2     4     8               119.20109    0.00024
   29 Bend                     2     5     3               120.87358    0.00003
   30 Bend                     2     5     9               119.42285   -0.00084
   31 Bend                     2    11    13               114.62953    0.00026
   32 Bend                     2    11    15               126.57992   -0.00066
   33 Bend                     3     1     6               117.97776    0.00059
   34 Bend                     3     1    12               119.12155    0.00010
   35 Bend                     3     5     9               119.70357    0.00081
   36 Bend                     4     2     5               117.97776    0.00059
   37 Bend                     4     2    11               119.12155    0.00010
   38 Bend                     4     6    10               119.70357    0.00081
   39 Bend                     5     2    11               122.90069   -0.00069
   40 Bend                     5     3     7               119.65024    0.00038
   41 Bend                     6     1    12               122.90069   -0.00069
   42 Bend                     6     4     8               119.65024    0.00038
   43 Bend                    11    15    17               122.48517   -0.00077
   44 Bend                    11    15    19               121.29492    0.00040
   45 Bend                    12    16    18               122.48517   -0.00077
   46 Bend                    12    16    20               121.29492    0.00040
   47 Bend                    13    11    15               118.79054    0.00039
   48 Bend                    14    12    16               118.79054    0.00039
   49 Bend                    17    15    19               116.21990    0.00037
   50 Bend                    18    16    20               116.21990    0.00037
   51 Torsion                  1     3     5     2           0.00000    0.00000
   52 Torsion                  1     3     5     9         180.00000    0.00000
   53 Torsion                  1     6     4     2           0.00000    0.00000
   54 Torsion                  1     6     4     8         180.00000   -0.00000
   55 Torsion                  1    12    16    18           0.00000    0.00000
   56 Torsion                  1    12    16    20         180.00000   -0.00000
   57 Torsion                  2     4     6    10         180.00000    0.00000
   58 Torsion                  2     5     3     7         180.00000   -0.00000
   59 Torsion                  2    11    15    17           0.00000   -0.00000
   60 Torsion                  2    11    15    19         180.00000   -0.00000
   61 Torsion                  3     1     6     4           0.00000    0.00000
   62 Torsion                  3     1     6    10         180.00000   -0.00000
   63 Torsion                  3     1    12    14           0.00000    0.00000
   64 Torsion                  3     1    12    16         180.00000    0.00000
   65 Torsion                  3     5     2     4           0.00000    0.00000
   66 Torsion                  3     5     2    11         180.00000    0.00000
   67 Torsion                  4     2     5     9         180.00000   -0.00000
   68 Torsion                  4     2    11    13           0.00000    0.00000
   69 Torsion                  4     2    11    15         180.00000    0.00000
   70 Torsion                  4     6     1    12         180.00000    0.00000
   71 Torsion                  5     2     4     6          -0.00000   -0.00000
   72 Torsion                  5     2     4     8         180.00000    0.00000
   73 Torsion                  5     2    11    13         180.00000   -0.00000
   74 Torsion                  5     2    11    15           0.00000    0.00000
   75 Torsion                  5     3     1     6           0.00000   -0.00000
   76 Torsion                  5     3     1    12         180.00000   -0.00000
   77 Torsion                  6     1     3     7         180.00000    0.00000
   78 Torsion                  6     1    12    14         180.00000   -0.00000
   79 Torsion                  6     1    12    16           0.00000    0.00000
   80 Torsion                  6     4     2    11         180.00000   -0.00000
   81 Torsion                  7     3     1    12          -0.00000   -0.00000
   82 Torsion                  7     3     5     9           0.00000    0.00000
   83 Torsion                  8     4     2    11          -0.00000   -0.00000
   84 Torsion                  8     4     6    10           0.00000   -0.00000
   85 Torsion                  9     5     2    11           0.00000    0.00000
   86 Torsion                 10     6     1    12           0.00000    0.00000
   87 Torsion                 13    11    15    17         180.00000    0.00000
   88 Torsion                 13    11    15    19          -0.00000    0.00000
   89 Torsion                 14    12    16    18         180.00000    0.00000
   90 Torsion                 14    12    16    20          -0.00000    0.00000

  no constraints, skipping    0.0000000000000000     
  no constraints, skipping    0.0000000000000000     
  no constraints, skipping    0.0000000000000000     
  no constraints, skipping    0.0000000000000000     
                                 NWChem SCF Module
                                 -----------------


                        Divinylbenzene in STO-3G basis set



  ao basis        = "ao basis"
  functions       =    60
  atoms           =    20
  closed shells   =    35
  open shells     =     0
  charge          =   0.00
  wavefunction    = RHF 
  input vectors   = ./dvb.movecs
  output vectors  = ./dvb.movecs
  use symmetry    = T
  symmetry adapt  = T


 Summary of "ao basis" -> "ao basis" (cartesian)
 ------------------------------------------------------------------------------
       Tag                 Description            Shells   Functions and Types
 ---------------- ------------------------------  ------  ---------------------
 C                           sto-3g                  3        5   2s1p
 H                           sto-3g                  1        1   1s


      Symmetry analysis of basis
      --------------------------

        ag         25
        au          5
        bg          5
        bu         25


 Forming initial guess at       4.4s


 Loading old vectors from job with title :

Divinylbenzene in STO-3G basis set


      Symmetry analysis of molecular orbitals - initial
      -------------------------------------------------

  Numbering of irreducible representations: 

     1 ag          2 au          3 bg          4 bu      

  Orbital symmetries:

     1 bu          2 ag          3 bu          4 ag          5 bu      
     6 ag          7 bu          8 ag          9 bu         10 ag      
    11 ag         12 bu         13 ag         14 bu         15 bu      
    16 ag         17 ag         18 bu         19 ag         20 ag      
    21 bu         22 bu         23 bu         24 ag         25 bu      
    26 bu         27 ag         28 au         29 bu         30 ag      
    31 ag         32 bg         33 au         34 bg         35 bg      
    36 au         37 au         38 bg         39 au         40 bg      
    41 ag         42 bu         43 ag         44 bu         45 ag      


 Starting SCF solution at       4.4s



 ----------------------------------------------
         Quadratically convergent ROHF

 Convergence threshold     :          1.000E-04
 Maximum no. of iterations :           30
 Final Fock-matrix accuracy:          1.000E-07
 ----------------------------------------------


              iter       energy          gnorm     gmax       time
             ----- ------------------- --------- --------- --------
                 1     -379.7748612679  1.31D-01  2.55D-02      4.7
                 2     -379.7762731068  4.43D-03  1.54D-03      5.7
                 3     -379.7762749994  1.05D-05  2.95D-06      7.3


       Final RHF  results 
       ------------------ 

         Total SCF energy =   -379.776274999441
      One-electron energy =  -1417.334071246266
      Two-electron energy =    582.747890558924
 Nuclear repulsion energy =    454.809905687902

        Time for solution =      3.0s



       Symmetry analysis of molecular orbitals - final
       -----------------------------------------------

  Numbering of irreducible representations: 

     1 ag          2 au          3 bg          4 bu      

  Orbital symmetries:

     1 bu          2 ag          3 bu          4 ag          5 bu      
     6 ag          7 bu          8 ag          9 bu         10 ag      
    11 ag         12 bu         13 ag         14 bu         15 bu      
    16 ag         17 ag         18 bu         19 ag         20 ag      
    21 bu         22 bu         23 bu         24 ag         25 bu      
    26 bu         27 ag         28 au         29 bu         30 ag      
    31 ag         32 bg         33 au         34 bg         35 bg      
    36 au         37 au         38 bg         39 au         40 bg      
    41 ag         42 bu         43 bu         44 ag         45 ag      

             Final eigenvalues
             -----------------

              1      
    1  -11.0411
    2  -11.0410
    3  -11.0326
    4  -11.0326
    5  -11.0290
    6  -11.0289
    7  -11.0283
    8  -11.0283
    9  -11.0181
   10  -11.0181
   11   -1.1129
   12   -1.0374
   13   -0.9952
   14   -0.9651
   15   -0.9279
   16   -0.8091
   17   -0.7744
   18   -0.7344
   19   -0.7104
   20   -0.6443
   21   -0.6199
   22   -0.5793
   23   -0.5678
   24   -0.5672
   25   -0.5354
   26   -0.5110
   27   -0.4999
   28   -0.4825
   29   -0.4498
   30   -0.4272
   31   -0.4197
   32   -0.3918
   33   -0.3326
   34   -0.2889
   35   -0.2369
   36    0.2094
   37    0.2756
   38    0.3236
   39    0.4108
   40    0.5437
   41    0.5713
   42    0.5855
   43    0.6360
   44    0.6402
   45    0.6893

                       ROHF Final Molecular Orbital Analysis
                       -------------------------------------

 Vector   11  Occ=2.000000D+00  E=-1.112881D+00  Symmetry=ag
              MO Center= -4.4D-17, -8.9D-17, -8.0D-35, r^2= 2.8D+00
   Bfn.  Coefficient  Atom+Function         Bfn.  Coefficient  Atom+Function  
  ----- ------------  ---------------      ----- ------------  ---------------
     2      0.269208   1 C  s                 7      0.269208   2 C  s         
    12      0.244670   3 C  s                17      0.244670   4 C  s         
    22      0.244602   5 C  s                27      0.244602   6 C  s         

 Vector   12  Occ=2.000000D+00  E=-1.037372D+00  Symmetry=bu
              MO Center=  7.6D-18,  1.3D-16,  7.0D-39, r^2= 8.0D+00
   Bfn.  Coefficient  Atom+Function         Bfn.  Coefficient  Atom+Function  
  ----- ------------  ---------------      ----- ------------  ---------------
    36      0.295138  11 C  s                41     -0.295138  12 C  s         
     2     -0.259769   1 C  s                 7      0.259769   2 C  s         
    48      0.218844  15 C  s                53     -0.218844  16 C  s         

 Vector   13  Occ=2.000000D+00  E=-9.952246D-01  Symmetry=ag
              MO Center= -5.8D-18, -2.4D-17,  6.9D-34, r^2= 1.1D+01
   Bfn.  Coefficient  Atom+Function         Bfn.  Coefficient  Atom+Function  
  ----- ------------  ---------------      ----- ------------  ---------------
    36      0.311306  11 C  s                41      0.311306  12 C  s         
    48      0.307949  15 C  s                53      0.307949  16 C  s         

 Vector   14  Occ=2.000000D+00  E=-9.651403D-01  Symmetry=bu
              MO Center= -1.9D-16,  3.3D-17, -9.3D-21, r^2= 3.0D+00
   Bfn.  Coefficient  Atom+Function         Bfn.  Coefficient  Atom+Function  
  ----- ------------  ---------------      ----- ------------  ---------------
    12      0.353451   3 C  s                17     -0.353451   4 C  s         
    22      0.318886   5 C  s                27     -0.318886   6 C  s         

 Vector   15  Occ=2.000000D+00  E=-9.279322D-01  Symmetry=bu
              MO Center= -4.5D-17, -8.0D-17,  2.8D-20, r^2= 8.2D+00
   Bfn.  Coefficient  Atom+Function         Bfn.  Coefficient  Atom+Function  
  ----- ------------  ---------------      ----- ------------  ---------------
     2      0.282482   1 C  s                 7     -0.282482   2 C  s         
    48      0.276988  15 C  s                53     -0.276988  16 C  s         
    22     -0.202271   5 C  s                27      0.202271   6 C  s         

 Vector   16  Occ=2.000000D+00  E=-8.091037D-01  Symmetry=ag
              MO Center=  7.4D-17,  1.5D-16, -1.0D-18, r^2= 7.7D+00
   Bfn.  Coefficient  Atom+Function         Bfn.  Coefficient  Atom+Function  
  ----- ------------  ---------------      ----- ------------  ---------------
    22      0.234908   5 C  s                27      0.234908   6 C  s         
    48      0.220783  15 C  s                53      0.220783  16 C  s         
     2     -0.206265   1 C  s                 7     -0.206265   2 C  s         
    14     -0.170154   3 C  py               19      0.170154   4 C  py        
    36     -0.154354  11 C  s                41     -0.154354  12 C  s         

 Vector   17  Occ=2.000000D+00  E=-7.743984D-01  Symmetry=ag
              MO Center= -2.2D-16,  5.6D-17,  2.8D-18, r^2= 4.9D+00
   Bfn.  Coefficient  Atom+Function         Bfn.  Coefficient  Atom+Function  
  ----- ------------  ---------------      ----- ------------  ---------------
    12      0.317022   3 C  s                17      0.317022   4 C  s         
     3      0.188323   1 C  px                8     -0.188323   2 C  px        
    24      0.176341   5 C  py               29     -0.176341   6 C  py        
    31      0.171235   7 H  s                32      0.171235   8 H  s         
     2     -0.164738   1 C  s                 7     -0.164738   2 C  s         

 Vector   18  Occ=2.000000D+00  E=-7.344208D-01  Symmetry=bu
              MO Center=  8.8D-17,  1.0D-16, -4.2D-20, r^2= 1.2D+01
   Bfn.  Coefficient  Atom+Function         Bfn.  Coefficient  Atom+Function  
  ----- ------------  ---------------      ----- ------------  ---------------
    36      0.290970  11 C  s                41     -0.290970  12 C  s         
    48     -0.246144  15 C  s                53      0.246144  16 C  s         
    45      0.178360  13 H  s                46     -0.178360  14 H  s         
    57     -0.167691  17 H  s                58      0.167691  18 H  s         

 Vector   19  Occ=2.000000D+00  E=-7.104280D-01  Symmetry=ag
              MO Center= -1.7D-17,  1.1D-16,  1.4D-17, r^2= 7.6D+00
   Bfn.  Coefficient  Atom+Function         Bfn.  Coefficient  Atom+Function  
  ----- ------------  ---------------      ----- ------------  ---------------
    23      0.196161   5 C  px               28     -0.196161   6 C  px        
    13      0.179652   3 C  px               18     -0.179652   4 C  px        
    36      0.177734  11 C  s                41      0.177734  12 C  s         
    33      0.172261   9 H  s                34      0.172261  10 H  s         
    48     -0.164478  15 C  s                53     -0.164478  16 C  s         

 Vector   20  Occ=2.000000D+00  E=-6.443395D-01  Symmetry=ag
              MO Center=  5.2D-16, -2.2D-15, -3.1D-20, r^2= 9.4D+00
   Bfn.  Coefficient  Atom+Function         Bfn.  Coefficient  Atom+Function  
  ----- ------------  ---------------      ----- ------------  ---------------
    49      0.213189  15 C  px               54     -0.213189  16 C  px        
    57      0.184225  17 H  s                58      0.184225  18 H  s         
    38      0.181663  11 C  py               43     -0.181663  12 C  py        
    45     -0.154937  13 H  s                46     -0.154937  14 H  s         

 Vector   21  Occ=2.000000D+00  E=-6.199391D-01  Symmetry=bu
              MO Center= -2.8D-16,  4.2D-15, -1.7D-21, r^2= 1.0D+01
   Bfn.  Coefficient  Atom+Function         Bfn.  Coefficient  Atom+Function  
  ----- ------------  ---------------      ----- ------------  ---------------
    50      0.220073  15 C  py               55      0.220073  16 C  py        
    37      0.215033  11 C  px               42      0.215033  12 C  px        
    59     -0.191409  19 H  s                60      0.191409  20 H  s         
    14      0.187232   3 C  py               19      0.187232   4 C  py        
    45     -0.152495  13 H  s                46      0.152495  14 H  s         

 Vector   22  Occ=2.000000D+00  E=-5.793128D-01  Symmetry=bu
              MO Center= -5.7D-16,  1.4D-15,  2.7D-32, r^2= 6.4D+00
   Bfn.  Coefficient  Atom+Function         Bfn.  Coefficient  Atom+Function  
  ----- ------------  ---------------      ----- ------------  ---------------
    31     -0.231893   7 H  s                32      0.231893   8 H  s         
    33      0.229553   9 H  s                34     -0.229553  10 H  s         
    13     -0.225890   3 C  px               18     -0.225890   4 C  px        
     2      0.216460   1 C  s                 7     -0.216460   2 C  s         
    24     -0.182316   5 C  py               29     -0.182316   6 C  py        

 Vector   23  Occ=2.000000D+00  E=-5.678307D-01  Symmetry=bu
              MO Center=  4.0D-16, -3.2D-15, -1.8D-20, r^2= 8.2D+00
   Bfn.  Coefficient  Atom+Function         Bfn.  Coefficient  Atom+Function  
  ----- ------------  ---------------      ----- ------------  ---------------
    23      0.263823   5 C  px               28      0.263823   6 C  px        
    49      0.239263  15 C  px               54      0.239263  16 C  px        
     3     -0.212622   1 C  px                8     -0.212622   2 C  px        
    57      0.208199  17 H  s                58     -0.208199  18 H  s         
    38      0.165457  11 C  py               43      0.165457  12 C  py        

 Vector   24  Occ=2.000000D+00  E=-5.671702D-01  Symmetry=ag
              MO Center= -1.0D-16,  3.9D-16, -3.8D-18, r^2= 1.4D+01
   Bfn.  Coefficient  Atom+Function         Bfn.  Coefficient  Atom+Function  
  ----- ------------  ---------------      ----- ------------  ---------------
    50      0.338830  15 C  py               55     -0.338830  16 C  py        
    59     -0.264253  19 H  s                60     -0.264253  20 H  s         
    37      0.251899  11 C  px               42     -0.251899  12 C  px        
    45     -0.150249  13 H  s                46     -0.150249  14 H  s         

 Vector   25  Occ=2.000000D+00  E=-5.353832D-01  Symmetry=bu
              MO Center= -2.9D-16, -1.3D-16, -5.8D-23, r^2= 4.2D+00
   Bfn.  Coefficient  Atom+Function         Bfn.  Coefficient  Atom+Function  
  ----- ------------  ---------------      ----- ------------  ---------------
    13      0.305392   3 C  px               18      0.305392   4 C  px        
    31      0.255752   7 H  s                32     -0.255752   8 H  s         
    24     -0.226927   5 C  py               29     -0.226927   6 C  py        
    33      0.221334   9 H  s                34     -0.221334  10 H  s         
    23      0.190030   5 C  px               28      0.190030   6 C  px        

 Vector   26  Occ=2.000000D+00  E=-5.109596D-01  Symmetry=bu
              MO Center=  3.4D-16, -5.5D-16,  5.2D-33, r^2= 8.7D+00
   Bfn.  Coefficient  Atom+Function         Bfn.  Coefficient  Atom+Function  
  ----- ------------  ---------------      ----- ------------  ---------------
    50     -0.238524  15 C  py               55     -0.238524  16 C  py        
    14      0.224088   3 C  py               19      0.224088   4 C  py        
[...]
    2 C                    6.0000    -0.22791436    -1.39288682     0.00000000
    3 C                    6.0000     1.28919622     0.48588492     0.00000000
    4 C                    6.0000    -1.28919622    -0.48588492     0.00000000
    5 C                    6.0000     1.06903351    -0.87838949     0.00000000
    6 C                    6.0000    -1.06903351     0.87838949     0.00000000
    7 H                    1.0000     2.30488364     0.86056857     0.00000000
    8 H                    1.0000    -2.30488364    -0.86056857     0.00000000
    9 H                    1.0000     1.91771846    -1.54845933     0.00000000
   10 H                    1.0000    -1.91771846     1.54845933     0.00000000
   11 C                    6.0000    -0.52246137    -2.85975751     0.00000000
   12 C                    6.0000     0.52246137     2.85975751     0.00000000
   13 H                    1.0000    -1.57985434    -3.10026381     0.00000000
   14 H                    1.0000     1.57985434     3.10026381     0.00000000
   15 C                    6.0000     0.35270515    -3.83939296     0.00000000
   16 C                    6.0000    -0.35270515     3.83939296     0.00000000
   17 H                    1.0000     1.42081376    -3.67691614     0.00000000
   18 H                    1.0000    -1.42081376     3.67691614     0.00000000
   19 H                    1.0000     0.03744757    -4.87355368     0.00000000
   20 H                    1.0000    -0.03744757     4.87355368     0.00000000

      Atomic Mass 
      ----------- 

      C                 12.000000
      H                  1.007825


 Effective nuclear repulsion energy (a.u.)     452.1171993655

            Nuclear Dipole moment (a.u.) 
            ----------------------------
        X                 Y               Z
 ---------------- ---------------- ----------------
     0.0000000000     0.0000000000     0.0000000000

      Symmetry information
      --------------------

 Group name             C2h       
 Group number             21
 Group order               4
 No. of unique centers    10

      Symmetry unique atoms

     1    3    5    7    9   11   13   15   17   19


                Final and change from initial internal coordinates
                --------------------------------------------------



                                Z-matrix (autoz)
                                -------- 

 Units are Angstrom for bonds and degrees for angles

      Type          Name      I     J     K     L     M      Value       Change
      ----------- --------  ----- ----- ----- ----- ----- ---------- ----------
    1 Stretch                  1     3                       1.39606   -0.02598
    2 Stretch                  1     6                       1.39527   -0.02670
    3 Stretch                  1    12                       1.49615   -0.00169
    4 Stretch                  2     4                       1.39606   -0.02598
    5 Stretch                  2     5                       1.39527   -0.02670
    6 Stretch                  2    11                       1.49615   -0.00169
    7 Stretch                  3     5                       1.38192   -0.02054
    8 Stretch                  3     7                       1.08259   -0.01612
    9 Stretch                  4     6                       1.38192   -0.02054
   10 Stretch                  4     8                       1.08259   -0.01612
   11 Stretch                  5     9                       1.08132   -0.01569
   12 Stretch                  6    10                       1.08132   -0.01569
   13 Stretch                 11    13                       1.08440   -0.01659
   14 Stretch                 11    15                       1.31362   -0.03061
   15 Stretch                 12    14                       1.08440   -0.01659
   16 Stretch                 12    16                       1.31362   -0.03061
   17 Stretch                 15    17                       1.08040   -0.01558
   18 Stretch                 15    19                       1.08115   -0.01552
   19 Stretch                 16    18                       1.08040   -0.01558
   20 Stretch                 16    20                       1.08115   -0.01552
   21 Bend                     1     3     5               121.35095    0.20229
   22 Bend                     1     3     7               119.23300    0.03191
   23 Bend                     1     6     4               120.80535   -0.06823
   24 Bend                     1     6    10               120.06938    0.64652
   25 Bend                     1    12    14               114.16802   -0.46152
   26 Bend                     1    12    16               126.86972    0.28979
   27 Bend                     2     4     6               121.35095    0.20229
   28 Bend                     2     4     8               119.23300    0.03191
   29 Bend                     2     5     3               120.80535   -0.06823
   30 Bend                     2     5     9               120.06938    0.64652
   31 Bend                     2    11    13               114.16802   -0.46152
   32 Bend                     2    11    15               126.86972    0.28979
   33 Bend                     3     1     6               117.84369   -0.13406
   34 Bend                     3     1    12               119.16417    0.04262
   35 Bend                     3     5     9               119.12527   -0.57830
   36 Bend                     4     2     5               117.84369   -0.13406
   37 Bend                     4     2    11               119.16417    0.04262
   38 Bend                     4     6    10               119.12527   -0.57830
   39 Bend                     5     2    11               122.99213    0.09144
   40 Bend                     5     3     7               119.41604   -0.23420
   41 Bend                     6     1    12               122.99213    0.09144
   42 Bend                     6     4     8               119.41604   -0.23420
   43 Bend                    11    15    17               123.12699    0.64182
   44 Bend                    11    15    19               121.27017   -0.02475
   45 Bend                    12    16    18               123.12699    0.64182
   46 Bend                    12    16    20               121.27017   -0.02475
   47 Bend                    13    11    15               118.96227    0.17172
   48 Bend                    14    12    16               118.96227    0.17172
   49 Bend                    17    15    19               115.60284   -0.61706
   50 Bend                    18    16    20               115.60284   -0.61706
   51 Torsion                  1     3     5     2           0.00000    0.00000
   52 Torsion                  1     3     5     9         180.00000    0.00000
   53 Torsion                  1     6     4     2           0.00000    0.00000
   54 Torsion                  1     6     4     8         180.00000    0.00000
   55 Torsion                  1    12    16    18           0.00000    0.00000
   56 Torsion                  1    12    16    20         180.00000    0.00000
   57 Torsion                  2     4     6    10         180.00000    0.00000
   58 Torsion                  2     5     3     7         180.00000    0.00000
   59 Torsion                  2    11    15    17           0.00000    0.00000
   60 Torsion                  2    11    15    19         180.00000    0.00000
   61 Torsion                  3     1     6     4           0.00000    0.00000
   62 Torsion                  3     1     6    10         180.00000    0.00000
   63 Torsion                  3     1    12    14           0.00000    0.00000
   64 Torsion                  3     1    12    16         180.00000    0.00000
   65 Torsion                  3     5     2     4           0.00000    0.00000
   66 Torsion                  3     5     2    11         180.00000    0.00000
   67 Torsion                  4     2     5     9         180.00000    0.00000
   68 Torsion                  4     2    11    13           0.00000    0.00000
   69 Torsion                  4     2    11    15         180.00000    0.00000
   70 Torsion                  4     6     1    12         180.00000    0.00000
   71 Torsion                  5     2     4     6          -0.00000    0.00000
   72 Torsion                  5     2     4     8         180.00000    0.00000
   73 Torsion                  5     2    11    13         180.00000    0.00000
   74 Torsion                  5     2    11    15           0.00000    0.00000
   75 Torsion                  5     3     1     6           0.00000    0.00000
   76 Torsion                  5     3     1    12         180.00000    0.00000
   77 Torsion                  6     1     3     7         180.00000    0.00000
   78 Torsion                  6     1    12    14         180.00000    0.00000
   79 Torsion                  6     1    12    16           0.00000    0.00000
   80 Torsion                  6     4     2    11         180.00000    0.00000
   81 Torsion                  7     3     1    12          -0.00000    0.00000
   82 Torsion                  7     3     5     9           0.00000    0.00000
   83 Torsion                  8     4     2    11          -0.00000    0.00000
   84 Torsion                  8     4     6    10           0.00000    0.00000
   85 Torsion                  9     5     2    11           0.00000    0.00000
   86 Torsion                 10     6     1    12           0.00000    0.00000
   87 Torsion                 13    11    15    17         180.00000    0.00000
   88 Torsion                 13    11    15    19          -0.00000    0.00000
   89 Torsion                 14    12    16    18         180.00000    0.00000
   90 Torsion                 14    12    16    20          -0.00000    0.00000

 ==============================================================================
                                internuclear distances
 ------------------------------------------------------------------------------
       center one      |      center two      | atomic units |  angstroms
 ------------------------------------------------------------------------------
    3 C                |   1 C                |     2.63816  |     1.39606
    4 C                |   2 C                |     2.63816  |     1.39606
    5 C                |   2 C                |     2.63668  |     1.39527
    5 C                |   3 C                |     2.61146  |     1.38192
    6 C                |   1 C                |     2.63668  |     1.39527
    6 C                |   4 C                |     2.61146  |     1.38192
    7 H                |   3 C                |     2.04581  |     1.08259
    8 H                |   4 C                |     2.04581  |     1.08259
    9 H                |   5 C                |     2.04340  |     1.08132
   10 H                |   6 C                |     2.04340  |     1.08132
   11 C                |   2 C                |     2.82732  |     1.49615
   12 C                |   1 C                |     2.82732  |     1.49615
   13 H                |  11 C                |     2.04922  |     1.08440
   14 H                |  12 C                |     2.04922  |     1.08440
   15 C                |  11 C                |     2.48239  |     1.31362
   16 C                |  12 C                |     2.48239  |     1.31362
   17 H                |  15 C                |     2.04165  |     1.08040
   18 H                |  16 C                |     2.04165  |     1.08040
   19 H                |  15 C                |     2.04307  |     1.08115
   20 H                |  16 C                |     2.04307  |     1.08115
 ------------------------------------------------------------------------------
                         number of included internuclear distances:         20
 ==============================================================================



 ==============================================================================
                                 internuclear angles
 ------------------------------------------------------------------------------
        center 1       |       center 2       |       center 3       |  degrees
 ------------------------------------------------------------------------------
    3 C                |   1 C                |   6 C                |   117.84
    3 C                |   1 C                |  12 C                |   119.16
    6 C                |   1 C                |  12 C                |   122.99
    4 C                |   2 C                |   5 C                |   117.84
    4 C                |   2 C                |  11 C                |   119.16
    5 C                |   2 C                |  11 C                |   122.99
    1 C                |   3 C                |   5 C                |   121.35
    1 C                |   3 C                |   7 H                |   119.23
    5 C                |   3 C                |   7 H                |   119.42
    2 C                |   4 C                |   6 C                |   121.35
    2 C                |   4 C                |   8 H                |   119.23
    6 C                |   4 C                |   8 H                |   119.42
    2 C                |   5 C                |   3 C                |   120.81
    2 C                |   5 C                |   9 H                |   120.07
    3 C                |   5 C                |   9 H                |   119.13
    1 C                |   6 C                |   4 C                |   120.81
    1 C                |   6 C                |  10 H                |   120.07
    4 C                |   6 C                |  10 H                |   119.13
    2 C                |  11 C                |  13 H                |   114.17
    2 C                |  11 C                |  15 C                |   126.87
   13 H                |  11 C                |  15 C                |   118.96
    1 C                |  12 C                |  14 H                |   114.17
    1 C                |  12 C                |  16 C                |   126.87
   14 H                |  12 C                |  16 C                |   118.96
   11 C                |  15 C                |  17 H                |   123.13
   11 C                |  15 C                |  19 H                |   121.27
   17 H                |  15 C                |  19 H                |   115.60
   12 C                |  16 C                |  18 H                |   123.13
   12 C                |  16 C                |  20 H                |   121.27
   18 H                |  16 C                |  20 H                |   115.60
 ------------------------------------------------------------------------------
                            number of included internuclear angles:         30
 ==============================================================================




 Task  times  cpu:       21.2s     wall:       21.3s
 Summary of allocated global arrays
-----------------------------------
  No active global arrays



                         GA Statistics for process    0
                         ------------------------------

       create   destroy   get      put      acc     scatter   gather  read&inc
calls: 1606     1606     1.29e+05 3.24e+04 1.43e+05    0        0     3.92e+04 
number of processes/call -1.53e+13 6.59e+13 4.46e+13 0.00e+00 0.00e+00
bytes total:             5.87e+07 3.17e+07 1.91e+07 0.00e+00 0.00e+00 3.14e+05
bytes remote:            0.00e+00 0.00e+00 0.00e+00 0.00e+00 0.00e+00 0.00e+00
Max memory consumed for GA by this process: 427200 bytes
MA_summarize_allocated_blocks: starting scan ...
MA_summarize_allocated_blocks: scan completed: 0 heap blocks, 0 stack blocks
MA usage statistics:

	allocation statistics:
					      heap	     stack
					      ----	     -----
	current number of blocks	         0	         0
	maximum number of blocks	        20	        29
	current total bytes		         0	         0
	maximum total bytes		     80120	  22510840
	maximum total K-bytes		        81	     22511
	maximum total M-bytes		         1	        23


                                NWChem Input Module
                                -------------------





                                     CITATION
                                     --------
                Please cite the following reference when publishing
                           results obtained with NWChem:

          E. Apr, E. J. Bylaska, W. A. de Jong, N. Govind, K. Kowalski,
       T. P. Straatsma, M. Valiev, H. J. J. van Dam, Y. Alexeev, J. Anchell,
       V. Anisimov, F. W. Aquino, R. Atta-Fynn, J. Autschbach, N. P. Bauman,
     J. C. Becca, D. E. Bernholdt, K. Bhaskaran-Nair, S. Bogatko, P. Borowski,
        J. Boschen, J. Brabec, A. Bruner, E. Caut, Y. Chen, G. N. Chuev,
      C. J. Cramer, J. Daily, M. J. O. Deegan, T. H. Dunning Jr., M. Dupuis,
   K. G. Dyall, G. I. Fann, S. A. Fischer, A. Fonari, H. Frchtl, L. Gagliardi,
      J. Garza, N. Gawande, S. Ghosh, K. Glaesemann, A. W. Gtz, J. Hammond,
       V. Helms, E. D. Hermes, K. Hirao, S. Hirata, M. Jacquelin, L. Jensen,
   B. G. Johnson, H. Jnsson, R. A. Kendall, M. Klemm, R. Kobayashi, V. Konkov,
      S. Krishnamoorthy, M. Krishnan, Z. Lin, R. D. Lins, R. J. Littlefield,
      A. J. Logsdail, K. Lopata, W. Ma, A. V. Marenich, J. Martin del Campo,
   D. Mejia-Rodriguez, J. E. Moore, J. M. Mullin, T. Nakajima, D. R. Nascimento,
    J. A. Nichols, P. J. Nichols, J. Nieplocha, A. Otero-de-la-Roza, B. Palmer,
    A. Panyala, T. Pirojsirikul, B. Peng, R. Peverati, J. Pittner, L. Pollack,
   R. M. Richard, P. Sadayappan, G. C. Schatz, W. A. Shelton, D. W. Silverstein,
   D. M. A. Smith, T. A. Soares, D. Song, M. Swart, H. L. Taylor, G. S. Thomas,
            V. Tipparaju, D. G. Truhlar, K. Tsemekhman, T. Van Voorhis,
     . Vzquez-Mayagoitia, P. Verma, O. Villa, A. Vishnu, K. D. Vogiatzis,
        D. Wang, J. H. Weare, M. J. Williamson, T. L. Windus, K. Woliski,
        A. T. Wong, Q. Wu, C. Yang, Q. Yu, M. Zacharias, Z. Zhang, Y. Zhao,
                                and R. J. Harrison
                        "NWChem: Past, present, and future
                         J. Chem. Phys. 152, 184102 (2020)
                               doi:10.1063/5.0004997

                                      AUTHORS
                                      -------
     E. Apra, E. J. Bylaska, N. Govind, K. Kowalski, M. Valiev, W. A. de Jong,
      T. P. Straatsma, H. J. J. van Dam, D. Wang, T. L. Windus, N. P. Bauman,
       A. Panyala, J. Hammond, J. Autschbach, K. Bhaskaran-Nair, J. Brabec,
    K. Lopata, S. A. Fischer, S. Krishnamoorthy, M. Jacquelin, W. Ma, M. Klemm,
       O. Villa, Y. Chen, V. Anisimov, F. Aquino, S. Hirata, M. T. Hackler,
           Eric Hermes, L. Jensen, J. E. Moore, J. C. Becca, V. Konjkov,
            D. Mejia-Rodriguez, T. Risthaus, M. Malagoli, A. Marenich,
   A. Otero-de-la-Roza, J. Mullin, P. Nichols, R. Peverati, J. Pittner, Y. Zhao,
        P.-D. Fan, A. Fonari, M. J. Williamson, R. J. Harrison, J. R. Rehr,
      M. Dupuis, D. Silverstein, D. M. A. Smith, J. Nieplocha, V. Tipparaju,
      M. Krishnan, B. E. Van Kuiken, A. Vazquez-Mayagoitia, M. Swart, Q. Wu,
   T. Van Voorhis, A. A. Auer, M. Nooijen, L. D. Crosby, E. Brown, G. Cisneros,
     G. I. Fann, H. Fruchtl, J. Garza, K. Hirao, R. A. Kendall, J. A. Nichols,
       K. Tsemekhman, K. Wolinski, J. Anchell, D. E. Bernholdt, P. Borowski,
       T. Clark, D. Clerc, H. Dachsel, M. J. O. Deegan, K. Dyall, D. Elwood,
      E. Glendening, M. Gutowski, A. C. Hess, J. Jaffe, B. G. Johnson, J. Ju,
        R. Kobayashi, R. Kutteh, Z. Lin, R. Littlefield, X. Long, B. Meng,
      T. Nakajima, S. Niu, L. Pollack, M. Rosing, K. Glaesemann, G. Sandrone,
      M. Stave, H. Taylor, G. Thomas, J. H. van Lenthe, A. T. Wong, Z. Zhang.

 Total times  cpu:       21.2s     wall:       21.3s
