 argument  1 = dvb_ir.nw
                                         
                                         
 
 
             Northwest Computational Chemistry Package (NWChem) 7.0.0
             --------------------------------------------------------
 
 
                    Environmental Molecular Sciences Laboratory
                       Pacific Northwest National Laboratory
                                Richland, WA 99352
 
                              Copyright (c) 1994-2019
                       Pacific Northwest National Laboratory
                            Battelle Memorial Institute
 
             NWChem is an open-source computational chemistry package
                        distributed under the terms of the
                      Educational Community License (ECL) 2.0
             A copy of the license is included with this distribution
                              in the LICENSE.TXT file
 
                                  ACKNOWLEDGMENT
                                  --------------

            This software and its documentation were developed at the
            EMSL at Pacific Northwest National Laboratory, a multiprogram
            national laboratory, operated for the U.S. Department of Energy
            by Battelle under Contract Number DE-AC05-76RL01830. Support
            for this work was provided by the Department of Energy Office
            of Biological and Environmental Research, Office of Basic
            Energy Sciences, and the Office of Advanced Scientific Computing.


           Job information
           ---------------

    hostname        = smp-n17.sam.pitt.edu
    program         = /ihome/kjordan/shu8/software/source/nwchem/nwchem-7.0.0/bin/LINUX64/nwchem
    date            = Mon Aug  2 10:34:36 2021

    compiled        = Wed_May_13_13:33:26_2020
    source          = /ihome/kjordan/shu8/software/source/nwchem/nwchem-7.0.0
    nwchem branch   = 7.0.0
    nwchem revision = N/A
    ga revision     = 5.7.1
    use scalapack   = F
    input           = dvb_ir.nw
    prefix          = dvb.
    data base       = ./dvb.db
    status          = startup
    nproc           =        4
    time left       =     -1s



           Memory information
           ------------------

    heap     =   13107196 doubles =    100.0 Mbytes
    stack    =   13107201 doubles =    100.0 Mbytes
    global   =   26214400 doubles =    200.0 Mbytes (distinct from heap & stack)
    total    =   52428797 doubles =    400.0 Mbytes
    verify   = yes
    hardfail = no 


           Directory information
           ---------------------
 
  0 permanent = .
  0 scratch   = .
 
 
 
 
                                NWChem Input Module
                                -------------------
 
 
                        Divinylbenzene in STO-3G basis set
                        ----------------------------------

 Scaling coordinates for geometry "geometry" by  1.889725989
 (inverse scale =  0.529177249)

 C2H symmetry detected

          ------
          auto-z
          ------
  no constraints, skipping   0.000000000000000E+000
  no constraints, skipping   0.000000000000000E+000
 
 
                             Geometry "geometry" -> ""
                             -------------------------
 
 Output coordinates in angstroms (scale by  1.889725989 to convert to a.u.)
 
  No.       Tag          Charge          X              Y              Z
 ---- ---------------- ---------- -------------- -------------- --------------
    1 C                    6.0000     0.23680554     1.41416660     0.00000000
    2 C                    6.0000    -0.23680554    -1.41416660     0.00000000
    3 C                    6.0000     1.31675086     0.48901061     0.00000000
    4 C                    6.0000    -1.31675086    -0.48901061     0.00000000
    5 C                    6.0000     1.08679847    -0.89447642     0.00000000
    6 C                    6.0000    -1.08679847     0.89447642     0.00000000
    7 H                    1.0000     2.34780221     0.86863451     0.00000000
    8 H                    1.0000    -2.34780221    -0.86863451     0.00000000
    9 H                    1.0000     1.93764188    -1.58693865     0.00000000
   10 H                    1.0000    -1.93764188     1.58693865     0.00000000
   11 C                    6.0000    -0.53450789    -2.88212824     0.00000000
   12 C                    6.0000     0.53450789     2.88212824     0.00000000
   13 H                    1.0000    -1.60655769    -3.13289308     0.00000000
   14 H                    1.0000     1.60655769     3.13289308     0.00000000
   15 C                    6.0000     0.36419263    -3.88177971     0.00000000
   16 C                    6.0000    -0.36419263     3.88177971     0.00000000
   17 H                    1.0000     1.44522900    -3.70144241     0.00000000
   18 H                    1.0000    -1.44522900     3.70144241     0.00000000
   19 H                    1.0000     0.04815351    -4.93192286     0.00000000
   20 H                    1.0000    -0.04815351     4.93192286     0.00000000
 
      Atomic Mass 
      ----------- 
 
      C                 12.000000
      H                  1.007825
 

 Effective nuclear repulsion energy (a.u.)     445.9370121674

            Nuclear Dipole moment (a.u.) 
            ----------------------------
        X                 Y               Z
 ---------------- ---------------- ----------------
     0.0000000000     0.0000000000     0.0000000000
 
      Symmetry information
      --------------------
 
 Group name             C2h       
 Group number             21
 Group order               4
 No. of unique centers    10
 
      Symmetry unique atoms
 
     1    3    5    7    9   11   13   15   17   19
 


                                Z-matrix (autoz)
                                -------- 

 Units are Angstrom for bonds and degrees for angles
 
      Type          Name      I     J     K     L     M      Value
      ----------- --------  ----- ----- ----- ----- ----- ----------
    1 Stretch                  1     3                       1.42204
    2 Stretch                  1     6                       1.42197
    3 Stretch                  1    12                       1.49784
    4 Stretch                  2     4                       1.42204
    5 Stretch                  2     5                       1.42197
    6 Stretch                  2    11                       1.49784
    7 Stretch                  3     5                       1.40247
    8 Stretch                  3     7                       1.09872
    9 Stretch                  4     6                       1.40247
   10 Stretch                  4     8                       1.09872
   11 Stretch                  5     9                       1.09701
   12 Stretch                  6    10                       1.09701
   13 Stretch                 11    13                       1.10099
   14 Stretch                 11    15                       1.34423
   15 Stretch                 12    14                       1.10099
   16 Stretch                 12    16                       1.34423
   17 Stretch                 15    17                       1.09597
   18 Stretch                 15    19                       1.09667
   19 Stretch                 16    18                       1.09597
   20 Stretch                 16    20                       1.09667
   21 Bend                     1     3     5               121.14867
   22 Bend                     1     3     7               119.20109
   23 Bend                     1     6     4               120.87358
   24 Bend                     1     6    10               119.42285
   25 Bend                     1    12    14               114.62953
   26 Bend                     1    12    16               126.57992
   27 Bend                     2     4     6               121.14867
   28 Bend                     2     4     8               119.20109
   29 Bend                     2     5     3               120.87358
   30 Bend                     2     5     9               119.42285
   31 Bend                     2    11    13               114.62953
   32 Bend                     2    11    15               126.57992
   33 Bend                     3     1     6               117.97776
   34 Bend                     3     1    12               119.12155
   35 Bend                     3     5     9               119.70357
   36 Bend                     4     2     5               117.97776
   37 Bend                     4     2    11               119.12155
   38 Bend                     4     6    10               119.70357
   39 Bend                     5     2    11               122.90069
   40 Bend                     5     3     7               119.65024
   41 Bend                     6     1    12               122.90069
   42 Bend                     6     4     8               119.65024
   43 Bend                    11    15    17               122.48517
   44 Bend                    11    15    19               121.29492
   45 Bend                    12    16    18               122.48517
   46 Bend                    12    16    20               121.29492
   47 Bend                    13    11    15               118.79054
   48 Bend                    14    12    16               118.79054
   49 Bend                    17    15    19               116.21990
   50 Bend                    18    16    20               116.21990
   51 Torsion                  1     3     5     2           0.00000
   52 Torsion                  1     3     5     9         180.00000
   53 Torsion                  1     6     4     2           0.00000
   54 Torsion                  1     6     4     8         180.00000
   55 Torsion                  1    12    16    18           0.00000
   56 Torsion                  1    12    16    20         180.00000
   57 Torsion                  2     4     6    10         180.00000
   58 Torsion                  2     5     3     7         180.00000
   59 Torsion                  2    11    15    17           0.00000
   60 Torsion                  2    11    15    19         180.00000
   61 Torsion                  3     1     6     4           0.00000
   62 Torsion                  3     1     6    10         180.00000
   63 Torsion                  3     1    12    14           0.00000
   64 Torsion                  3     1    12    16         180.00000
   65 Torsion                  3     5     2     4           0.00000
   66 Torsion                  3     5     2    11         180.00000
   67 Torsion                  4     2     5     9         180.00000
   68 Torsion                  4     2    11    13           0.00000
   69 Torsion                  4     2    11    15         180.00000
   70 Torsion                  4     6     1    12         180.00000
   71 Torsion                  5     2     4     6           0.00000
   72 Torsion                  5     2     4     8         180.00000
   73 Torsion                  5     2    11    13         180.00000
   74 Torsion                  5     2    11    15           0.00000
   75 Torsion                  5     3     1     6           0.00000
   76 Torsion                  5     3     1    12         180.00000
   77 Torsion                  6     1     3     7         180.00000
   78 Torsion                  6     1    12    14         180.00000
   79 Torsion                  6     1    12    16           0.00000
   80 Torsion                  6     4     2    11         180.00000
   81 Torsion                  7     3     1    12           0.00000
   82 Torsion                  7     3     5     9           0.00000
   83 Torsion                  8     4     2    11           0.00000
   84 Torsion                  8     4     6    10           0.00000
   85 Torsion                  9     5     2    11           0.00000
   86 Torsion                 10     6     1    12           0.00000
   87 Torsion                 13    11    15    17         180.00000
   88 Torsion                 13    11    15    19           0.00000
   89 Torsion                 14    12    16    18         180.00000
   90 Torsion                 14    12    16    20           0.00000
 
 
            XYZ format geometry
            -------------------
    20
 geometry
 C                     0.23680554     1.41416660     0.00000000
 C                    -0.23680554    -1.41416660     0.00000000
 C                     1.31675086     0.48901061     0.00000000
 C                    -1.31675086    -0.48901061     0.00000000
 C                     1.08679847    -0.89447642     0.00000000
 C                    -1.08679847     0.89447642     0.00000000
 H                     2.34780221     0.86863451     0.00000000
 H                    -2.34780221    -0.86863451     0.00000000
 H                     1.93764188    -1.58693865     0.00000000
 H                    -1.93764188     1.58693865     0.00000000
 C                    -0.53450789    -2.88212824     0.00000000
 C                     0.53450789     2.88212824     0.00000000
 H                    -1.60655769    -3.13289308     0.00000000
 H                     1.60655769     3.13289308     0.00000000
 C                     0.36419263    -3.88177971     0.00000000
 C                    -0.36419263     3.88177971     0.00000000
 H                     1.44522900    -3.70144241     0.00000000
 H                    -1.44522900     3.70144241     0.00000000
 H                     0.04815351    -4.93192286     0.00000000
 H                    -0.04815351     4.93192286     0.00000000
 
 ==============================================================================
                                internuclear distances
 ------------------------------------------------------------------------------
       center one      |      center two      | atomic units |  angstroms
 ------------------------------------------------------------------------------
    3 C                |   1 C                |     2.68726  |     1.42204
    4 C                |   2 C                |     2.68726  |     1.42204
    5 C                |   2 C                |     2.68714  |     1.42197
    5 C                |   3 C                |     2.65028  |     1.40247
    6 C                |   1 C                |     2.68714  |     1.42197
    6 C                |   4 C                |     2.65028  |     1.40247
    7 H                |   3 C                |     2.07628  |     1.09872
    8 H                |   4 C                |     2.07628  |     1.09872
    9 H                |   5 C                |     2.07305  |     1.09701
   10 H                |   6 C                |     2.07305  |     1.09701
   11 C                |   2 C                |     2.83052  |     1.49784
   12 C                |   1 C                |     2.83052  |     1.49784
   13 H                |  11 C                |     2.08056  |     1.10099
   14 H                |  12 C                |     2.08056  |     1.10099
   15 C                |  11 C                |     2.54023  |     1.34423
   16 C                |  12 C                |     2.54023  |     1.34423
   17 H                |  15 C                |     2.07109  |     1.09597
   18 H                |  16 C                |     2.07109  |     1.09597
   19 H                |  15 C                |     2.07240  |     1.09667
   20 H                |  16 C                |     2.07240  |     1.09667
 ------------------------------------------------------------------------------
                         number of included internuclear distances:         20
 ==============================================================================



 ==============================================================================
                                 internuclear angles
 ------------------------------------------------------------------------------
        center 1       |       center 2       |       center 3       |  degrees
 ------------------------------------------------------------------------------
    3 C                |   1 C                |   6 C                |   117.98
    3 C                |   1 C                |  12 C                |   119.12
    6 C                |   1 C                |  12 C                |   122.90
    4 C                |   2 C                |   5 C                |   117.98
    4 C                |   2 C                |  11 C                |   119.12
    5 C                |   2 C                |  11 C                |   122.90
    1 C                |   3 C                |   5 C                |   121.15
    1 C                |   3 C                |   7 H                |   119.20
    5 C                |   3 C                |   7 H                |   119.65
    2 C                |   4 C                |   6 C                |   121.15
    2 C                |   4 C                |   8 H                |   119.20
    6 C                |   4 C                |   8 H                |   119.65
    2 C                |   5 C                |   3 C                |   120.87
    2 C                |   5 C                |   9 H                |   119.42
    3 C                |   5 C                |   9 H                |   119.70
    1 C                |   6 C                |   4 C                |   120.87
    1 C                |   6 C                |  10 H                |   119.42
    4 C                |   6 C                |  10 H                |   119.70
    2 C                |  11 C                |  13 H                |   114.63
    2 C                |  11 C                |  15 C                |   126.58
   13 H                |  11 C                |  15 C                |   118.79
    1 C                |  12 C                |  14 H                |   114.63
    1 C                |  12 C                |  16 C                |   126.58
   14 H                |  12 C                |  16 C                |   118.79
   11 C                |  15 C                |  17 H                |   122.49
   11 C                |  15 C                |  19 H                |   121.29
   17 H                |  15 C                |  19 H                |   116.22
   12 C                |  16 C                |  18 H                |   122.49
   12 C                |  16 C                |  20 H                |   121.29
   18 H                |  16 C                |  20 H                |   116.22
 ------------------------------------------------------------------------------
                            number of included internuclear angles:         30
 ==============================================================================





 Summary of "ao basis" -> "" (cartesian)
 ------------------------------------------------------------------------------
       Tag                 Description            Shells   Functions and Types
 ---------------- ------------------------------  ------  ---------------------
 *                           sto-3g                   on all atoms 


 
                                 NWChem DFT Module
                                 -----------------
 
 
                        Divinylbenzene in STO-3G basis set
 
 
                      Basis "ao basis" -> "ao basis" (cartesian)
                      -----
  C (Carbon)
  ----------
            Exponent  Coefficients 
       -------------- ---------------------------------------------------------
  1 S  7.16168370E+01  0.154329
  1 S  1.30450960E+01  0.535328
  1 S  3.53051220E+00  0.444635
 
  2 S  2.94124940E+00 -0.099967
  2 S  6.83483100E-01  0.399513
  2 S  2.22289900E-01  0.700115
 
  3 P  2.94124940E+00  0.155916
  3 P  6.83483100E-01  0.607684
  3 P  2.22289900E-01  0.391957
 
  H (Hydrogen)
  ------------
            Exponent  Coefficients 
       -------------- ---------------------------------------------------------
  1 S  3.42525091E+00  0.154329
  1 S  6.23913730E-01  0.535328
  1 S  1.68855400E-01  0.444635
 


 Summary of "ao basis" -> "ao basis" (cartesian)
 ------------------------------------------------------------------------------
       Tag                 Description            Shells   Functions and Types
 ---------------- ------------------------------  ------  ---------------------
 C                           sto-3g                  3        5   2s1p
 H                           sto-3g                  1        1   1s




 Summary of "ao basis" -> "ao basis" (cartesian)
 ------------------------------------------------------------------------------
       Tag                 Description            Shells   Functions and Types
 ---------------- ------------------------------  ------  ---------------------
 C                           sto-3g                  3        5   2s1p
 H                           sto-3g                  1        1   1s


      Symmetry analysis of basis
      --------------------------
 
        ag         25
        au          5
        bg          5
        bu         25
 
  Caching 1-el integrals 
 
            General Information
            -------------------
          SCF calculation type: DFT
          Wavefunction type:  closed shell.
          No. of atoms     :    20
          No. of electrons :    70
           Alpha electrons :    35
            Beta electrons :    35
          Charge           :     0
          Spin multiplicity:     1
          Use of symmetry is: on ; symmetry adaption is: on 
          Maximum number of iterations: 120
          This is a Direct SCF calculation.
          AO basis - number of functions:    60
                     number of shells:    40
          Convergence on energy requested:  1.00D-06
          Convergence on density requested:  1.00D-05
          Convergence on gradient requested:  5.00D-04
 
              XC Information
              --------------
                         B3LYP Method XC Potential
                     Hartree-Fock (Exact) Exchange  0.200          
                        Slater Exchange Functional  0.800 local    
                    Becke 1988 Exchange Functional  0.720 non-local
              Lee-Yang-Parr Correlation Functional  0.810          
                  VWN I RPA Correlation Functional  0.190 local    
 
             Grid Information
             ----------------
          Grid used for XC integration:  fine      
          Radial quadrature: Mura-Knowles        
          Angular quadrature: Lebedev. 
          Tag              B.-S. Rad. Rad. Pts. Rad. Cut. Ang. Pts.
          ---              ---------- --------- --------- ---------
          C                   0.70       70          13.0       590
          H                   0.35       60          13.0       590
          Grid pruning is: on 
          Number of quadrature shells:   650
          Spatial weights used:  Erf1
 
          Convergence Information
          -----------------------
          Convergence aids based upon iterative change in 
          total energy or number of iterations. 
          Levelshifting, if invoked, occurs when the 
          HOMO/LUMO gap drops below (HL_TOL):  1.00D-02
          DIIS, if invoked, will attempt to extrapolate 
          using up to (NFOCK): 10 stored Fock matrices.

                    Damping( 0%)  Levelshifting(0.5)       DIIS
                  --------------- ------------------- ---------------
          dE  on:    start            ASAP                start   
          dE off:    2 iters        120 iters           120 iters 

 
      Screening Tolerance Information
      -------------------------------
          Density screening/tol_rho:  1.00D-10
          AO Gaussian exp screening on grid/accAOfunc:  14
          CD Gaussian exp screening on grid/accCDfunc:  20
          XC Gaussian exp screening on grid/accXCfunc:  20
          Schwarz screening/accCoul:  1.00D-08

 
      Superposition of Atomic Density Guess
      -------------------------------------
 
 Sum of atomic energies:        -376.44825176
 
      Non-variational initial energy
      ------------------------------

 Total energy =    -379.429467
 1-e energy   =   -1401.451096
 2-e energy   =     576.084617
 HOMO         =      -0.037645
 LUMO         =       0.163723
 
 
      Symmetry analysis of molecular orbitals - initial
      -------------------------------------------------
 
  Numbering of irreducible representations: 
 
     1 ag          2 au          3 bg          4 bu      
 
  Orbital symmetries:
 
     1 ag          2 bu          3 ag          4 bu          5 bu      
     6 ag          7 bu          8 ag          9 bu         10 ag      
    11 ag         12 bu         13 ag         14 bu         15 bu      
    16 ag         17 ag         18 bu         19 ag         20 ag      
    21 bu         22 bu         23 ag         24 bu         25 bu      
    26 ag         27 bu         28 au         29 bu         30 ag      
    31 ag         32 bg         33 au         34 bg         35 bg      
    36 au         37 au         38 bg         39 au         40 bg      
    41 ag         42 bu         43 bu         44 ag         45 bu      
 
   Time after variat. SCF:      0.2
   Time prior to 1st pass:      0.2

 Grid_pts file          = ./dvb.gridpts.0
 Record size in doubles =  12289        No. of grid_pts per rec  =   3070
 Max. records in memory =     36        Max. recs in file   =   2708490

 Grid integrated density:      69.999986137672
 Requested integration accuracy:   0.10E-06

           Memory utilization after 1st SCF pass: 
           Heap Space remaining (MW):       12.66            12661300
          Stack Space remaining (MW):       13.11            13106284

   convergence    iter        energy       DeltaE   RMS-Dens  Diis-err    time
 ---------------- ----- ----------------- --------- --------- ---------  ------
 d= 0,ls=0.0,diis     1   -382.2544268093 -8.28D+02  1.42D-02  3.78D-01     0.8
 Grid integrated density:      69.999985909173
 Requested integration accuracy:   0.10E-06
 d= 0,ls=0.0,diis     2   -382.3017244973 -4.73D-02  6.99D-03  3.82D-02     1.1
 Grid integrated density:      69.999985779738
 Requested integration accuracy:   0.10E-06
 d= 0,ls=0.0,diis     3   -382.2954325913  6.29D-03  4.21D-03  7.95D-02     1.5
 Grid integrated density:      69.999985851075
 Requested integration accuracy:   0.10E-06
 d= 0,ls=0.0,diis     4   -382.3080980885 -1.27D-02  5.18D-04  8.80D-04     2.0
 Grid integrated density:      69.999985853412
 Requested integration accuracy:   0.10E-06
 d= 0,ls=0.0,diis     5   -382.3082344529 -1.36D-04  1.18D-04  4.46D-05     2.4
 Grid integrated density:      69.999985849933
 Requested integration accuracy:   0.10E-06
  Resetting Diis
 d= 0,ls=0.0,diis     6   -382.3082405905 -6.14D-06  3.18D-05  3.09D-06     2.8
 Grid integrated density:      69.999985850347
 Requested integration accuracy:   0.10E-06
 d= 0,ls=0.0,diis     7   -382.3082410673 -4.77D-07  1.42D-05  1.61D-07     3.2
 Grid integrated density:      69.999985850447
 Requested integration accuracy:   0.10E-06
 d= 0,ls=0.0,diis     8   -382.3082410648  2.54D-09  7.54D-06  1.77D-07     3.6


         Total DFT energy =     -382.308241064755
      One electron energy =    -1400.645112583539
           Coulomb energy =      630.242752436138
    Exchange-Corr. energy =      -57.842893084801
 Nuclear repulsion energy =      445.937012167446

 Numeric. integr. density =       69.999985850447

     Total iterative time =      3.4s


 
                  Occupations of the irreducible representations
                  ----------------------------------------------
 
                     irrep           alpha         beta
                     --------     --------     --------
                     ag               15.0         15.0
                     au                2.0          2.0
                     bg                3.0          3.0
                     bu               15.0         15.0
 
 
                       DFT Final Molecular Orbital Analysis
                       ------------------------------------
 
 Vector    1  Occ=2.000000D+00  E=-1.002024D+01  Symmetry=bu
              MO Center=  5.9D-12,  3.5D-11, -5.2D-33, r^2= 2.1D+00
   Bfn.  Coefficient  Atom+Function         Bfn.  Coefficient  Atom+Function  
  ----- ------------  ---------------      ----- ------------  ---------------
     1      0.699304   1 C  s                 6     -0.699304   2 C  s         
     2      0.031560   1 C  s                 7     -0.031560   2 C  s         
    35      0.026964  11 C  s                40     -0.026964  12 C  s         
 
 Vector    2  Occ=2.000000D+00  E=-1.002019D+01  Symmetry=ag
              MO Center= -5.9D-12, -3.5D-11,  4.3D-43, r^2= 2.1D+00
   Bfn.  Coefficient  Atom+Function         Bfn.  Coefficient  Atom+Function  
  ----- ------------  ---------------      ----- ------------  ---------------
     1      0.699301   1 C  s                 6      0.699301   2 C  s         
     2      0.031352   1 C  s                 7      0.031352   2 C  s         
    35     -0.027328  11 C  s                40     -0.027328  12 C  s         
 
 Vector    3  Occ=2.000000D+00  E=-1.000793D+01  Symmetry=bu
              MO Center= -1.3D-17, -7.4D-16,  5.1D-50, r^2= 8.6D+00
   Bfn.  Coefficient  Atom+Function         Bfn.  Coefficient  Atom+Function  
  ----- ------------  ---------------      ----- ------------  ---------------
    35      0.699780  11 C  s                40     -0.699780  12 C  s         
    36      0.030781  11 C  s                41     -0.030781  12 C  s         
     1     -0.027417   1 C  s                 6      0.027417   2 C  s         
 
 Vector    4  Occ=2.000000D+00  E=-1.000793D+01  Symmetry=ag
              MO Center= -3.3D-14, -8.2D-14,  8.5D-19, r^2= 8.6D+00
   Bfn.  Coefficient  Atom+Function         Bfn.  Coefficient  Atom+Function  
  ----- ------------  ---------------      ----- ------------  ---------------
    35      0.699695  11 C  s                40      0.699695  12 C  s         
    36      0.030762  11 C  s                41      0.030762  12 C  s         
     1      0.027650   1 C  s                 6      0.027650   2 C  s         
 
 Vector    5  Occ=2.000000D+00  E=-1.000689D+01  Symmetry=ag
              MO Center= -3.2D-10,  1.0D-10, -2.2D-19, r^2= 2.0D+00
   Bfn.  Coefficient  Atom+Function         Bfn.  Coefficient  Atom+Function  
  ----- ------------  ---------------      ----- ------------  ---------------
    21      0.546492   5 C  s                26      0.546492   6 C  s         
    11     -0.437412   3 C  s                16     -0.437412   4 C  s         
    22      0.028154   5 C  s                27      0.028154   6 C  s         
 
 Vector    6  Occ=2.000000D+00  E=-1.000688D+01  Symmetry=bu
              MO Center=  3.2D-10, -1.0D-10,  1.2D-28, r^2= 2.0D+00
   Bfn.  Coefficient  Atom+Function         Bfn.  Coefficient  Atom+Function  
  ----- ------------  ---------------      ----- ------------  ---------------
    21      0.555977   5 C  s                26     -0.555977   6 C  s         
    11     -0.424192   3 C  s                16      0.424192   4 C  s         
     1     -0.028676   1 C  s                 6      0.028676   2 C  s         
    22      0.028655   5 C  s                27     -0.028655   6 C  s         
 
 Vector    7  Occ=2.000000D+00  E=-1.000624D+01  Symmetry=bu
              MO Center=  1.1D-11, -1.1D-12,  9.4D-30, r^2= 2.0D+00
   Bfn.  Coefficient  Atom+Function         Bfn.  Coefficient  Atom+Function  
  ----- ------------  ---------------      ----- ------------  ---------------
    11      0.556948   3 C  s                16     -0.556948   4 C  s         
    21      0.425503   5 C  s                26     -0.425503   6 C  s         
 
 Vector    8  Occ=2.000000D+00  E=-1.000609D+01  Symmetry=ag
              MO Center= -1.2D-11,  3.3D-13,  7.1D-34, r^2= 2.0D+00
   Bfn.  Coefficient  Atom+Function         Bfn.  Coefficient  Atom+Function  
  ----- ------------  ---------------      ----- ------------  ---------------
    11      0.546602   3 C  s                16      0.546602   4 C  s         
    21      0.437646   5 C  s                26      0.437646   6 C  s         
     1      0.029442   1 C  s                 6      0.029442   2 C  s         
 
 Vector    9  Occ=2.000000D+00  E=-9.992164D+00  Symmetry=bu
              MO Center=  3.6D-16, -1.2D-15, -1.2D-33, r^2= 1.5D+01
   Bfn.  Coefficient  Atom+Function         Bfn.  Coefficient  Atom+Function  
  ----- ------------  ---------------      ----- ------------  ---------------
    47      0.700479  15 C  s                52     -0.700479  16 C  s         
    48      0.030860  15 C  s                53     -0.030860  16 C  s         
 
 Vector   10  Occ=2.000000D+00  E=-9.992163D+00  Symmetry=ag
              MO Center= -8.0D-17,  1.1D-15, -1.8D-34, r^2= 1.5D+01
   Bfn.  Coefficient  Atom+Function         Bfn.  Coefficient  Atom+Function  
  ----- ------------  ---------------      ----- ------------  ---------------
    47      0.700478  15 C  s                52      0.700478  16 C  s         
    48      0.030860  15 C  s                53      0.030860  16 C  s         
 
 Vector   11  Occ=2.000000D+00  E=-8.094663D-01  Symmetry=ag
              MO Center= -1.5D-17, -1.0D-17,  2.2D-33, r^2= 3.0D+00
   Bfn.  Coefficient  Atom+Function         Bfn.  Coefficient  Atom+Function  
  ----- ------------  ---------------      ----- ------------  ---------------
     2      0.274703   1 C  s                 7      0.274703   2 C  s         
    12      0.247016   3 C  s                17      0.247016   4 C  s         
    22      0.246689   5 C  s                27      0.246689   6 C  s         
    36      0.127807  11 C  s                41      0.127807  12 C  s         
     1     -0.107859   1 C  s                 6     -0.107859   2 C  s         
 
 Vector   12  Occ=2.000000D+00  E=-7.539347D-01  Symmetry=bu
              MO Center=  1.5D-17,  2.6D-17,  9.7D-34, r^2= 7.8D+00
   Bfn.  Coefficient  Atom+Function         Bfn.  Coefficient  Atom+Function  
  ----- ------------  ---------------      ----- ------------  ---------------
    36     -0.297169  11 C  s                41      0.297169  12 C  s         
     2      0.273787   1 C  s                 7     -0.273787   2 C  s         
    48     -0.209312  15 C  s                53      0.209312  16 C  s         
    35      0.113817  11 C  s                40     -0.113817  12 C  s         
    22     -0.112555   5 C  s                27      0.112555   6 C  s         
 
 Vector   13  Occ=2.000000D+00  E=-7.178615D-01  Symmetry=ag
              MO Center=  2.7D-15, -1.4D-14,  1.4D-17, r^2= 1.1D+01
   Bfn.  Coefficient  Atom+Function         Bfn.  Coefficient  Atom+Function  
  ----- ------------  ---------------      ----- ------------  ---------------
    36      0.314817  11 C  s                41      0.314817  12 C  s         
    48      0.309767  15 C  s                53      0.309767  16 C  s         
    12     -0.121456   3 C  s                17     -0.121456   4 C  s         
    35     -0.119239  11 C  s                40     -0.119239  12 C  s         
    47     -0.117464  15 C  s                52     -0.117464  16 C  s         
 
 Vector   14  Occ=2.000000D+00  E=-6.999224D-01  Symmetry=bu
              MO Center= -2.8D-15,  3.2D-17, -2.4D-26, r^2= 3.2D+00
   Bfn.  Coefficient  Atom+Function         Bfn.  Coefficient  Atom+Function  
  ----- ------------  ---------------      ----- ------------  ---------------
    12      0.357134   3 C  s                17     -0.357134   4 C  s         
    22      0.323904   5 C  s                27     -0.323904   6 C  s         
    11     -0.132324   3 C  s                16      0.132324   4 C  s         
     3      0.124986   1 C  px                8      0.124986   2 C  px        
    21     -0.120093   5 C  s                26      0.120093   6 C  s         
 
 Vector   15  Occ=2.000000D+00  E=-6.673151D-01  Symmetry=bu
              MO Center= -8.5D-16,  1.3D-14, -6.8D-27, r^2= 9.1D+00
   Bfn.  Coefficient  Atom+Function         Bfn.  Coefficient  Atom+Function  
  ----- ------------  ---------------      ----- ------------  ---------------
    48      0.299508  15 C  s                53     -0.299508  16 C  s         
     2      0.274066   1 C  s                 7     -0.274066   2 C  s         
    22     -0.202279   5 C  s                27      0.202279   6 C  s         
    36      0.136846  11 C  s                41     -0.136846  12 C  s         
    38     -0.129053  11 C  py               43     -0.129053  12 C  py        
 
 Vector   16  Occ=2.000000D+00  E=-5.885093D-01  Symmetry=ag
              MO Center= -2.5D-15, -3.1D-15, -1.8D-17, r^2= 8.4D+00
   Bfn.  Coefficient  Atom+Function         Bfn.  Coefficient  Atom+Function  
  ----- ------------  ---------------      ----- ------------  ---------------
    48      0.241407  15 C  s                53      0.241407  16 C  s         
    22      0.233815   5 C  s                27      0.233815   6 C  s         
     2     -0.206378   1 C  s                 7     -0.206378   2 C  s         
    14     -0.160007   3 C  py               19      0.160007   4 C  py        
    36     -0.159613  11 C  s                41     -0.159613  12 C  s         
 
 Vector   17  Occ=2.000000D+00  E=-5.591515D-01  Symmetry=ag
              MO Center= -1.1D-14,  1.2D-15, -2.7D-17, r^2= 5.1D+00
   Bfn.  Coefficient  Atom+Function         Bfn.  Coefficient  Atom+Function  
  ----- ------------  ---------------      ----- ------------  ---------------
    12      0.326033   3 C  s                17      0.326033   4 C  s         
     3      0.184865   1 C  px                8     -0.184865   2 C  px        
    22     -0.170745   5 C  s                24      0.170444   5 C  py        
    27     -0.170745   6 C  s                29     -0.170444   6 C  py        
    31      0.169234   7 H  s                32      0.169234   8 H  s         
 
 Vector   18  Occ=2.000000D+00  E=-5.314209D-01  Symmetry=bu
              MO Center= -7.6D-16,  1.2D-14,  2.8D-26, r^2= 1.2D+01
   Bfn.  Coefficient  Atom+Function         Bfn.  Coefficient  Atom+Function  
  ----- ------------  ---------------      ----- ------------  ---------------
    36      0.302766  11 C  s                41     -0.302766  12 C  s         
    48     -0.249165  15 C  s                53      0.249165  16 C  s         
    45      0.170519  13 H  s                46     -0.170519  14 H  s         
    57     -0.160626  17 H  s                58      0.160626  18 H  s         
    12      0.154466   3 C  s                17     -0.154466   4 C  s         
 
 Vector   19  Occ=2.000000D+00  E=-5.099374D-01  Symmetry=ag
              MO Center=  1.1D-15, -3.5D-15, -3.6D-17, r^2= 7.5D+00
   Bfn.  Coefficient  Atom+Function         Bfn.  Coefficient  Atom+Function  
  ----- ------------  ---------------      ----- ------------  ---------------
    23      0.201895   5 C  px               28     -0.201895   6 C  px        
    13      0.184492   3 C  px               18     -0.184492   4 C  px        
    36      0.180760  11 C  s                41      0.180760  12 C  s         
    33      0.169279   9 H  s                34      0.169279  10 H  s         
    22      0.166023   5 C  s                27      0.166023   6 C  s         
 
 Vector   20  Occ=2.000000D+00  E=-4.575994D-01  Symmetry=ag
              MO Center= -1.6D-16, -3.1D-15, -5.6D-33, r^2= 9.5D+00
   Bfn.  Coefficient  Atom+Function         Bfn.  Coefficient  Atom+Function  
  ----- ------------  ---------------      ----- ------------  ---------------
    49      0.212730  15 C  px               54     -0.212730  16 C  px        
    38      0.184649  11 C  py               43     -0.184649  12 C  py        
    57      0.179111  17 H  s                58      0.179111  18 H  s         
    45     -0.153094  13 H  s                46     -0.153094  14 H  s         
    14      0.141384   3 C  py               19     -0.141384   4 C  py        
 
 Vector   21  Occ=2.000000D+00  E=-4.391973D-01  Symmetry=bu
              MO Center=  1.2D-15,  3.6D-15,  4.1D-32, r^2= 1.0D+01
   Bfn.  Coefficient  Atom+Function         Bfn.  Coefficient  Atom+Function  
  ----- ------------  ---------------      ----- ------------  ---------------
    37      0.219233  11 C  px               42      0.219233  12 C  px        
    50      0.210290  15 C  py               55      0.210290  16 C  py        
    14      0.184960   3 C  py               19      0.184960   4 C  py        
    59     -0.178127  19 H  s                60      0.178127  20 H  s         
    45     -0.155495  13 H  s                46      0.155495  14 H  s         
 
 Vector   22  Occ=2.000000D+00  E=-4.110182D-01  Symmetry=bu
              MO Center=  9.1D-16, -3.2D-14, -5.7D-23, r^2= 6.8D+00
   Bfn.  Coefficient  Atom+Function         Bfn.  Coefficient  Atom+Function  
  ----- ------------  ---------------      ----- ------------  ---------------
     2      0.235309   1 C  s                 7     -0.235309   2 C  s         
    33      0.230466   9 H  s                34     -0.230466  10 H  s         
    31     -0.226657   7 H  s                32      0.226657   8 H  s         
    13     -0.222260   3 C  px               18     -0.222260   4 C  px        
    24     -0.177972   5 C  py               29     -0.177972   6 C  py        
 
 Vector   23  Occ=2.000000D+00  E=-3.976933D-01  Symmetry=bu
              MO Center= -6.8D-15,  8.9D-14,  6.7D-23, r^2= 8.7D+00
   Bfn.  Coefficient  Atom+Function         Bfn.  Coefficient  Atom+Function  
  ----- ------------  ---------------      ----- ------------  ---------------
    23      0.251236   5 C  px               28      0.251236   6 C  px        
    49      0.250512  15 C  px               54      0.250512  16 C  px        
     3     -0.220827   1 C  px                8     -0.220827   2 C  px        
    57      0.215415  17 H  s                58     -0.215415  18 H  s         
    38      0.181487  11 C  py               43      0.181487  12 C  py        
 
 Vector   24  Occ=2.000000D+00  E=-3.959385D-01  Symmetry=ag
              MO Center=  2.5D-14, -8.1D-14, -8.2D-17, r^2= 1.5D+01
   Bfn.  Coefficient  Atom+Function         Bfn.  Coefficient  Atom+Function  
  ----- ------------  ---------------      ----- ------------  ---------------
    50      0.338998  15 C  py               55     -0.338998  16 C  py        
    59     -0.262595  19 H  s                60     -0.262595  20 H  s         
    37      0.251492  11 C  px               42     -0.251492  12 C  px        
    45     -0.145063  13 H  s                46     -0.145063  14 H  s         
    24      0.136713   5 C  py               29     -0.136713   6 C  py        
 
 Vector   25  Occ=2.000000D+00  E=-3.744296D-01  Symmetry=bu
              MO Center= -2.9D-15,  5.1D-15,  8.7D-24, r^2= 4.4D+00
   Bfn.  Coefficient  Atom+Function         Bfn.  Coefficient  Atom+Function  
  ----- ------------  ---------------      ----- ------------  ---------------
    13      0.307586   3 C  px               18      0.307586   4 C  px        
    31      0.252268   7 H  s                32     -0.252268   8 H  s         
    24     -0.226087   5 C  py               29     -0.226087   6 C  py        
    33      0.218183   9 H  s                34     -0.218183  10 H  s         
    23      0.188063   5 C  px               28      0.188063   6 C  px        
 
 Vector   26  Occ=2.000000D+00  E=-3.509366D-01  Symmetry=bu
              MO Center= -2.6D-15, -2.1D-15,  2.8D-24, r^2= 9.0D+00
   Bfn.  Coefficient  Atom+Function         Bfn.  Coefficient  Atom+Function  
  ----- ------------  ---------------      ----- ------------  ---------------
    50     -0.245677  15 C  py               55     -0.245677  16 C  py        
    14      0.224345   3 C  py               19      0.224345   4 C  py        
    37     -0.201678  11 C  px               42     -0.201678  12 C  px        
    24     -0.193258   5 C  py               29     -0.193258   6 C  py        
    38      0.187744  11 C  py               43      0.187744  12 C  py        
 
 Vector   27  Occ=2.000000D+00  E=-3.470152D-01  Symmetry=ag
              MO Center=  5.9D-16,  1.8D-14, -1.8D-16, r^2= 1.2D+01
   Bfn.  Coefficient  Atom+Function         Bfn.  Coefficient  Atom+Function  
  ----- ------------  ---------------      ----- ------------  ---------------
    49      0.295189  15 C  px               54     -0.295189  16 C  px        
    57      0.268012  17 H  s                58      0.268012  18 H  s         
    37     -0.208878  11 C  px               42      0.208878  12 C  px        
    45      0.200233  13 H  s                46      0.200233  14 H  s         
    31     -0.156471   7 H  s                32     -0.156471   8 H  s         
 
 Vector   28  Occ=2.000000D+00  E=-3.244703D-01  Symmetry=au
              MO Center=  2.5D-16,  1.4D-15,  3.8D-16, r^2= 3.6D+00
   Bfn.  Coefficient  Atom+Function         Bfn.  Coefficient  Atom+Function  
  ----- ------------  ---------------      ----- ------------  ---------------
     5      0.337608   1 C  pz               10      0.337608   2 C  pz        
    15      0.297979   3 C  pz               20      0.297979   4 C  pz        
    25      0.297169   5 C  pz               30      0.297169   6 C  pz        
    39      0.173947  11 C  pz               44      0.173947  12 C  pz        
    51      0.092442  15 C  pz               56      0.092442  16 C  pz        
 
 Vector   29  Occ=2.000000D+00  E=-3.110646D-01  Symmetry=bu
              MO Center= -4.5D-16, -4.2D-15,  9.8D-25, r^2= 1.2D+01
   Bfn.  Coefficient  Atom+Function         Bfn.  Coefficient  Atom+Function  
  ----- ------------  ---------------      ----- ------------  ---------------
    45      0.259102  13 H  s                46     -0.259102  14 H  s         
     4      0.241973   1 C  py                9      0.241973   2 C  py        
    57      0.231030  17 H  s                58     -0.231030  18 H  s         
    37     -0.217250  11 C  px               42     -0.217250  12 C  px        
    59     -0.212334  19 H  s                60      0.212334  20 H  s         
 
 Vector   30  Occ=2.000000D+00  E=-2.929834D-01  Symmetry=ag
              MO Center=  2.3D-16,  1.1D-15,  1.7D-16, r^2= 6.1D+00
   Bfn.  Coefficient  Atom+Function         Bfn.  Coefficient  Atom+Function  
  ----- ------------  ---------------      ----- ------------  ---------------
    14     -0.278184   3 C  py               19      0.278184   4 C  py        
     4      0.268398   1 C  py                9     -0.268398   2 C  py        
    38      0.248141  11 C  py               43     -0.248141  12 C  py        
    33     -0.240411   9 H  s                34     -0.240411  10 H  s         
    24      0.234450   5 C  py               29     -0.234450   6 C  py        
 
 Vector   31  Occ=2.000000D+00  E=-2.874967D-01  Symmetry=ag
              MO Center= -2.3D-16, -4.8D-16,  2.8D-18, r^2= 6.2D+00
   Bfn.  Coefficient  Atom+Function         Bfn.  Coefficient  Atom+Function  
  ----- ------------  ---------------      ----- ------------  ---------------
     3      0.295855   1 C  px                8     -0.295855   2 C  px        
    23      0.280599   5 C  px               28     -0.280599   6 C  px        
    31     -0.258071   7 H  s                32     -0.258071   8 H  s         
    13     -0.222116   3 C  px               18      0.222116   4 C  px        
    45     -0.182739  13 H  s                46     -0.182739  14 H  s         
 
 Vector   32  Occ=2.000000D+00  E=-2.634558D-01  Symmetry=bg
              MO Center= -5.6D-16, -1.4D-14,  2.8D-18, r^2= 7.8D+00
   Bfn.  Coefficient  Atom+Function         Bfn.  Coefficient  Atom+Function  
  ----- ------------  ---------------      ----- ------------  ---------------
    39     -0.376480  11 C  pz               44      0.376480  12 C  pz        
     5      0.348964   1 C  pz               10     -0.348964   2 C  pz        
    51     -0.271399  15 C  pz               56      0.271399  16 C  pz        
    15      0.131647   3 C  pz               20     -0.131647   4 C  pz        
    25     -0.132107   5 C  pz               30      0.132107   6 C  pz        
 
 Vector   33  Occ=2.000000D+00  E=-2.123364D-01  Symmetry=au
              MO Center= -4.0D-15,  1.8D-14, -2.6D-16, r^2= 1.1D+01
   Bfn.  Coefficient  Atom+Function         Bfn.  Coefficient  Atom+Function  
  ----- ------------  ---------------      ----- ------------  ---------------
    51      0.417961  15 C  pz               56      0.417961  16 C  pz        
    39      0.413781  11 C  pz               44      0.413781  12 C  pz        
    15     -0.179205   3 C  pz               20     -0.179205   4 C  pz        
    25     -0.176633   5 C  pz               30     -0.176633   6 C  pz        
 
 Vector   34  Occ=2.000000D+00  E=-1.951683D-01  Symmetry=bg
              MO Center=  4.8D-15, -3.5D-16,  1.7D-19, r^2= 2.7D+00
   Bfn.  Coefficient  Atom+Function         Bfn.  Coefficient  Atom+Function  
  ----- ------------  ---------------      ----- ------------  ---------------
    15      0.463626   3 C  pz               20     -0.463626   4 C  pz        
    25      0.457537   5 C  pz               30     -0.457537   6 C  pz        
 
 Vector   35  Occ=2.000000D+00  E=-1.529966D-01  Symmetry=bg
              MO Center= -4.2D-17, -4.2D-15,  3.4D-18, r^2= 8.1D+00
   Bfn.  Coefficient  Atom+Function         Bfn.  Coefficient  Atom+Function  
  ----- ------------  ---------------      ----- ------------  ---------------
    51      0.397372  15 C  pz               56     -0.397372  16 C  pz        
     5      0.387554   1 C  pz               10     -0.387554   2 C  pz        
    25     -0.230744   5 C  pz               30      0.230744   6 C  pz        
    39      0.223675  11 C  pz               44     -0.223675  12 C  pz        
    15      0.215068   3 C  pz               20     -0.215068   4 C  pz        
 
 Vector   36  Occ=0.000000D+00  E= 3.750915D-02  Symmetry=au
              MO Center=  6.7D-17,  5.2D-15, -2.7D-17, r^2= 8.0D+00
   Bfn.  Coefficient  Atom+Function         Bfn.  Coefficient  Atom+Function  
  ----- ------------  ---------------      ----- ------------  ---------------
    51     -0.449614  15 C  pz               56     -0.449614  16 C  pz        
     5      0.442670   1 C  pz               10      0.442670   2 C  pz        
    25     -0.277553   5 C  pz               30     -0.277553   6 C  pz        
    39      0.256133  11 C  pz               44      0.256133  12 C  pz        
    15     -0.232265   3 C  pz               20     -0.232265   4 C  pz        
 
 Vector   37  Occ=0.000000D+00  E= 9.011730D-02  Symmetry=au
              MO Center= -3.3D-16,  1.1D-16,  1.1D-17, r^2= 2.7D+00
   Bfn.  Coefficient  Atom+Function         Bfn.  Coefficient  Atom+Function  
  ----- ------------  ---------------      ----- ------------  ---------------
    15      0.582692   3 C  pz               20      0.582692   4 C  pz        
    25     -0.553237   5 C  pz               30     -0.553237   6 C  pz        
     5     -0.031922   1 C  pz               10     -0.031922   2 C  pz        
 
 Vector   38  Occ=0.000000D+00  E= 1.107279D-01  Symmetry=bg
              MO Center=  1.2D-15, -3.4D-15, -5.3D-18, r^2= 1.1D+01
   Bfn.  Coefficient  Atom+Function         Bfn.  Coefficient  Atom+Function  
  ----- ------------  ---------------      ----- ------------  ---------------
    39      0.522167  11 C  pz               44     -0.522167  12 C  pz        
    51     -0.523103  15 C  pz               56      0.523103  16 C  pz        
    15      0.240693   3 C  pz               20     -0.240693   4 C  pz        
    25     -0.232246   5 C  pz               30      0.232246   6 C  pz        
 
 Vector   39  Occ=0.000000D+00  E= 1.822016D-01  Symmetry=au
              MO Center= -4.1D-16, -3.6D-15, -2.5D-17, r^2= 7.9D+00
   Bfn.  Coefficient  Atom+Function         Bfn.  Coefficient  Atom+Function  
  ----- ------------  ---------------      ----- ------------  ---------------
    39     -0.529134  11 C  pz               44     -0.529134  12 C  pz        
     5      0.497218   1 C  pz               10      0.497218   2 C  pz        
    51      0.379694  15 C  pz               56      0.379694  16 C  pz        
    25     -0.199198   5 C  pz               30     -0.199198   6 C  pz        
    15     -0.166739   3 C  pz               20     -0.166739   4 C  pz        
 
 Vector   40  Occ=0.000000D+00  E= 2.723015D-01  Symmetry=bg
              MO Center= -8.6D-16,  9.2D-16, -2.1D-18, r^2= 3.8D+00
   Bfn.  Coefficient  Atom+Function         Bfn.  Coefficient  Atom+Function  
  ----- ------------  ---------------      ----- ------------  ---------------
     5      0.543477   1 C  pz               10     -0.543477   2 C  pz        
    25      0.466878   5 C  pz               30     -0.466878   6 C  pz        
    15     -0.464184   3 C  pz               20      0.464184   4 C  pz        
    39      0.287732  11 C  pz               44     -0.287732  12 C  pz        
    51     -0.156154  15 C  pz               56      0.156154  16 C  pz        
 
 Vector   41  Occ=0.000000D+00  E= 3.324846D-01  Symmetry=ag
              MO Center= -2.7D-15, -4.4D-15,  2.4D-17, r^2= 8.8D+00
   Bfn.  Coefficient  Atom+Function         Bfn.  Coefficient  Atom+Function  
  ----- ------------  ---------------      ----- ------------  ---------------
    33     -0.423791   9 H  s                34     -0.423791  10 H  s         
    31     -0.413780   7 H  s                32     -0.413780   8 H  s         
     2      0.401566   1 C  s                 7      0.401566   2 C  s         
    59     -0.358542  19 H  s                60     -0.358542  20 H  s         
    38     -0.338104  11 C  py               43      0.338104  12 C  py        
 
 Vector   42  Occ=0.000000D+00  E= 3.406448D-01  Symmetry=bu
              MO Center=  3.1D-15, -5.0D-15,  1.1D-18, r^2= 1.0D+01
   Bfn.  Coefficient  Atom+Function         Bfn.  Coefficient  Atom+Function  
  ----- ------------  ---------------      ----- ------------  ---------------
    45      0.433826  13 H  s                46     -0.433826  14 H  s         
    13      0.355437   3 C  px               18      0.355437   4 C  px        
    37      0.344559  11 C  px               42      0.344559  12 C  px        
    31     -0.321888   7 H  s                32      0.321888   8 H  s         
    57     -0.323132  17 H  s                58      0.323132  18 H  s         
 
 Vector   43  Occ=0.000000D+00  E= 3.795217D-01  Symmetry=bu
              MO Center= -1.7D-15,  9.9D-16, -2.2D-19, r^2= 7.8D+00
   Bfn.  Coefficient  Atom+Function         Bfn.  Coefficient  Atom+Function  
  ----- ------------  ---------------      ----- ------------  ---------------
    36      0.546122  11 C  s                41     -0.546122  12 C  s         
     4      0.461528   1 C  py                9      0.461528   2 C  py        
    33      0.405566   9 H  s                34     -0.405566  10 H  s         
    59      0.351694  19 H  s                60     -0.351694  20 H  s         
     2      0.338383   1 C  s                 7     -0.338383   2 C  s         
 
 Vector   44  Occ=0.000000D+00  E= 3.812896D-01  Symmetry=ag
              MO Center=  1.3D-15,  8.3D-15, -3.5D-18, r^2= 1.2D+01
   Bfn.  Coefficient  Atom+Function         Bfn.  Coefficient  Atom+Function  
  ----- ------------  ---------------      ----- ------------  ---------------
    45      0.579606  13 H  s                46      0.579606  14 H  s         
    12      0.393532   3 C  s                17      0.393532   4 C  s         
    57     -0.391438  17 H  s                58     -0.391438  18 H  s         
    36     -0.382166  11 C  s                41     -0.382166  12 C  s         
    37      0.338368  11 C  px               42     -0.338368  12 C  px        
 
 Vector   45  Occ=0.000000D+00  E= 4.103423D-01  Symmetry=ag
              MO Center=  3.0D-13, -8.9D-13,  3.6D-17, r^2= 1.1D+01
   Bfn.  Coefficient  Atom+Function         Bfn.  Coefficient  Atom+Function  
  ----- ------------  ---------------      ----- ------------  ---------------
    48      0.647346  15 C  s                53      0.647346  16 C  s         
    22      0.620081   5 C  s                27      0.620081   6 C  s         
    57     -0.513316  17 H  s                58     -0.513316  18 H  s         
    12     -0.443647   3 C  s                17     -0.443647   4 C  s         
    59     -0.320789  19 H  s                60     -0.320789  20 H  s         
 
 Vector   46  Occ=0.000000D+00  E= 4.112340D-01  Symmetry=bu
              MO Center= -3.0D-13,  8.9D-13, -4.4D-19, r^2= 1.1D+01
   Bfn.  Coefficient  Atom+Function         Bfn.  Coefficient  Atom+Function  
  ----- ------------  ---------------      ----- ------------  ---------------
    22      0.613160   5 C  s                27     -0.613160   6 C  s         
    48      0.539734  15 C  s                53     -0.539734  16 C  s         
     2      0.476221   1 C  s                 7     -0.476221   2 C  s         
    57     -0.447812  17 H  s                58      0.447812  18 H  s         
    12     -0.440665   3 C  s                17      0.440665   4 C  s         
 
 Vector   47  Occ=0.000000D+00  E= 4.258027D-01  Symmetry=bu
              MO Center=  4.8D-15,  1.3D-14, -7.9D-20, r^2= 9.2D+00
   Bfn.  Coefficient  Atom+Function         Bfn.  Coefficient  Atom+Function  
  ----- ------------  ---------------      ----- ------------  ---------------
    31      0.603109   7 H  s                32     -0.603109   8 H  s         
    36     -0.446799  11 C  s                41      0.446799  12 C  s         
    45      0.437140  13 H  s                46     -0.437140  14 H  s         
    12     -0.368676   3 C  s                17      0.368676   4 C  s         
    59      0.337701  19 H  s                60     -0.337701  20 H  s         
 
 Vector   48  Occ=0.000000D+00  E= 4.393598D-01  Symmetry=ag
              MO Center= -7.1D-15, -3.2D-15,  4.4D-17, r^2= 7.5D+00
   Bfn.  Coefficient  Atom+Function         Bfn.  Coefficient  Atom+Function  
  ----- ------------  ---------------      ----- ------------  ---------------
     2      0.782302   1 C  s                 7      0.782302   2 C  s         
    36     -0.556789  11 C  s                41     -0.556789  12 C  s         
    12     -0.499654   3 C  s                17     -0.499654   4 C  s         
    22     -0.411571   5 C  s                27     -0.411571   6 C  s         
    48      0.409894  15 C  s                53      0.409894  16 C  s         
 
 Vector   49  Occ=0.000000D+00  E= 4.537209D-01  Symmetry=bu
              MO Center= -7.5D-15,  9.6D-15,  5.7D-18, r^2= 1.2D+01
   Bfn.  Coefficient  Atom+Function         Bfn.  Coefficient  Atom+Function  
  ----- ------------  ---------------      ----- ------------  ---------------
    48      0.706725  15 C  s                53     -0.706725  16 C  s         
    57     -0.525561  17 H  s                58      0.525561  18 H  s         
    33      0.477111   9 H  s                34     -0.477111  10 H  s         
    36     -0.428993  11 C  s                41      0.428993  12 C  s         
    22     -0.407164   5 C  s                27      0.407164   6 C  s         
 
 Vector   50  Occ=0.000000D+00  E= 4.783352D-01  Symmetry=ag
              MO Center=  6.9D-15, -1.3D-14, -8.4D-18, r^2= 1.1D+01
   Bfn.  Coefficient  Atom+Function         Bfn.  Coefficient  Atom+Function  
  ----- ------------  ---------------      ----- ------------  ---------------
    12      0.706221   3 C  s                17      0.706221   4 C  s         
    22     -0.619399   5 C  s                27     -0.619399   6 C  s         
    59     -0.475184  19 H  s                60     -0.475184  20 H  s         
    48      0.415039  15 C  s                53      0.415039  16 C  s         
    50     -0.382619  15 C  py               55      0.382619  16 C  py        
 
 Vector   51  Occ=0.000000D+00  E= 5.255622D-01  Symmetry=ag
              MO Center=  1.0D-15, -8.1D-15,  1.8D-17, r^2= 6.5D+00
   Bfn.  Coefficient  Atom+Function         Bfn.  Coefficient  Atom+Function  
  ----- ------------  ---------------      ----- ------------  ---------------
     4      0.601872   1 C  py                9     -0.601872   2 C  py        
    36     -0.491669  11 C  s                41     -0.491669  12 C  s         
    13     -0.452502   3 C  px               18      0.452502   4 C  px        
     2     -0.448702   1 C  s                 7     -0.448702   2 C  s         
    49     -0.342028  15 C  px               54      0.342028  16 C  px        
 
 Vector   52  Occ=0.000000D+00  E= 5.463504D-01  Symmetry=bu
              MO Center= -2.9D-15,  4.5D-16,  2.0D-19, r^2= 7.7D+00
   Bfn.  Coefficient  Atom+Function         Bfn.  Coefficient  Atom+Function  
  ----- ------------  ---------------      ----- ------------  ---------------
    12      0.647800   3 C  s                17     -0.647800   4 C  s         
     3     -0.560730   1 C  px                8     -0.560730   2 C  px        
    50      0.483440  15 C  py               55      0.483440  16 C  py        
    24     -0.478220   5 C  py               29     -0.478220   6 C  py        
    59      0.356006  19 H  s                60     -0.356006  20 H  s         
 
 Vector   53  Occ=0.000000D+00  E= 5.764361D-01  Symmetry=ag
              MO Center= -3.4D-15, -4.2D-15, -1.9D-17, r^2= 5.4D+00
   Bfn.  Coefficient  Atom+Function         Bfn.  Coefficient  Atom+Function  
  ----- ------------  ---------------      ----- ------------  ---------------
    13      0.537124   3 C  px               18     -0.537124   4 C  px        
    23     -0.522141   5 C  px               28      0.522141   6 C  px        
    33      0.519103   9 H  s                34      0.519103  10 H  s         
    31     -0.448310   7 H  s                32     -0.448310   8 H  s         
    24      0.400193   5 C  py               29     -0.400193   6 C  py        
 
 Vector   54  Occ=0.000000D+00  E= 5.984382D-01  Symmetry=bu
              MO Center=  2.7D-15,  3.4D-15, -3.7D-18, r^2= 4.8D+00
   Bfn.  Coefficient  Atom+Function         Bfn.  Coefficient  Atom+Function  
  ----- ------------  ---------------      ----- ------------  ---------------
    14      0.723029   3 C  py               19      0.723029   4 C  py        
    22      0.599921   5 C  s                27     -0.599921   6 C  s         
    36     -0.415409  11 C  s                41      0.415409  12 C  s         
     2     -0.405910   1 C  s                 7      0.405910   2 C  s         
    24      0.394225   5 C  py               29      0.394225   6 C  py        
 
 Vector   55  Occ=0.000000D+00  E= 6.248974D-01  Symmetry=bu
              MO Center=  1.7D-15,  6.3D-15, -1.5D-18, r^2= 1.1D+01
   Bfn.  Coefficient  Atom+Function         Bfn.  Coefficient  Atom+Function  
  ----- ------------  ---------------      ----- ------------  ---------------
     2      0.608534   1 C  s                 7     -0.608534   2 C  s         
    49     -0.528890  15 C  px               54     -0.528890  16 C  px        
    38      0.480659  11 C  py               43      0.480659  12 C  py        
    23     -0.365995   5 C  px               28     -0.365995   6 C  px        
    57      0.363288  17 H  s                58     -0.363288  18 H  s         
 
 Vector   56  Occ=0.000000D+00  E= 6.398338D-01  Symmetry=ag
              MO Center=  1.2D-15, -1.8D-14, -2.4D-17, r^2= 9.4D+00
   Bfn.  Coefficient  Atom+Function         Bfn.  Coefficient  Atom+Function  
  ----- ------------  ---------------      ----- ------------  ---------------
    37      0.549268  11 C  px               42     -0.549268  12 C  px        
    50     -0.534300  15 C  py               55      0.534300  16 C  py        
    14      0.383479   3 C  py               19     -0.383479   4 C  py        
     4     -0.364575   1 C  py                9      0.364575   2 C  py        
    59     -0.330751  19 H  s                60     -0.330751  20 H  s         
 
 Vector   57  Occ=0.000000D+00  E= 6.828367D-01  Symmetry=ag
              MO Center=  1.9D-15,  3.2D-14,  1.7D-18, r^2= 9.3D+00
   Bfn.  Coefficient  Atom+Function         Bfn.  Coefficient  Atom+Function  
  ----- ------------  ---------------      ----- ------------  ---------------
    38      0.663092  11 C  py               43     -0.663092  12 C  py        
    49     -0.580411  15 C  px               54      0.580411  16 C  px        
    24     -0.449232   5 C  py               29      0.449232   6 C  py        
    14     -0.392088   3 C  py               19      0.392088   4 C  py        
     4     -0.381671   1 C  py                9      0.381671   2 C  py        
 
 Vector   58  Occ=0.000000D+00  E= 7.173572D-01  Symmetry=bu
              MO Center= -1.5D-15, -2.3D-14,  1.1D-20, r^2= 9.6D+00
   Bfn.  Coefficient  Atom+Function         Bfn.  Coefficient  Atom+Function  
  ----- ------------  ---------------      ----- ------------  ---------------
    37      0.608023  11 C  px               42      0.608023  12 C  px        
    48     -0.538018  15 C  s                50     -0.540483  15 C  py        
    53      0.538018  16 C  s                55     -0.540483  16 C  py        
    36      0.466540  11 C  s                38     -0.464871  11 C  py        
    41     -0.466540  12 C  s                43     -0.464871  12 C  py        
 
 Vector   59  Occ=0.000000D+00  E= 7.790413D-01  Symmetry=ag
              MO Center= -4.4D-16,  1.7D-15,  9.3D-19, r^2= 5.4D+00
   Bfn.  Coefficient  Atom+Function         Bfn.  Coefficient  Atom+Function  
  ----- ------------  ---------------      ----- ------------  ---------------
     3      0.702431   1 C  px                8     -0.702431   2 C  px        
    14     -0.534058   3 C  py               19      0.534058   4 C  py        
    23     -0.435986   5 C  px               28      0.435986   6 C  px        
    37      0.429836  11 C  px               42     -0.429836  12 C  px        
    24     -0.411036   5 C  py               29      0.411036   6 C  py        
 
 Vector   60  Occ=0.000000D+00  E= 7.942618D-01  Symmetry=bu
              MO Center=  4.2D-16,  3.2D-15, -2.0D-22, r^2= 3.4D+00
   Bfn.  Coefficient  Atom+Function         Bfn.  Coefficient  Atom+Function  
  ----- ------------  ---------------      ----- ------------  ---------------
     4      0.657694   1 C  py                9      0.657694   2 C  py        
    13     -0.568326   3 C  px               18     -0.568326   4 C  px        
    23      0.496519   5 C  px               28      0.496519   6 C  px        
    22     -0.413798   5 C  s                27      0.413798   6 C  s         
    24     -0.395895   5 C  py               29     -0.395895   6 C  py        
 

 center of mass
 --------------
 x =   0.00000000 y =   0.00000000 z =   0.00000000

 moments of inertia (a.u.)
 ------------------
        2631.731379210398          -0.000000000000           0.000000000000
          -0.000000000000         390.819001468288           0.000000000000
           0.000000000000           0.000000000000        3022.550380678686
 
     Multipole analysis of the density
     ---------------------------------
 
     L   x y z        total         alpha         beta         nuclear
     -   - - -        -----         -----         ----         -------
     0   0 0 0     -0.000000    -35.000000    -35.000000     70.000000
 
     1   1 0 0      0.000000      0.000000      0.000000      0.000000
     1   0 1 0     -0.000000     -0.000000     -0.000000      0.000000
     1   0 0 1      0.000000      0.000000      0.000000      0.000000
 
     2   2 0 0    -37.347176   -141.071524   -141.071524    244.795872
     2   1 1 0      0.066522      2.848775      2.848775     -5.631027
     2   1 0 1      0.000000      0.000000      0.000000      0.000000
     2   0 2 0    -37.714761   -767.339030   -767.339030   1496.963300
     2   0 1 1      0.000000      0.000000      0.000000      0.000000
     2   0 0 2    -43.587344    -21.793672    -21.793672      0.000000
 

 Task  times  cpu:        3.5s     wall:        3.7s
 
 
                                NWChem Input Module
                                -------------------
 
 
                              NWChem Property Module
                              ----------------------
 
 
                        Divinylbenzene in STO-3G basis set
 
 
                                 NWChem DFT Module
                                 -----------------
 
 
                        Divinylbenzene in STO-3G basis set
 
 


 Summary of "ao basis" -> "ao basis" (cartesian)
 ------------------------------------------------------------------------------
       Tag                 Description            Shells   Functions and Types
 ---------------- ------------------------------  ------  ---------------------
 C                           sto-3g                  3        5   2s1p
 H                           sto-3g                  1        1   1s


      Symmetry analysis of basis
      --------------------------
 
        ag         25
        au          5
        bg          5
        bu         25
 
  Caching 1-el integrals 
 
            General Information
            -------------------
          SCF calculation type: DFT
          Wavefunction type:  closed shell.
          No. of atoms     :    20
          No. of electrons :    70
           Alpha electrons :    35
            Beta electrons :    35
          Charge           :     0
          Spin multiplicity:     1
          Use of symmetry is: on ; symmetry adaption is: on 
          Maximum number of iterations: 120
          This is a Direct SCF calculation.
          AO basis - number of functions:    60
                     number of shells:    40
          Convergence on energy requested:  1.00D-07
          Convergence on density requested:  1.00D-05
          Convergence on gradient requested:  5.00D-04
 
              XC Information
              --------------
                         B3LYP Method XC Potential
                     Hartree-Fock (Exact) Exchange  0.200          
                        Slater Exchange Functional  0.800 local    
                    Becke 1988 Exchange Functional  0.720 non-local
              Lee-Yang-Parr Correlation Functional  0.810          
                  VWN I RPA Correlation Functional  0.190 local    
 
             Grid Information
             ----------------
          Grid used for XC integration:  fine      
          Radial quadrature: Mura-Knowles        
          Angular quadrature: Lebedev. 
          Tag              B.-S. Rad. Rad. Pts. Rad. Cut. Ang. Pts.
          ---              ---------- --------- --------- ---------
          C                   0.70       70          13.0       590
          H                   0.35       60          13.0       590
          Grid pruning is: on 
          Number of quadrature shells:   650
          Spatial weights used:  Erf1
 
          Convergence Information
          -----------------------
          Convergence aids based upon iterative change in 
          total energy or number of iterations. 
          Levelshifting, if invoked, occurs when the 
          HOMO/LUMO gap drops below (HL_TOL):  1.00D-02
          DIIS, if invoked, will attempt to extrapolate 
          using up to (NFOCK): 10 stored Fock matrices.

                    Damping( 0%)  Levelshifting(0.5)       DIIS
                  --------------- ------------------- ---------------
          dE  on:    start            ASAP                start   
          dE off:    2 iters        120 iters           120 iters 

 
      Screening Tolerance Information
      -------------------------------
          Density screening/tol_rho:  1.00D-11
          AO Gaussian exp screening on grid/accAOfunc:  16
          CD Gaussian exp screening on grid/accCDfunc:  20
          XC Gaussian exp screening on grid/accXCfunc:  20
          Schwarz screening/accCoul:  1.00D-08


 Loading old vectors from job with title :

Divinylbenzene in STO-3G basis set

 
      Symmetry analysis of molecular orbitals - initial
      -------------------------------------------------
 
  Numbering of irreducible representations: 
 
     1 ag          2 au          3 bg          4 bu      
 
  Orbital symmetries:
 
     1 bu          2 ag          3 bu          4 ag          5 ag      
     6 bu          7 bu          8 ag          9 bu         10 ag      
    11 ag         12 bu         13 ag         14 bu         15 bu      
    16 ag         17 ag         18 bu         19 ag         20 ag      
    21 bu         22 bu         23 bu         24 ag         25 bu      
    26 bu         27 ag         28 au         29 bu         30 ag      
    31 ag         32 bg         33 au         34 bg         35 bg      
    36 au         37 au         38 bg         39 au         40 bg      
    41 ag         42 bu         43 bu         44 ag         45 ag      
 
   Time after variat. SCF:      3.8
   Time prior to 1st pass:      3.8

 Grid_pts file          = ./dvb.gridpts.0
 Record size in doubles =  12289        No. of grid_pts per rec  =   3070
 Max. records in memory =     36        Max. recs in file   =   2708480

 Grid integrated density:      69.999985820918
 Requested integration accuracy:   0.10E-06

           Memory utilization after 1st SCF pass: 
           Heap Space remaining (MW):       12.66            12661300
          Stack Space remaining (MW):       13.11            13106284

   convergence    iter        energy       DeltaE   RMS-Dens  Diis-err    time
 ---------------- ----- ----------------- --------- --------- ---------  ------
 d= 0,ls=0.0,diis     1   -382.3082410796 -8.28D+02  2.51D-06  4.81D-09     4.4
 Grid integrated density:      69.999985820953
 Requested integration accuracy:   0.10E-06
 d= 0,ls=0.0,diis     2   -382.3082410784  1.18D-09  1.64D-06  1.24D-08     4.8


         Total DFT energy =     -382.308241078404
      One electron energy =    -1400.644981599696
           Coulomb energy =      630.242633700093
    Exchange-Corr. energy =      -57.842905346248
 Nuclear repulsion energy =      445.937012167446

 Numeric. integr. density =       69.999985820953

     Total iterative time =      1.1s


 
                  Occupations of the irreducible representations
                  ----------------------------------------------
 
                     irrep           alpha         beta
                     --------     --------     --------
                     ag               15.0         15.0
                     au                2.0          2.0
                     bg                3.0          3.0
                     bu               15.0         15.0
 
 
                       DFT Final Molecular Orbital Analysis
                       ------------------------------------
 
 Vector    1  Occ=2.000000D+00  E=-1.002023D+01  Symmetry=bu
              MO Center= -5.3D-13, -3.2D-12,  1.2D-33, r^2= 2.1D+00
   Bfn.  Coefficient  Atom+Function         Bfn.  Coefficient  Atom+Function  
  ----- ------------  ---------------      ----- ------------  ---------------
     1      0.699302   1 C  s                 6     -0.699302   2 C  s         
     2      0.031561   1 C  s                 7     -0.031561   2 C  s         
    35      0.027009  11 C  s                40     -0.027009  12 C  s         
 
 Vector    2  Occ=2.000000D+00  E=-1.002018D+01  Symmetry=ag
              MO Center=  5.4D-13,  3.2D-12,  2.2D-23, r^2= 2.1D+00
   Bfn.  Coefficient  Atom+Function         Bfn.  Coefficient  Atom+Function  
  ----- ------------  ---------------      ----- ------------  ---------------
     1      0.699298   1 C  s                 6      0.699298   2 C  s         
     2      0.031353   1 C  s                 7      0.031353   2 C  s         
    35     -0.027373  11 C  s                40     -0.027373  12 C  s         
 
 Vector    3  Occ=2.000000D+00  E=-1.000794D+01  Symmetry=bu
              MO Center=  6.1D-10,  3.3D-09, -1.9D-28, r^2= 8.6D+00
   Bfn.  Coefficient  Atom+Function         Bfn.  Coefficient  Atom+Function  
  ----- ------------  ---------------      ----- ------------  ---------------
    35      0.699780  11 C  s                40     -0.699780  12 C  s         
    36      0.030780  11 C  s                41     -0.030780  12 C  s         
     1     -0.027467   1 C  s                 6      0.027467   2 C  s         
 
 Vector    4  Occ=2.000000D+00  E=-1.000794D+01  Symmetry=ag
              MO Center= -6.1D-10, -3.3D-09,  6.8D-19, r^2= 8.6D+00
   Bfn.  Coefficient  Atom+Function         Bfn.  Coefficient  Atom+Function  
  ----- ------------  ---------------      ----- ------------  ---------------
    35      0.699695  11 C  s                40      0.699695  12 C  s         
    36      0.030762  11 C  s                41      0.030762  12 C  s         
     1      0.027699   1 C  s                 6      0.027699   2 C  s         
 
 Vector    5  Occ=2.000000D+00  E=-1.000689D+01  Symmetry=ag
              MO Center= -1.3D-09,  4.1D-10, -8.7D-19, r^2= 2.0D+00
   Bfn.  Coefficient  Atom+Function         Bfn.  Coefficient  Atom+Function  
  ----- ------------  ---------------      ----- ------------  ---------------
    21      0.542930   5 C  s                26      0.542930   6 C  s         
    11     -0.441824   3 C  s                16     -0.441824   4 C  s         
    22      0.028039   5 C  s                27      0.028039   6 C  s         
 
 Vector    6  Occ=2.000000D+00  E=-1.000689D+01  Symmetry=bu
              MO Center=  1.3D-09, -4.0D-10,  9.0D-28, r^2= 2.0D+00
   Bfn.  Coefficient  Atom+Function         Bfn.  Coefficient  Atom+Function  
  ----- ------------  ---------------      ----- ------------  ---------------
    21      0.551779   5 C  s                26     -0.551779   6 C  s         
    11     -0.429634   3 C  s                16      0.429634   4 C  s         
     1     -0.028726   1 C  s                 6      0.028726   2 C  s         
    22      0.028520   5 C  s                27     -0.028520   6 C  s         
 
 Vector    7  Occ=2.000000D+00  E=-1.000624D+01  Symmetry=bu
              MO Center=  6.0D-12, -3.7D-12,  6.1D-32, r^2= 2.0D+00
   Bfn.  Coefficient  Atom+Function         Bfn.  Coefficient  Atom+Function  
  ----- ------------  ---------------      ----- ------------  ---------------
    11      0.552761   3 C  s                16     -0.552761   4 C  s         
    21      0.430935   5 C  s                26     -0.430935   6 C  s         
 
 Vector    8  Occ=2.000000D+00  E=-1.000610D+01  Symmetry=ag
              MO Center= -6.9D-12, -9.6D-13,  2.9D-34, r^2= 2.0D+00
   Bfn.  Coefficient  Atom+Function         Bfn.  Coefficient  Atom+Function  
  ----- ------------  ---------------      ----- ------------  ---------------
    11      0.543041   3 C  s                16      0.543041   4 C  s         
    21      0.442061   5 C  s                26      0.442061   6 C  s         
     1      0.029487   1 C  s                 6      0.029487   2 C  s         
 
 Vector    9  Occ=2.000000D+00  E=-9.992165D+00  Symmetry=bu
              MO Center=  1.8D-16, -5.3D-16, -4.9D-32, r^2= 1.5D+01
   Bfn.  Coefficient  Atom+Function         Bfn.  Coefficient  Atom+Function  
  ----- ------------  ---------------      ----- ------------  ---------------
    47      0.700479  15 C  s                52     -0.700479  16 C  s         
    48      0.030860  15 C  s                53     -0.030860  16 C  s         
 
 Vector   10  Occ=2.000000D+00  E=-9.992165D+00  Symmetry=ag
[...]
          55    -0.17115    -0.17149    -0.14249    -0.14273     0.02993    -0.02946
          56    -0.03740    -0.03904    -0.45480    -0.45520     0.09575    -0.09440
          57     0.00000     0.00000     0.00000    -0.00000     0.00000     0.00000
          58     0.17115    -0.17149    -0.14249     0.14273     0.02993     0.02945
          59     0.03740    -0.03904    -0.45479     0.45520     0.09578     0.09437
          60     0.00000    -0.00000     0.00000    -0.00000    -0.00000     0.00000

                   55          56          57          58          59          60
 
 P.Frequency     3447.87     3451.34     3471.33     3474.29     3546.61     3546.66
 
           1     0.00118     0.00257     0.00372    -0.00146     0.00015    -0.00016
           2    -0.00216    -0.00161    -0.00002    -0.00203    -0.00032     0.00032
           3    -0.00000     0.00000     0.00000    -0.00000     0.00000     0.00000
           4     0.00118    -0.00257     0.00372     0.00146     0.00015     0.00016
           5    -0.00216     0.00161    -0.00002     0.00203    -0.00032    -0.00032
           6    -0.00000     0.00000     0.00000    -0.00000     0.00000     0.00000
           7    -0.05177    -0.05188    -0.02223    -0.02228    -0.00003     0.00008
           8    -0.01792    -0.01832    -0.01128    -0.01081     0.00003     0.00007
           9     0.00000     0.00000     0.00000    -0.00000     0.00000     0.00000
          10    -0.05177     0.05188    -0.02223     0.02228    -0.00003    -0.00008
          11    -0.01792     0.01832    -0.01128     0.01081     0.00003    -0.00007
          12    -0.00000     0.00000    -0.00000    -0.00000     0.00000     0.00000
          13     0.01904     0.01825    -0.04225    -0.04266     0.00032     0.00039
          14    -0.01192    -0.01191     0.03626     0.03640    -0.00026    -0.00034
          15     0.00000    -0.00000     0.00000     0.00000     0.00000    -0.00000
          16     0.01904    -0.01825    -0.04225     0.04266     0.00032    -0.00039
          17    -0.01192     0.01191     0.03626    -0.03640    -0.00026     0.00034
          18    -0.00000    -0.00000    -0.00000     0.00000    -0.00000    -0.00000
          19     0.58129     0.58292     0.24577     0.24107    -0.00016    -0.00055
          20     0.21357     0.21460     0.09203     0.08960     0.00005    -0.00023
          21    -0.00000    -0.00000     0.00000    -0.00000    -0.00000     0.00000
          22     0.58129    -0.58292     0.24577    -0.24107    -0.00016     0.00055
          23     0.21357    -0.21460     0.09203    -0.08960     0.00005     0.00023
          24     0.00000    -0.00000     0.00000    -0.00000     0.00000    -0.00000
          25    -0.20606    -0.20188     0.47837     0.47998    -0.00500    -0.00579
          26     0.16661     0.16428    -0.39217    -0.39321     0.00366     0.00433
          27    -0.00000    -0.00000    -0.00000     0.00000    -0.00000    -0.00000
          28    -0.20606     0.20189     0.47837    -0.47998    -0.00500     0.00579
          29     0.16661    -0.16428    -0.39217     0.39321     0.00366    -0.00433
          30     0.00000     0.00000     0.00000     0.00000     0.00000    -0.00000
          31     0.00192    -0.00209    -0.00005    -0.00069     0.00316     0.00316
          32     0.00028    -0.00041     0.00015    -0.00003     0.00067     0.00067
          33     0.00000     0.00000    -0.00000     0.00000     0.00000    -0.00000
          34     0.00192     0.00209    -0.00005     0.00069     0.00316    -0.00316
          35     0.00028     0.00041     0.00015     0.00003     0.00067    -0.00067
          36     0.00000    -0.00000     0.00000     0.00000    -0.00000    -0.00000
          37    -0.02038     0.02367    -0.00257     0.00519    -0.03651    -0.03647
          38    -0.00350     0.00486    -0.00116    -0.00008    -0.00653    -0.00653
          39     0.00000    -0.00000     0.00000     0.00000     0.00000     0.00000
          40    -0.02038    -0.02367    -0.00257    -0.00519    -0.03651     0.03647
          41    -0.00350    -0.00486    -0.00116     0.00008    -0.00653     0.00653
          42    -0.00000    -0.00000     0.00000     0.00000     0.00000     0.00000
          43    -0.00006     0.00030     0.00022     0.00039     0.05034     0.05034
          44    -0.00053    -0.00071     0.00095     0.00089     0.04415     0.04414
          45     0.00000     0.00000     0.00000    -0.00000    -0.00000    -0.00000
          46    -0.00006    -0.00030     0.00022    -0.00039     0.05034    -0.05034
          47    -0.00053     0.00071     0.00095    -0.00089     0.04415    -0.04414
          48     0.00000     0.00000    -0.00000    -0.00000    -0.00000     0.00000
          49    -0.00361    -0.00515     0.00292     0.00074    -0.46701    -0.46710
          50    -0.00087    -0.00110     0.00091     0.00053    -0.07798    -0.07800
          51    -0.00000     0.00000    -0.00000     0.00000    -0.00000     0.00000
          52    -0.00361     0.00515     0.00292    -0.00074    -0.46698     0.46713
          53    -0.00087     0.00110     0.00091    -0.00053    -0.07798     0.07800
          54     0.00000     0.00000     0.00000     0.00000    -0.00000     0.00000
          55     0.00232     0.00193    -0.00304    -0.00291    -0.13352    -0.13347
          56     0.00822     0.00589    -0.00990    -0.01015    -0.44634    -0.44619
          57    -0.00000     0.00000    -0.00000     0.00000    -0.00000     0.00000
          58     0.00232    -0.00193    -0.00304     0.00291    -0.13351     0.13348
          59     0.00822    -0.00589    -0.00990     0.01015    -0.44630     0.44622
          60     0.00000     0.00000    -0.00000     0.00000    -0.00000    -0.00000



 ----------------------------------------------------------------------------
 Normal Eigenvalue ||    Projected Derivative Dipole Moments (debye/angs)
  Mode   [cm**-1]  ||      [d/dqX]             [d/dqY]           [d/dqZ]
 ------ ---------- || ------------------ ------------------ -----------------
    1       -0.000 ||       0.000              -0.000             0.000
    2       -0.000 ||       0.000               0.000            -0.000
    3       -0.000 ||       0.000               0.000            -0.000
    4       -0.000 ||      -0.000              -0.000            -0.000
    5        0.000 ||      -0.000               0.000            -0.000
    6        0.000 ||       0.000              -0.000             0.000
    7       49.036 ||       0.000               0.000             0.027
    8       81.584 ||      -0.000              -0.000            -0.000
    9      151.709 ||       0.000              -0.000            -0.091
   10      181.038 ||       0.031              -0.073             0.000
   11      265.733 ||       0.000              -0.000             0.000
   12      300.973 ||       0.000              -0.000            -0.000
   13      407.914 ||       0.000              -0.000            -0.000
   14      424.395 ||       0.000              -0.000            -0.049
   15      468.980 ||       0.000              -0.000             0.372
   16      487.915 ||       0.018              -0.214             0.000
   17      578.840 ||      -0.000               0.000             0.000
   18      657.329 ||      -0.000              -0.000             0.000
   19      673.468 ||       0.000              -0.000             0.000
   20      707.330 ||       0.000               0.000            -0.105
   21      735.109 ||      -0.024               0.319            -0.000
   22      810.677 ||      -0.000              -0.000            -0.000
   23      862.517 ||      -0.000               0.000             0.000
   24      895.307 ||      -0.000              -0.000            -0.000
   25      896.426 ||      -0.000              -0.000             0.788
   26      980.919 ||      -0.000               0.000            -0.000
   27      980.994 ||       0.000              -0.000             0.930
   28     1017.723 ||       0.000              -0.000             0.000
   29     1036.472 ||       0.000               0.000            -0.013
   30     1073.555 ||       0.014              -0.107             0.000
   31     1102.043 ||       0.034               0.456            -0.000
   32     1107.654 ||       0.000               0.000             0.000
   33     1107.676 ||      -0.000              -0.000            -0.558
   34     1110.622 ||      -0.000              -0.000             0.000
   35     1203.733 ||       0.090              -0.165            -0.000
   36     1260.957 ||       0.000               0.000             0.000
   37     1284.262 ||       0.024               0.025            -0.000
   38     1296.184 ||       0.000               0.000             0.000
   39     1350.008 ||      -0.050              -0.460            -0.000
   40     1398.535 ||       0.000               0.000            -0.000
   41     1422.101 ||      -0.086               0.440             0.000
   42     1427.475 ||       0.000              -0.000             0.000
   43     1514.543 ||      -0.648              -0.167             0.000
   44     1565.414 ||       0.000              -0.000            -0.000
   45     1575.248 ||       0.082               0.084             0.000
   46     1639.648 ||      -0.039               0.601            -0.000
   47     1690.931 ||      -0.000              -0.000             0.000
   48     1738.511 ||      -0.000              -0.000            -0.000
   49     1814.824 ||       0.000              -0.000             0.000
   50     1815.797 ||      -0.188              -0.009             0.000
   51     3394.052 ||       0.362              -1.487             0.000
   52     3394.781 ||      -0.000               0.000            -0.000
   53     3432.815 ||       0.068              -0.287             0.000
   54     3432.819 ||      -0.000               0.000             0.000
   55     3447.869 ||       0.173               0.028            -0.000
   56     3451.342 ||      -0.000               0.000             0.000
   57     3471.326 ||       0.347              -0.112            -0.000
   58     3474.289 ||      -0.000               0.000            -0.000
   59     3546.613 ||       0.012              -0.020             0.000
   60     3546.660 ||       0.000              -0.000             0.000
 ----------------------------------------------------------------------------



  
  
 ----------------------------------------------------------------------------
 Normal Eigenvalue ||           Projected Infra Red Intensities
  Mode   [cm**-1]  || [atomic units] [(debye/angs)**2] [(KM/mol)] [arbitrary]
 ------ ---------- || -------------- ----------------- ---------- -----------
    1       -0.000 ||    0.000000           0.000         0.000       0.000
    2       -0.000 ||    0.000000           0.000         0.000       0.000
    3       -0.000 ||    0.000000           0.000         0.000       0.000
    4       -0.000 ||    0.000000           0.000         0.000       0.000
    5        0.000 ||    0.000000           0.000         0.000       0.000
    6        0.000 ||    0.000000           0.000         0.000       0.000
    7       49.036 ||    0.000031           0.001         0.030       0.068
    8       81.584 ||    0.000000           0.000         0.000       0.000
    9      151.709 ||    0.000359           0.008         0.350       0.796
   10      181.038 ||    0.000273           0.006         0.266       0.607
   11      265.733 ||    0.000000           0.000         0.000       0.000
   12      300.973 ||    0.000000           0.000         0.000       0.000
   13      407.914 ||    0.000000           0.000         0.000       0.000
   14      424.395 ||    0.000104           0.002         0.101       0.230
   15      468.980 ||    0.006013           0.139         5.862      13.348
   16      487.915 ||    0.001991           0.046         1.941       4.420
   17      578.840 ||    0.000000           0.000         0.000       0.000
   18      657.329 ||    0.000000           0.000         0.000       0.000
   19      673.468 ||    0.000000           0.000         0.000       0.000
   20      707.330 ||    0.000476           0.011         0.464       1.057
   21      735.109 ||    0.004426           0.102         4.315       9.825
   22      810.677 ||    0.000000           0.000         0.000       0.000
   23      862.517 ||    0.000000           0.000         0.000       0.000
   24      895.307 ||    0.000000           0.000         0.000       0.000
   25      896.426 ||    0.026922           0.621        26.245      59.762
   26      980.919 ||    0.000000           0.000         0.000       0.000
   27      980.994 ||    0.037510           0.865        36.566      83.265
   28     1017.723 ||    0.000000           0.000         0.000       0.000
   29     1036.472 ||    0.000007           0.000         0.007       0.016
   30     1073.555 ||    0.000500           0.012         0.487       1.110
   31     1102.043 ||    0.009062           0.209         8.834      20.117
   32     1107.654 ||    0.000000           0.000         0.000       0.000
   33     1107.676 ||    0.013505           0.312        13.165      29.979
   34     1110.622 ||    0.000000           0.000         0.000       0.000
   35     1203.733 ||    0.001529           0.035         1.491       3.394
   36     1260.957 ||    0.000000           0.000         0.000       0.000
   37     1284.262 ||    0.000053           0.001         0.052       0.119
   38     1296.184 ||    0.000000           0.000         0.000       0.000
   39     1350.008 ||    0.009261           0.214         9.028      20.559
   40     1398.535 ||    0.000000           0.000         0.000       0.000
   41     1422.101 ||    0.008709           0.201         8.490      19.332
   42     1427.475 ||    0.000000           0.000         0.000       0.000
   43     1514.543 ||    0.019390           0.447        18.903      43.043
   44     1565.414 ||    0.000000           0.000         0.000       0.000
   45     1575.248 ||    0.000597           0.014         0.582       1.324
   46     1639.648 ||    0.015699           0.362        15.305      34.850
   47     1690.931 ||    0.000000           0.000         0.000       0.000
   48     1738.511 ||    0.000000           0.000         0.000       0.000
   49     1814.824 ||    0.000000           0.000         0.000       0.000
   50     1815.797 ||    0.001538           0.035         1.500       3.415
   51     3394.052 ||    0.101457           2.341        98.905     225.216
   52     3394.781 ||    0.000000           0.000         0.000       0.000
   53     3432.815 ||    0.003765           0.087         3.671       8.359
   54     3432.819 ||    0.000000           0.000         0.000       0.000
   55     3447.869 ||    0.001332           0.031         1.298       2.956
   56     3451.342 ||    0.000000           0.000         0.000       0.000
   57     3471.326 ||    0.005759           0.133         5.614      12.783
   58     3474.289 ||    0.000000           0.000         0.000       0.000
   59     3546.613 ||    0.000023           0.001         0.023       0.052
   60     3546.660 ||    0.000000           0.000         0.000       0.000
 ----------------------------------------------------------------------------



 vib:animation  F

 Task  times  cpu:      214.3s     wall:      226.7s
 
 
                                NWChem Input Module
                                -------------------
 
 
 Summary of allocated global arrays
-----------------------------------
  No active global arrays



                         GA Statistics for process    0
                         ------------------------------

       create   destroy   get      put      acc     scatter   gather  read&inc
calls: 7087     7087     3.09e+06 6.64e+04 2.40e+06 1304        0     5700     
number of processes/call 2.57e+12 5.31e+13 9.90e+10 0.00e+00 0.00e+00
bytes total:             4.07e+08 5.09e+07 3.34e+08 0.00e+00 0.00e+00 4.56e+04
bytes remote:            2.73e+08 1.94e+07 2.48e+08 -3.00e+03 0.00e+00 0.00e+00
Max memory consumed for GA by this process: 4761304 bytes
 
MA_summarize_allocated_blocks: starting scan ...
MA_summarize_allocated_blocks: scan completed: 0 heap blocks, 0 stack blocks
MA usage statistics:

	allocation statistics:
					      heap	     stack
					      ----	     -----
	current number of blocks	         0	         0
	maximum number of blocks	        25	        57
	current total bytes		         0	         0
	maximum total bytes		   6909880	  67349672
	maximum total K-bytes		      6910	     67350
	maximum total M-bytes		         7	        68
 
 
                                     CITATION
                                     --------
                Please cite the following reference when publishing
                           results obtained with NWChem:
 
                 M. Valiev, E.J. Bylaska, N. Govind, K. Kowalski,
              T.P. Straatsma, H.J.J. van Dam, D. Wang, J. Nieplocha,
                        E. Apra, T.L. Windus, W.A. de Jong
                 "NWChem: a comprehensive and scalable open-source
                  solution for large scale molecular simulations"
                      Comput. Phys. Commun. 181, 1477 (2010)
                           doi:10.1016/j.cpc.2010.04.018
 
                                      AUTHORS
                                      -------
     E. Apra, E. J. Bylaska, N. Govind, K. Kowalski, M. Valiev, W. A. de Jong,
      T. P. Straatsma, H. J. J. van Dam, D. Wang, T. L. Windus, N. P. Bauman,
       A. Panyala, J. Hammond, J. Autschbach, K. Bhaskaran-Nair, J. Brabec,
    K. Lopata, S. A. Fischer, S. Krishnamoorthy, M. Jacquelin, W. Ma, M. Klemm,
       O. Villa, Y. Chen, V. Anisimov, F. Aquino, S. Hirata, M. T. Hackler,
           Eric Hermes, L. Jensen, J. E. Moore, J. C. Becca, V. Konjkov,
            D. Mejia-Rodriguez, T. Risthaus, M. Malagoli, A. Marenich,
   A. Otero-de-la-Roza, J. Mullin, P. Nichols, R. Peverati, J. Pittner, Y. Zhao,
        P.-D. Fan, A. Fonari, M. J. Williamson, R. J. Harrison, J. R. Rehr,
      M. Dupuis, D. Silverstein, D. M. A. Smith, J. Nieplocha, V. Tipparaju,
      M. Krishnan, B. E. Van Kuiken, A. Vazquez-Mayagoitia, M. Swart, Q. Wu,
   T. Van Voorhis, A. A. Auer, M. Nooijen, L. D. Crosby, E. Brown, G. Cisneros,
     G. I. Fann, H. Fruchtl, J. Garza, K. Hirao, R. A. Kendall, J. A. Nichols,
       K. Tsemekhman, K. Wolinski, J. Anchell, D. E. Bernholdt, P. Borowski,
       T. Clark, D. Clerc, H. Dachsel, M. J. O. Deegan, K. Dyall, D. Elwood,
      E. Glendening, M. Gutowski, A. C. Hess, J. Jaffe, B. G. Johnson, J. Ju,
        R. Kobayashi, R. Kutteh, Z. Lin, R. Littlefield, X. Long, B. Meng,
      T. Nakajima, S. Niu, L. Pollack, M. Rosing, K. Glaesemann, G. Sandrone,
      M. Stave, H. Taylor, G. Thomas, J. H. van Lenthe, A. T. Wong, Z. Zhang.

 Total times  cpu:      219.1s     wall:      231.8s
============================================================================
                               JOB STATISTICS                              
============================================================================
      SubmitTime: 2021-08-02T10:34:34
         EndTime: 2021-08-02T15:34:35
         RunTime: 00:03:53
           JobId: 13495
            TRES: cpu=4,mem=50G,node=1
       Partition: kjordan
        NodeList: smp-n17
         Command: /ihome/kjordan/shu8/projects/code_tests/cclib/nwchem/h2o.slurm
          StdOut: /ihome/kjordan/shu8/projects/code_tests/cclib/nwchem/slurm.out
More information:
    - `sacct -M invest -j 13495 -S 2021-08-02T10:34:34 -E 2021-08-02T15:34:35`
   Print control:
    - List of all possible fields: `sacct --helpformat`
    - Add `--format=<field1,field2,etc>` with fields of interest
============================================================================
