 argument  1 = dvb_ir.in
                                         
                                         
 
 
             Northwest Computational Chemistry Package (NWChem) 7.0.0
             --------------------------------------------------------
 
 
                    Environmental Molecular Sciences Laboratory
                       Pacific Northwest National Laboratory
                                Richland, WA 99352
 
                              Copyright (c) 1994-2019
                       Pacific Northwest National Laboratory
                            Battelle Memorial Institute
 
             NWChem is an open-source computational chemistry package
                        distributed under the terms of the
                      Educational Community License (ECL) 2.0
             A copy of the license is included with this distribution
                              in the LICENSE.TXT file
 
                                  ACKNOWLEDGMENT
                                  --------------

            This software and its documentation were developed at the
            EMSL at Pacific Northwest National Laboratory, a multiprogram
            national laboratory, operated for the U.S. Department of Energy
            by Battelle under Contract Number DE-AC05-76RL01830. Support
            for this work was provided by the Department of Energy Office
            of Biological and Environmental Research, Office of Basic
            Energy Sciences, and the Office of Advanced Scientific Computing.


           Job information
           ---------------

    hostname        = smp-n17.sam.pitt.edu
    program         = /ihome/kjordan/shu8/software/source/nwchem/nwchem-7.0.0/bin/LINUX64/nwchem
    date            = Tue Sep 20 18:21:21 2022

    compiled        = Wed_May_13_13:33:26_2020
    source          = /ihome/kjordan/shu8/software/source/nwchem/nwchem-7.0.0
    nwchem branch   = 7.0.0
    nwchem revision = N/A
    ga revision     = 5.7.1
    use scalapack   = F
    input           = dvb_ir.in
    prefix          = dvb.
    data base       = ./dvb.db
    status          = startup
    nproc           =        4
    time left       =     -1s



           Memory information
           ------------------

    heap     =  134217726 doubles =   1024.0 Mbytes
    stack    =  134217723 doubles =   1024.0 Mbytes
    global   =  268435456 doubles =   2048.0 Mbytes (distinct from heap & stack)
    total    =  536870905 doubles =   4096.0 Mbytes
    verify   = yes
    hardfail = no 


           Directory information
           ---------------------
 
  0 permanent = .
  0 scratch   = .
 
 
 
 
                                NWChem Input Module
                                -------------------
 
 
                        Divinylbenzene in STO-3G basis set
                        ----------------------------------

 Scaling coordinates for geometry "geometry" by  1.889725989
 (inverse scale =  0.529177249)

 C2H symmetry detected

          ------
          auto-z
          ------
  no constraints, skipping   0.000000000000000E+000
  no constraints, skipping   0.000000000000000E+000
 
 
                             Geometry "geometry" -> ""
                             -------------------------
 
 Output coordinates in angstroms (scale by  1.889725989 to convert to a.u.)
 
  No.       Tag          Charge          X              Y              Z
 ---- ---------------- ---------- -------------- -------------- --------------
    1 C                    6.0000     0.23680554     1.41416660     0.00000000
    2 C                    6.0000    -0.23680554    -1.41416660     0.00000000
    3 C                    6.0000     1.31675086     0.48901061     0.00000000
    4 C                    6.0000    -1.31675086    -0.48901061     0.00000000
    5 C                    6.0000     1.08679847    -0.89447642     0.00000000
    6 C                    6.0000    -1.08679847     0.89447642     0.00000000
    7 H                    1.0000     2.34780221     0.86863451     0.00000000
    8 H                    1.0000    -2.34780221    -0.86863451     0.00000000
    9 H                    1.0000     1.93764188    -1.58693865     0.00000000
   10 H                    1.0000    -1.93764188     1.58693865     0.00000000
   11 C                    6.0000    -0.53450789    -2.88212824     0.00000000
   12 C                    6.0000     0.53450789     2.88212824     0.00000000
   13 H                    1.0000    -1.60655769    -3.13289308     0.00000000
   14 H                    1.0000     1.60655769     3.13289308     0.00000000
   15 C                    6.0000     0.36419263    -3.88177971     0.00000000
   16 C                    6.0000    -0.36419263     3.88177971     0.00000000
   17 H                    1.0000     1.44522900    -3.70144241     0.00000000
   18 H                    1.0000    -1.44522900     3.70144241     0.00000000
   19 H                    1.0000     0.04815351    -4.93192286     0.00000000
   20 H                    1.0000    -0.04815351     4.93192286     0.00000000
 
      Atomic Mass 
      ----------- 
 
      C                 12.000000
      H                  1.007825
 

 Effective nuclear repulsion energy (a.u.)     445.9370121674

            Nuclear Dipole moment (a.u.) 
            ----------------------------
        X                 Y               Z
 ---------------- ---------------- ----------------
     0.0000000000     0.0000000000     0.0000000000
 
      Symmetry information
      --------------------
 
 Group name             C2h       
 Group number             21
 Group order               4
 No. of unique centers    10
 
      Symmetry unique atoms
 
     1    3    5    7    9   11   13   15   17   19
 


                                Z-matrix (autoz)
                                -------- 

 Units are Angstrom for bonds and degrees for angles
 
      Type          Name      I     J     K     L     M      Value
      ----------- --------  ----- ----- ----- ----- ----- ----------
    1 Stretch                  1     3                       1.42204
    2 Stretch                  1     6                       1.42197
    3 Stretch                  1    12                       1.49784
    4 Stretch                  2     4                       1.42204
    5 Stretch                  2     5                       1.42197
    6 Stretch                  2    11                       1.49784
    7 Stretch                  3     5                       1.40247
    8 Stretch                  3     7                       1.09872
    9 Stretch                  4     6                       1.40247
   10 Stretch                  4     8                       1.09872
   11 Stretch                  5     9                       1.09701
   12 Stretch                  6    10                       1.09701
   13 Stretch                 11    13                       1.10099
   14 Stretch                 11    15                       1.34423
   15 Stretch                 12    14                       1.10099
   16 Stretch                 12    16                       1.34423
   17 Stretch                 15    17                       1.09597
   18 Stretch                 15    19                       1.09667
   19 Stretch                 16    18                       1.09597
   20 Stretch                 16    20                       1.09667
   21 Bend                     1     3     5               121.14867
   22 Bend                     1     3     7               119.20109
   23 Bend                     1     6     4               120.87358
   24 Bend                     1     6    10               119.42285
   25 Bend                     1    12    14               114.62953
   26 Bend                     1    12    16               126.57992
   27 Bend                     2     4     6               121.14867
   28 Bend                     2     4     8               119.20109
   29 Bend                     2     5     3               120.87358
   30 Bend                     2     5     9               119.42285
   31 Bend                     2    11    13               114.62953
   32 Bend                     2    11    15               126.57992
   33 Bend                     3     1     6               117.97776
   34 Bend                     3     1    12               119.12155
   35 Bend                     3     5     9               119.70357
   36 Bend                     4     2     5               117.97776
   37 Bend                     4     2    11               119.12155
   38 Bend                     4     6    10               119.70357
   39 Bend                     5     2    11               122.90069
   40 Bend                     5     3     7               119.65024
   41 Bend                     6     1    12               122.90069
   42 Bend                     6     4     8               119.65024
   43 Bend                    11    15    17               122.48517
   44 Bend                    11    15    19               121.29492
   45 Bend                    12    16    18               122.48517
   46 Bend                    12    16    20               121.29492
   47 Bend                    13    11    15               118.79054
   48 Bend                    14    12    16               118.79054
   49 Bend                    17    15    19               116.21990
   50 Bend                    18    16    20               116.21990
   51 Torsion                  1     3     5     2           0.00000
   52 Torsion                  1     3     5     9         180.00000
   53 Torsion                  1     6     4     2           0.00000
   54 Torsion                  1     6     4     8         180.00000
   55 Torsion                  1    12    16    18           0.00000
   56 Torsion                  1    12    16    20         180.00000
   57 Torsion                  2     4     6    10         180.00000
   58 Torsion                  2     5     3     7         180.00000
   59 Torsion                  2    11    15    17           0.00000
   60 Torsion                  2    11    15    19         180.00000
   61 Torsion                  3     1     6     4           0.00000
   62 Torsion                  3     1     6    10         180.00000
   63 Torsion                  3     1    12    14           0.00000
   64 Torsion                  3     1    12    16         180.00000
   65 Torsion                  3     5     2     4           0.00000
   66 Torsion                  3     5     2    11         180.00000
   67 Torsion                  4     2     5     9         180.00000
   68 Torsion                  4     2    11    13           0.00000
   69 Torsion                  4     2    11    15         180.00000
   70 Torsion                  4     6     1    12         180.00000
   71 Torsion                  5     2     4     6           0.00000
   72 Torsion                  5     2     4     8         180.00000
   73 Torsion                  5     2    11    13         180.00000
   74 Torsion                  5     2    11    15           0.00000
   75 Torsion                  5     3     1     6           0.00000
   76 Torsion                  5     3     1    12         180.00000
   77 Torsion                  6     1     3     7         180.00000
   78 Torsion                  6     1    12    14         180.00000
   79 Torsion                  6     1    12    16           0.00000
   80 Torsion                  6     4     2    11         180.00000
   81 Torsion                  7     3     1    12           0.00000
   82 Torsion                  7     3     5     9           0.00000
   83 Torsion                  8     4     2    11           0.00000
   84 Torsion                  8     4     6    10           0.00000
   85 Torsion                  9     5     2    11           0.00000
   86 Torsion                 10     6     1    12           0.00000
   87 Torsion                 13    11    15    17         180.00000
   88 Torsion                 13    11    15    19           0.00000
   89 Torsion                 14    12    16    18         180.00000
   90 Torsion                 14    12    16    20           0.00000
 
 
            XYZ format geometry
            -------------------
    20
 geometry
 C                     0.23680554     1.41416660     0.00000000
 C                    -0.23680554    -1.41416660     0.00000000
 C                     1.31675086     0.48901061     0.00000000
 C                    -1.31675086    -0.48901061     0.00000000
 C                     1.08679847    -0.89447642     0.00000000
 C                    -1.08679847     0.89447642     0.00000000
 H                     2.34780221     0.86863451     0.00000000
 H                    -2.34780221    -0.86863451     0.00000000
 H                     1.93764188    -1.58693865     0.00000000
 H                    -1.93764188     1.58693865     0.00000000
 C                    -0.53450789    -2.88212824     0.00000000
 C                     0.53450789     2.88212824     0.00000000
 H                    -1.60655769    -3.13289308     0.00000000
 H                     1.60655769     3.13289308     0.00000000
 C                     0.36419263    -3.88177971     0.00000000
 C                    -0.36419263     3.88177971     0.00000000
 H                     1.44522900    -3.70144241     0.00000000
 H                    -1.44522900     3.70144241     0.00000000
 H                     0.04815351    -4.93192286     0.00000000
 H                    -0.04815351     4.93192286     0.00000000
 
 ==============================================================================
                                internuclear distances
 ------------------------------------------------------------------------------
       center one      |      center two      | atomic units |  angstroms
 ------------------------------------------------------------------------------
    3 C                |   1 C                |     2.68726  |     1.42204
    4 C                |   2 C                |     2.68726  |     1.42204
    5 C                |   2 C                |     2.68714  |     1.42197
    5 C                |   3 C                |     2.65028  |     1.40247
    6 C                |   1 C                |     2.68714  |     1.42197
    6 C                |   4 C                |     2.65028  |     1.40247
    7 H                |   3 C                |     2.07628  |     1.09872
    8 H                |   4 C                |     2.07628  |     1.09872
    9 H                |   5 C                |     2.07305  |     1.09701
   10 H                |   6 C                |     2.07305  |     1.09701
   11 C                |   2 C                |     2.83052  |     1.49784
   12 C                |   1 C                |     2.83052  |     1.49784
   13 H                |  11 C                |     2.08056  |     1.10099
   14 H                |  12 C                |     2.08056  |     1.10099
   15 C                |  11 C                |     2.54023  |     1.34423
   16 C                |  12 C                |     2.54023  |     1.34423
   17 H                |  15 C                |     2.07109  |     1.09597
   18 H                |  16 C                |     2.07109  |     1.09597
   19 H                |  15 C                |     2.07240  |     1.09667
   20 H                |  16 C                |     2.07240  |     1.09667
 ------------------------------------------------------------------------------
                         number of included internuclear distances:         20
 ==============================================================================



 ==============================================================================
                                 internuclear angles
 ------------------------------------------------------------------------------
        center 1       |       center 2       |       center 3       |  degrees
 ------------------------------------------------------------------------------
    3 C                |   1 C                |   6 C                |   117.98
    3 C                |   1 C                |  12 C                |   119.12
    6 C                |   1 C                |  12 C                |   122.90
    4 C                |   2 C                |   5 C                |   117.98
    4 C                |   2 C                |  11 C                |   119.12
    5 C                |   2 C                |  11 C                |   122.90
    1 C                |   3 C                |   5 C                |   121.15
    1 C                |   3 C                |   7 H                |   119.20
    5 C                |   3 C                |   7 H                |   119.65
    2 C                |   4 C                |   6 C                |   121.15
    2 C                |   4 C                |   8 H                |   119.20
    6 C                |   4 C                |   8 H                |   119.65
    2 C                |   5 C                |   3 C                |   120.87
    2 C                |   5 C                |   9 H                |   119.42
    3 C                |   5 C                |   9 H                |   119.70
    1 C                |   6 C                |   4 C                |   120.87
    1 C                |   6 C                |  10 H                |   119.42
    4 C                |   6 C                |  10 H                |   119.70
    2 C                |  11 C                |  13 H                |   114.63
    2 C                |  11 C                |  15 C                |   126.58
   13 H                |  11 C                |  15 C                |   118.79
    1 C                |  12 C                |  14 H                |   114.63
    1 C                |  12 C                |  16 C                |   126.58
   14 H                |  12 C                |  16 C                |   118.79
   11 C                |  15 C                |  17 H                |   122.49
   11 C                |  15 C                |  19 H                |   121.29
   17 H                |  15 C                |  19 H                |   116.22
   12 C                |  16 C                |  18 H                |   122.49
   12 C                |  16 C                |  20 H                |   121.29
   18 H                |  16 C                |  20 H                |   116.22
 ------------------------------------------------------------------------------
                            number of included internuclear angles:         30
 ==============================================================================





 Summary of "ao basis" -> "" (cartesian)
 ------------------------------------------------------------------------------
       Tag                 Description            Shells   Functions and Types
 ---------------- ------------------------------  ------  ---------------------
 *                           sto-3g                   on all atoms 


 
 
                   NWChem Nuclear Hessian and Frequency Analysis
                   ---------------------------------------------
 
 
 
                              NWChem Analytic Hessian
                              -----------------------
 
                      Basis "ao basis" -> "ao basis" (cartesian)
                      -----
  C (Carbon)
  ----------
            Exponent  Coefficients 
       -------------- ---------------------------------------------------------
  1 S  7.16168370E+01  0.154329
  1 S  1.30450960E+01  0.535328
  1 S  3.53051220E+00  0.444635
 
  2 S  2.94124940E+00 -0.099967
  2 S  6.83483100E-01  0.399513
  2 S  2.22289900E-01  0.700115
 
  3 P  2.94124940E+00  0.155916
  3 P  6.83483100E-01  0.607684
  3 P  2.22289900E-01  0.391957
 
  H (Hydrogen)
  ------------
            Exponent  Coefficients 
       -------------- ---------------------------------------------------------
  1 S  3.42525091E+00  0.154329
  1 S  6.23913730E-01  0.535328
  1 S  1.68855400E-01  0.444635
 


 Summary of "ao basis" -> "ao basis" (cartesian)
 ------------------------------------------------------------------------------
       Tag                 Description            Shells   Functions and Types
 ---------------- ------------------------------  ------  ---------------------
 C                           sto-3g                  3        5   2s1p
 H                           sto-3g                  1        1   1s


  Resetting Diis

 HESSIAN: the one electron contributions are done in       0.3s


 HESSIAN: 2-el 1st deriv. term done in                     2.3s


 HESSIAN: 2-el 2nd deriv. term done in                     3.4s

  stpr_wrt_fd_from_sq: overwrite of existing file:./dvb.hess
 stpr_wrt_fd_dipole: overwrite of existing file./dvb.fd_ddipole

 HESSIAN: the two electron contributions are done in      25.0s

                                NWChem CPHF Module
                                ------------------
 
 
  scftype          =     RHF 
  nclosed          =       35
  nopen            =        0
  variables        =      875
  # of vectors     =       60
  tolerance        = 0.10D-03
  level shift      = 0.00D+00
  max iterations   =       50
  max subspace     =      600

 Grid integrated density:      69.999985865642
 Requested integration accuracy:   0.10E-13
 SCF residual:   9.863227145154007E-005


Iterative solution of linear equations
  No. of variables      875
  No. of equations       60
  Maximum subspace      600
        Iterations       50
       Convergence  1.0D-04
        Start time     77.8


   iter   nsub   residual    time
   ----  ------  --------  ---------
     1     60    1.02D-01     114.1
     2    120    3.14D-02     150.4
     3    180    3.42D-04     186.6
     4    240    9.07D-06     222.8
 HESSIAN: the CPHF contributions are done
  stpr_wrt_fd_from_sq: overwrite of existing file:./dvb.hess
 stpr_wrt_fd_dipole: overwrite of existing file./dvb.fd_ddipole

 Derivative Dipole

  
  
 X vector of derivative dipole (au) [debye/angstrom]
 d_dipole_x/<atom=   1,x> =    -0.1510     [   -0.7254]
 d_dipole_x/<atom=   1,y> =    -0.0021     [   -0.0102]
 d_dipole_x/<atom=   1,z> =     0.0000     [    0.0000]
 d_dipole_x/<atom=   2,x> =    -0.1510     [   -0.7254]
 d_dipole_x/<atom=   2,y> =    -0.0021     [   -0.0102]
 d_dipole_x/<atom=   2,z> =     0.0000     [    0.0000]
 d_dipole_x/<atom=   3,x> =     0.0275     [    0.1322]
 d_dipole_x/<atom=   3,y> =     0.0823     [    0.3954]
 d_dipole_x/<atom=   3,z> =     0.0000     [    0.0000]
 d_dipole_x/<atom=   4,x> =     0.0275     [    0.1322]
 d_dipole_x/<atom=   4,y> =     0.0823     [    0.3954]
 d_dipole_x/<atom=   4,z> =     0.0000     [    0.0000]
 d_dipole_x/<atom=   5,x> =    -0.0413     [   -0.1984]
 d_dipole_x/<atom=   5,y> =    -0.0967     [   -0.4647]
 d_dipole_x/<atom=   5,z> =    -0.0000     [   -0.0000]
 d_dipole_x/<atom=   6,x> =    -0.0413     [   -0.1984]
 d_dipole_x/<atom=   6,y> =    -0.0967     [   -0.4647]
 d_dipole_x/<atom=   6,z> =    -0.0000     [   -0.0000]
 d_dipole_x/<atom=   7,x> =     0.0609     [    0.2926]
 d_dipole_x/<atom=   7,y> =    -0.0124     [   -0.0597]
 d_dipole_x/<atom=   7,z> =    -0.0000     [   -0.0000]
 d_dipole_x/<atom=   8,x> =     0.0609     [    0.2926]
 d_dipole_x/<atom=   8,y> =    -0.0124     [   -0.0597]
 d_dipole_x/<atom=   8,z> =     0.0000     [    0.0000]
 d_dipole_x/<atom=   9,x> =     0.0625     [    0.3002]
 d_dipole_x/<atom=   9,y> =     0.0105     [    0.0506]
 d_dipole_x/<atom=   9,z> =    -0.0000     [   -0.0000]
 d_dipole_x/<atom=  10,x> =     0.0625     [    0.3002]
 d_dipole_x/<atom=  10,y> =     0.0105     [    0.0506]
 d_dipole_x/<atom=  10,z> =     0.0000     [    0.0000]
 d_dipole_x/<atom=  11,x> =    -0.0041     [   -0.0198]
 d_dipole_x/<atom=  11,y> =     0.0182     [    0.0875]
 d_dipole_x/<atom=  11,z> =    -0.0000     [   -0.0000]
 d_dipole_x/<atom=  12,x> =    -0.0041     [   -0.0198]
 d_dipole_x/<atom=  12,y> =     0.0182     [    0.0875]
 d_dipole_x/<atom=  12,z> =    -0.0000     [   -0.0000]
 d_dipole_x/<atom=  13,x> =     0.0199     [    0.0955]
 d_dipole_x/<atom=  13,y> =     0.0196     [    0.0940]
 d_dipole_x/<atom=  13,z> =    -0.0000     [   -0.0000]
 d_dipole_x/<atom=  14,x> =     0.0199     [    0.0955]
 d_dipole_x/<atom=  14,y> =     0.0196     [    0.0940]
 d_dipole_x/<atom=  14,z> =    -0.0000     [   -0.0000]
 d_dipole_x/<atom=  15,x> =    -0.0385     [   -0.1851]
 d_dipole_x/<atom=  15,y> =     0.0441     [    0.2116]
 d_dipole_x/<atom=  15,z> =    -0.0000     [   -0.0000]
 d_dipole_x/<atom=  16,x> =    -0.0385     [   -0.1851]
 d_dipole_x/<atom=  16,y> =     0.0441     [    0.2116]
 d_dipole_x/<atom=  16,z> =    -0.0000     [   -0.0000]
 d_dipole_x/<atom=  17,x> =     0.0371     [    0.1782]
 d_dipole_x/<atom=  17,y> =    -0.0203     [   -0.0974]
 d_dipole_x/<atom=  17,z> =    -0.0000     [   -0.0000]
 d_dipole_x/<atom=  18,x> =     0.0371     [    0.1782]
 d_dipole_x/<atom=  18,y> =    -0.0203     [   -0.0974]
 d_dipole_x/<atom=  18,z> =    -0.0000     [   -0.0000]
 d_dipole_x/<atom=  19,x> =     0.0271     [    0.1300]
 d_dipole_x/<atom=  19,y> =    -0.0431     [   -0.2070]
 d_dipole_x/<atom=  19,z> =    -0.0000     [   -0.0000]
 d_dipole_x/<atom=  20,x> =     0.0271     [    0.1300]
 d_dipole_x/<atom=  20,y> =    -0.0431     [   -0.2070]
 d_dipole_x/<atom=  20,z> =    -0.0000     [   -0.0000]
  
 Y vector of derivative dipole (au) [debye/angstrom]
 d_dipole_y/<atom=   1,x> =    -0.0718     [   -0.3449]
 d_dipole_y/<atom=   1,y> =     0.1873     [    0.8998]
 d_dipole_y/<atom=   1,z> =    -0.0000     [   -0.0000]
 d_dipole_y/<atom=   2,x> =    -0.0718     [   -0.3449]
 d_dipole_y/<atom=   2,y> =     0.1873     [    0.8998]
 d_dipole_y/<atom=   2,z> =    -0.0000     [   -0.0000]
 d_dipole_y/<atom=   3,x> =     0.0751     [    0.3606]
 d_dipole_y/<atom=   3,y> =    -0.1833     [   -0.8803]
 d_dipole_y/<atom=   3,z> =    -0.0000     [   -0.0000]
 d_dipole_y/<atom=   4,x> =     0.0751     [    0.3606]
 d_dipole_y/<atom=   4,y> =    -0.1833     [   -0.8803]
 d_dipole_y/<atom=   4,z> =    -0.0000     [   -0.0000]
 d_dipole_y/<atom=   5,x> =    -0.1113     [   -0.5348]
 d_dipole_y/<atom=   5,y> =    -0.1166     [   -0.5601]
 d_dipole_y/<atom=   5,z> =     0.0000     [    0.0000]
 d_dipole_y/<atom=   6,x> =    -0.1113     [   -0.5348]
 d_dipole_y/<atom=   6,y> =    -0.1166     [   -0.5601]
 d_dipole_y/<atom=   6,z> =     0.0000     [    0.0000]
 d_dipole_y/<atom=   7,x> =    -0.0187     [   -0.0899]
 d_dipole_y/<atom=   7,y> =     0.0366     [    0.1759]
 d_dipole_y/<atom=   7,z> =     0.0000     [    0.0000]
 d_dipole_y/<atom=   8,x> =    -0.0187     [   -0.0899]
 d_dipole_y/<atom=   8,y> =     0.0366     [    0.1759]
 d_dipole_y/<atom=   8,z> =    -0.0000     [   -0.0000]
 d_dipole_y/<atom=   9,x> =     0.0101     [    0.0484]
 d_dipole_y/<atom=   9,y> =     0.0357     [    0.1716]
 d_dipole_y/<atom=   9,z> =     0.0000     [    0.0000]
 d_dipole_y/<atom=  10,x> =     0.0101     [    0.0484]
 d_dipole_y/<atom=  10,y> =     0.0357     [    0.1716]
 d_dipole_y/<atom=  10,z> =     0.0000     [    0.0000]
 d_dipole_y/<atom=  11,x> =     0.3359     [    1.6134]
 d_dipole_y/<atom=  11,y> =     0.1973     [    0.9477]
 d_dipole_y/<atom=  11,z> =    -0.0000     [   -0.0000]
 d_dipole_y/<atom=  12,x> =     0.3359     [    1.6134]
 d_dipole_y/<atom=  12,y> =     0.1973     [    0.9477]
 d_dipole_y/<atom=  12,z> =     0.0000     [    0.0000]
 d_dipole_y/<atom=  13,x> =    -0.0650     [   -0.3123]
 d_dipole_y/<atom=  13,y> =    -0.0308     [   -0.1477]
 d_dipole_y/<atom=  13,z> =     0.0000     [    0.0000]
 d_dipole_y/<atom=  14,x> =    -0.0650     [   -0.3123]
 d_dipole_y/<atom=  14,y> =    -0.0308     [   -0.1477]
 d_dipole_y/<atom=  14,z> =     0.0000     [    0.0000]
 d_dipole_y/<atom=  15,x> =    -0.0545     [   -0.2615]
 d_dipole_y/<atom=  15,y> =    -0.2571     [   -1.2349]
 d_dipole_y/<atom=  15,z> =     0.0000     [    0.0000]
 d_dipole_y/<atom=  16,x> =    -0.0545     [   -0.2615]
 d_dipole_y/<atom=  16,y> =    -0.2571     [   -1.2349]
 d_dipole_y/<atom=  16,z> =     0.0000     [    0.0000]
 d_dipole_y/<atom=  17,x> =    -0.1556     [   -0.7472]
 d_dipole_y/<atom=  17,y> =     0.0151     [    0.0724]
 d_dipole_y/<atom=  17,z> =     0.0000     [    0.0000]
 d_dipole_y/<atom=  18,x> =    -0.1556     [   -0.7472]
 d_dipole_y/<atom=  18,y> =     0.0151     [    0.0724]
 d_dipole_y/<atom=  18,z> =     0.0000     [    0.0000]
 d_dipole_y/<atom=  19,x> =     0.0558     [    0.2682]
 d_dipole_y/<atom=  19,y> =     0.1157     [    0.5557]
 d_dipole_y/<atom=  19,z> =     0.0000     [    0.0000]
 d_dipole_y/<atom=  20,x> =     0.0558     [    0.2682]
 d_dipole_y/<atom=  20,y> =     0.1157     [    0.5557]
 d_dipole_y/<atom=  20,z> =     0.0000     [    0.0000]
  
 Z vector of derivative dipole (au) [debye/angstrom]
 d_dipole_z/<atom=   1,x> =     0.0000     [    0.0000]
 d_dipole_z/<atom=   1,y> =    -0.0000     [   -0.0000]
 d_dipole_z/<atom=   1,z> =     0.0274     [    0.1315]
 d_dipole_z/<atom=   2,x> =     0.0000     [    0.0000]
 d_dipole_z/<atom=   2,y> =    -0.0000     [   -0.0000]
 d_dipole_z/<atom=   2,z> =     0.0274     [    0.1315]
 d_dipole_z/<atom=   3,x> =     0.0000     [    0.0000]
 d_dipole_z/<atom=   3,y> =    -0.0000     [   -0.0000]
 d_dipole_z/<atom=   3,z> =    -0.0909     [   -0.4365]
 d_dipole_z/<atom=   4,x> =    -0.0000     [   -0.0000]
 d_dipole_z/<atom=   4,y> =     0.0000     [    0.0000]
 d_dipole_z/<atom=   4,z> =    -0.0909     [   -0.4365]
 d_dipole_z/<atom=   5,x> =     0.0000     [    0.0000]
 d_dipole_z/<atom=   5,y> =     0.0000     [    0.0000]
 d_dipole_z/<atom=   5,z> =    -0.0830     [   -0.3988]
 d_dipole_z/<atom=   6,x> =    -0.0000     [   -0.0000]
 d_dipole_z/<atom=   6,y> =     0.0000     [    0.0000]
 d_dipole_z/<atom=   6,z> =    -0.0830     [   -0.3988]
 d_dipole_z/<atom=   7,x> =    -0.0000     [   -0.0000]
 d_dipole_z/<atom=   7,y> =    -0.0000     [   -0.0000]
 d_dipole_z/<atom=   7,z> =     0.0780     [    0.3747]
 d_dipole_z/<atom=   8,x> =    -0.0000     [   -0.0000]
 d_dipole_z/<atom=   8,y> =    -0.0000     [   -0.0000]
 d_dipole_z/<atom=   8,z> =     0.0780     [    0.3747]
 d_dipole_z/<atom=   9,x> =    -0.0000     [   -0.0000]
 d_dipole_z/<atom=   9,y> =     0.0000     [    0.0000]
 d_dipole_z/<atom=   9,z> =     0.0792     [    0.3802]
 d_dipole_z/<atom=  10,x> =     0.0000     [    0.0000]
 d_dipole_z/<atom=  10,y> =    -0.0000     [   -0.0000]
 d_dipole_z/<atom=  10,z> =     0.0792     [    0.3802]
 d_dipole_z/<atom=  11,x> =    -0.0000     [   -0.0000]
 d_dipole_z/<atom=  11,y> =    -0.0000     [   -0.0000]
 d_dipole_z/<atom=  11,z> =    -0.0790     [   -0.3794]
 d_dipole_z/<atom=  12,x> =    -0.0000     [   -0.0000]
 d_dipole_z/<atom=  12,y> =     0.0000     [    0.0000]
 d_dipole_z/<atom=  12,z> =    -0.0790     [   -0.3794]
 d_dipole_z/<atom=  13,x> =    -0.0000     [   -0.0000]
 d_dipole_z/<atom=  13,y> =    -0.0000     [   -0.0000]
 d_dipole_z/<atom=  13,z> =     0.0804     [    0.3860]
 d_dipole_z/<atom=  14,x> =     0.0000     [    0.0000]
 d_dipole_z/<atom=  14,y> =     0.0000     [    0.0000]
 d_dipole_z/<atom=  14,z> =     0.0804     [    0.3860]
 d_dipole_z/<atom=  15,x> =     0.0000     [    0.0000]
 d_dipole_z/<atom=  15,y> =    -0.0000     [   -0.0000]
 d_dipole_z/<atom=  15,z> =    -0.2049     [   -0.9840]
 d_dipole_z/<atom=  16,x> =    -0.0000     [   -0.0000]
 d_dipole_z/<atom=  16,y> =     0.0000     [    0.0000]
 d_dipole_z/<atom=  16,z> =    -0.2049     [   -0.9840]
 d_dipole_z/<atom=  17,x> =     0.0000     [    0.0000]
 d_dipole_z/<atom=  17,y> =     0.0000     [    0.0000]
 d_dipole_z/<atom=  17,z> =     0.0985     [    0.4731]
 d_dipole_z/<atom=  18,x> =     0.0000     [    0.0000]
 d_dipole_z/<atom=  18,y> =    -0.0000     [   -0.0000]
 d_dipole_z/<atom=  18,z> =     0.0985     [    0.4731]
 d_dipole_z/<atom=  19,x> =    -0.0000     [   -0.0000]
 d_dipole_z/<atom=  19,y> =    -0.0000     [   -0.0000]
 d_dipole_z/<atom=  19,z> =     0.0944     [    0.4532]
 d_dipole_z/<atom=  20,x> =    -0.0000     [   -0.0000]
 d_dipole_z/<atom=  20,y> =    -0.0000     [   -0.0000]
 d_dipole_z/<atom=  20,z> =     0.0944     [    0.4532]
  
  
 HESSIAN: the Hessian is done
 
 
  Vibrational analysis via the FX method 
 
  See chapter 2 in "Molecular Vibrations" by Wilson, Decius and Cross
 
  Vib: Default input used 
 
  Nuclear Hessian passed symmetry test 
 


 ---------------------------- Atom information ----------------------------
     atom    #        X              Y              Z            mass
 --------------------------------------------------------------------------
    C        1  4.4749758D-01  2.6723874D+00  0.0000000D+00  1.2000000D+01
    C        2 -4.4749758D-01 -2.6723874D+00  0.0000000D+00  1.2000000D+01
    C        3  2.4882983D+00  9.2409607D-01  0.0000000D+00  1.2000000D+01
    C        4 -2.4882983D+00 -9.2409607D-01  0.0000000D+00  1.2000000D+01
    C        5  2.0537513D+00 -1.6903153D+00  0.0000000D+00  1.2000000D+01
    C        6 -2.0537513D+00  1.6903153D+00  0.0000000D+00  1.2000000D+01
    H        7  4.4367029D+00  1.6414812D+00  0.0000000D+00  1.0078250D+00
    H        8 -4.4367029D+00 -1.6414812D+00  0.0000000D+00  1.0078250D+00
    H        9  3.6616122D+00 -2.9988792D+00  0.0000000D+00  1.0078250D+00
    H       10 -3.6616122D+00  2.9988792D+00  0.0000000D+00  1.0078250D+00
    C       11 -1.0100734D+00 -5.4464326D+00  0.0000000D+00  1.2000000D+01
    C       12  1.0100734D+00  5.4464326D+00  0.0000000D+00  1.2000000D+01
    H       13 -3.0359538D+00 -5.9203095D+00  0.0000000D+00  1.0078250D+00
    H       14  3.0359538D+00  5.9203095D+00  0.0000000D+00  1.0078250D+00
    C       15  6.8822428D-01 -7.3355000D+00  0.0000000D+00  1.2000000D+01
    C       16 -6.8822428D-01  7.3355000D+00  0.0000000D+00  1.2000000D+01
    H       17  2.7310868D+00 -6.9947119D+00  0.0000000D+00  1.0078250D+00
    H       18 -2.7310868D+00  6.9947119D+00  0.0000000D+00  1.0078250D+00
    H       19  9.0996939D-02 -9.3199828D+00  0.0000000D+00  1.0078250D+00
    H       20 -9.0996939D-02  9.3199828D+00  0.0000000D+00  1.0078250D+00
 --------------------------------------------------------------------------




          ----------------------------------------------------
          MASS-WEIGHTED NUCLEAR HESSIAN (Hartree/Bohr/Bohr/Kamu)
          ----------------------------------------------------


               1            2            3            4            5            6            7            8            9           10
   ----- ----- ----- ----- -----
    1    6.04374D+01
    2    1.45018D-01  5.88029D+01
    3   -1.01759D-07  8.67625D-08  1.31742D+01
    4   -7.00926D+00  1.31541D+00  5.06182D-08  6.04374D+01
    5    1.31542D+00  8.54330D-01 -6.28673D-08  1.45018D-01  5.88029D+01
    6    8.89542D-09  1.01108D-07 -7.46925D-01  3.01185D-07 -1.40403D-08  1.31742D+01
    7   -2.21704D+01  1.15478D+01  5.34921D-08  1.76196D+00 -3.07972D+00  3.39112D-08  6.86237D+01
    8    4.45975D+00 -1.74172D+01 -1.06132D-07 -9.06161D+00 -1.31707D+00 -9.90267D-08  4.62166D+00  6.31127D+01
    9   -4.07185D-08  1.84672D-07 -5.54021D+00  2.20927D-07 -7.95314D-08  5.76233D-01 -1.70335D-07  2.40533D-07  1.17734D+01
   10    1.76196D+00 -3.07972D+00 -9.30751D-09 -2.21704D+01  1.15478D+01 -2.05926D-08 -6.73487D-01  2.26194D+00 -4.89953D-08  6.86237D+01
   11   -9.06161D+00 -1.31707D+00  2.68781D-08  4.45975D+00 -1.74172D+01  3.08689D-08  2.26195D+00 -6.38059D+00  2.05366D-08  4.62166D+00
   12    6.34194D-09  1.71933D-07  5.76233D-01  2.72029D-07 -1.01047D-07 -5.54021D+00  4.46303D-08  2.15980D-07 -5.95434D-01 -9.72610D-08
   13    5.11191D+00  8.53445D-01  4.74728D-08 -2.64808D+01 -8.05824D+00  6.33954D-08 -1.28548D+01  1.13600D+00  9.23092D-08 -4.97375D+00
   14    6.70446D+00 -4.60701D+00  1.56169D-07 -1.29238D+00 -1.28898D+01  2.17131D-08 -7.41516D+00 -3.14755D+01 -2.95456D-08 -4.89514D-01
   15    1.04744D-08 -1.76274D-07  5.86589D-01 -3.27066D-07  6.74654D-08 -5.64465D+00 -4.57122D-08 -2.57226D-07 -5.20434D+00  1.37723D-07
   16   -2.64808D+01 -8.05824D+00 -2.86665D-08  5.11191D+00  8.53444D-01 -1.63900D-08 -4.97375D+00  4.43989D+00  3.13243D-08 -1.28548D+01
   17   -1.29238D+00 -1.28898D+01  8.67731D-08  6.70446D+00 -4.60701D+00 -4.65405D-08 -4.89514D-01  6.23001D+00 -1.01118D-07 -7.41516D+00
   18    6.50486D-08 -1.64151D-07 -5.64465D+00 -2.76160D-07  7.94932D-08  5.86589D-01 -1.50272D-08 -2.39083D-07  5.39339D-01  1.63476D-07
   19   -4.19870D+00 -3.86491D+00 -2.75171D-07  3.51247D-01  1.09607D-02  5.32204D-08 -1.05255D+02 -3.16207D+01  2.83560D-07  3.00426D-01
   20    6.73079D+00  2.87479D+00 -1.06482D-07  4.26936D-01 -1.50726D+00 -1.47491D-08 -3.16260D+01 -3.05529D+01  7.42656D-08  1.72458D-01
   21    7.78676D-09  1.41771D-07  6.90143D-01 -4.48206D-08 -5.79436D-08  2.53483D+00 -1.22126D-08 -1.79682D-08 -1.14697D+01  1.88305D-08
   22    3.51247D-01  1.09605D-02 -1.94653D-07 -4.19869D+00 -3.86491D+00  1.44070D-07  3.00426D-01  2.26315D-01  3.28257D-07 -1.05255D+02
   23    4.26936D-01 -1.50726D+00 -2.02920D-08  6.73079D+00  2.87479D+00  5.81736D-08  1.72458D-01 -1.44168D-01  9.29675D-08 -3.16260D+01
   24    5.26687D-08  1.03635D-07  2.53483D+00 -2.40633D-09 -1.03700D-07  6.90143D-01  1.29049D-08  1.29598D-08 -2.58701D-01  3.29730D-08
   25    4.30850D-02 -5.24135D-01  6.18793D-08 -4.33608D+00  6.47247D+00 -1.12505D-07  2.61180D+00 -3.25970D+00 -1.80234D-07 -1.07006D+00
   26   -9.70327D-01 -1.15601D+00  1.28795D-08 -4.02162D+00  3.68357D+00  1.10907D-07  8.13453D+00 -3.85907D+00  1.00162D-07 -7.35417D-01
   27   -2.87176D-08  2.50723D-09  2.54252D+00 -1.54920D-07 -6.67134D-08  8.13590D-01 -2.18800D-08 -1.70279D-07  1.04353D+00  1.22434D-07
   28   -4.33608D+00  6.47247D+00  2.56430D-07  4.30847D-02 -5.24134D-01  7.25002D-08 -1.07006D+00 -1.17384D+00 -6.93950D-09  2.61180D+00
   29   -4.02162D+00  3.68357D+00 -1.68942D-07 -9.70327D-01 -1.15601D+00 -7.13052D-08 -7.35417D-01 -4.41294D-01 -4.36665D-08  8.13453D+00
   30    4.49280D-08  1.95756D-08  8.13590D-01 -7.60490D-08 -1.59421D-08  2.54252D+00 -6.73633D-08 -1.35326D-07  2.22042D+00  9.87459D-08
   31   -1.82942D-02  1.29662D-01 -3.95311D-08 -1.02961D+01 -4.67909D+00  9.48231D-09 -5.34833D-01 -7.17946D-02  4.39636D-08  5.38827D-01
   32   -2.84550D-02 -5.03069D-01 -5.87693D-09 -2.21548D+00 -1.97807D+01 -2.62726D-08 -1.40754D-01  8.43436D-01 -4.53976D-08  5.46599D-01
   33    1.24288D-08 -9.68048D-08 -8.16109D-02  7.47465D-09  5.94988D-08 -5.28412D+00 -9.85701D-09 -3.34609D-10  5.74079D-01  1.51083D-08
   34   -1.02961D+01 -4.67909D+00 -3.92145D-08 -1.82941D-02  1.29662D-01  1.10329D-08  5.38827D-01  2.66579D+00  3.51923D-08 -5.34833D-01
   35   -2.21548D+00 -1.97807D+01  3.85676D-08 -2.84551D-02 -5.03069D-01  2.90272D-08  5.46599D-01 -3.70772D+00  6.92139D-09 -1.40754D-01
   36   -1.93723D-08 -8.80856D-08 -5.28412D+00 -3.06725D-08  6.42729D-08 -8.16109D-02 -2.28833D-08 -2.86516D-08  3.30910D-01  7.54410D-09
   37    5.14075D-02  1.70449D-02 -7.22088D-08 -6.98814D-01  1.07917D+00 -1.43276D-07 -4.55008D-02  4.80537D-02 -1.96351D-07  4.29264D-01
   38    2.18956D-02  4.68804D-02  1.64502D-08 -9.13432D+00 -1.91337D+00 -8.43202D-09 -4.89753D-01  7.72668D-02 -1.34479D-08 -6.41436D-01
   39    1.05276D-08  4.01166D-08  2.88619D-02 -7.26513D-08 -4.36002D-08  6.69725D-01  1.46455D-09 -8.11642D-08  7.31272D-04  6.10904D-09
   40   -6.98813D-01  1.07917D+00  9.09692D-08  5.14073D-02  1.70449D-02  2.24438D-09  4.29264D-01  7.01796D-01 -7.98635D-08 -4.55009D-02
   41   -9.13432D+00 -1.91337D+00  5.63139D-09  2.18957D-02  4.68804D-02  1.20055D-08 -6.41436D-01  5.13506D-01  1.29649D-08 -4.89753D-01
   42    1.56631D-08  3.01215D-08  6.69725D-01 -9.39947D-08 -2.96258D-08  2.88619D-02  2.94468D-08 -2.29879D-08 -2.50496D-01  5.04937D-08
   43    6.92600D-03 -1.62185D-01  4.73248D-08  1.44632D+00  1.09117D+00  3.85663D-08 -5.20733D-02  2.47140D-01  3.12375D-08  8.62224D-02
   44    7.75849D-02  1.51945D-01  9.78098D-10  1.79285D+00 -4.01853D+00 -3.07052D-08  1.20646D-01 -1.41699D-01 -5.05972D-08 -5.87590D-01
   45   -4.14527D-08 -3.75705D-08 -3.41804D-03 -4.16179D-08  2.50914D-08  4.57965D-01  9.70149D-09 -1.71781D-08 -3.83696D-02 -1.72911D-08
   46    1.44632D+00  1.09117D+00  2.01771D-08  6.92602D-03 -1.62185D-01  1.31051D-08  8.62224D-02 -5.93068D-01 -6.61057D-09 -5.20733D-02
   47    1.79286D+00 -4.01853D+00  4.98932D-08  7.75848D-02  1.51945D-01  1.27358D-08 -5.87590D-01  2.41124D-01 -1.21182D-08  1.20646D-01
   48    2.33900D-08 -3.24978D-08  4.57965D-01  1.59038D-08  2.43463D-08 -3.41803D-03  1.74179D-08  2.76830D-08  1.20066D-01 -1.04050D-08
   49   -2.26099D-02 -3.50816D-02  4.63749D-09  1.37013D-01 -3.99513D-01 -1.91128D-08  1.12157D-01 -9.90600D-03 -7.81591D-08 -3.08847D-02
   50   -7.35211D-04 -1.25541D-02  3.53251D-10 -4.34934D-01  4.60545D-01  2.81650D-08 -7.14579D-02  5.02110D-02 -4.30681D-09 -1.70384D-02
   51    3.14690D-08 -9.32440D-08 -2.28228D-02 -2.16744D-07  4.64271D-08 -2.36391D+00  6.37635D-10 -1.69383D-07  3.99608D-02  1.33882D-07
   52    1.37013D-01 -3.99513D-01 -4.92252D-08 -2.26102D-02 -3.50818D-02 -5.89859D-08 -3.08847D-02 -4.38055D-02 -5.73629D-08  1.12156D-01
   53   -4.34934D-01  4.60545D-01 -8.93073D-08 -7.35287D-04 -1.25542D-02 -7.77705D-08 -1.70384D-02  4.43980D-03 -1.02105D-07 -7.14579D-02
   54    4.10021D-08 -9.29076D-08 -2.36391D+00 -1.78760D-07  5.09361D-08 -2.28227D-02 -4.61002D-08 -1.20662D-07  9.55484D-03  6.40508D-08
   55    1.66513D-02 -1.82573D-02 -5.46922D-08 -9.69337D-01  3.56634D-01 -4.98776D-08  6.08733D-02 -3.16242D-03  2.60747D-08  2.28766D-01
   56    4.54457D-02  3.47244D-02 -3.51460D-08  7.91732D-01 -9.96587D-03  2.79123D-08 -6.59743D-02  3.98604D-03  8.86278D-08 -1.42726D-01
   57    3.93015D-08 -3.67679D-08  4.37356D-02 -1.70823D-07 -2.69229D-08  3.71014D+00 -2.38640D-08 -1.20949D-07 -9.35090D-02  6.73460D-08
   58   -9.69337D-01  3.56634D-01  3.10303D-08  1.66514D-02 -1.82573D-02  5.02906D-08  2.28766D-01  2.65086D-01  7.79949D-08  6.08733D-02
   59    7.91732D-01 -9.96589D-03  2.51980D-09  4.54460D-02  3.47244D-02  5.07724D-08 -1.42726D-01 -1.13195D-01  1.05303D-07 -6.59743D-02
   60    1.45355D-08 -1.93043D-08  3.71014D+00 -2.10423D-07  1.60273D-08  4.37356D-02  7.72846D-10 -1.50739D-07  7.76722D-03  8.71704D-08


              11           12           13           14           15           16           17           18           19           20
   ----- ----- ----- ----- -----
   11    6.31127D+01
   12   -2.93730D-07  1.17734D+01
   13    4.43989D+00  1.11184D-08  6.51305D+01
   14    6.23001D+00  1.14184D-07 -5.68229D+00  6.65665D+01
   15    3.74441D-07  5.39339D-01  9.07568D-08 -8.17438D-08  1.17907D+01
   16    1.13600D+00 -4.98891D-08 -2.66818D+00 -3.53321D+00  3.62315D-08  6.51305D+01
   17   -3.14755D+01  4.07755D-08 -3.53321D+00 -4.23563D+00 -1.08579D-07 -5.68229D+00  6.65665D+01
   18    4.00115D-07 -5.20434D+00  7.67078D-08 -1.11680D-07 -5.38108D-01  2.20586D-08  3.64421D-08  1.17907D+01
   19    2.26315D-01 -2.06984D-07  4.79810D-01  1.79591D+00  4.43238D-07 -4.42551D-01  1.15903D+00 -2.29341D-07  3.73232D+02
   20   -1.44168D-01 -7.00565D-08 -9.54768D+00 -1.69281D+00  1.48188D-07  7.09920D-01 -1.04303D+00 -5.25375D-08  1.13654D+02  1.06909D+02
   21   -5.95287D-08 -2.58701D-01 -2.79959D-08  2.64490D-08  9.71427D-01  1.33574D-07 -4.14590D-08  2.12732D+00 -9.25463D-08  2.34265D-08
   22   -3.16207D+01 -1.48793D-07 -4.42551D-01  1.15903D+00  3.78125D-07  4.79810D-01  1.79591D+00 -2.92690D-07 -1.93097D-01 -1.70854D-01
   23   -3.05529D+01 -2.69032D-08  7.09920D-01 -1.04303D+00  9.76910D-08 -9.54768D+00 -1.69281D+00 -1.08574D-07 -1.70869D-01  1.17985D-01
   24   -7.05960D-09 -1.14697D+01 -1.17606D-07  3.85482D-08  2.12732D+00  3.70883D-08 -2.18497D-08  9.71427D-01 -1.81008D-08  2.33839D-08
   25   -1.17384D+00  4.02614D-08 -7.85167D+01  4.84365D+01  1.27192D-07  1.28176D-01 -3.00486D-01 -1.86401D-08  1.16134D+00  1.83771D-02
   26   -4.41294D-01  9.45193D-09  4.81975D+01 -5.80304D+01 -1.82774D-07 -2.74557D-01  2.09582D-02  2.79036D-08  1.91132D-01  1.85778D+00
   27    1.53830D-07  2.22042D+00  5.95075D-08 -2.36677D-08 -1.15728D+01  1.01589D-07  2.71729D-08 -2.66919D-01  3.73873D-09  3.68470D-07
   28   -3.25970D+00  2.15570D-07  1.28176D-01 -3.00486D-01 -1.55192D-07 -7.85167D+01  4.84365D+01 -2.88995D-07 -7.95625D-01  1.12036D+00
   29   -3.85907D+00 -1.43604D-07 -2.74556D-01  2.09583D-02  5.85755D-08  4.81975D+01 -5.80304D+01  2.60296D-07 -6.75053D-01  6.07637D-01
   30    1.63370D-07  1.04353D+00 -3.07315D-08 -4.68360D-08 -2.66919D-01  2.16457D-08  7.53360D-09 -1.15728D+01 -5.72041D-09  3.33577D-07
   31    2.66579D+00 -1.79156D-08  1.03842D-01 -2.78258D+00  7.74997D-08 -4.12337D-01  7.78948D-02 -4.86951D-08  2.39047D-02 -4.43949D-01
   32   -3.70772D+00 -2.04932D-09 -1.77400D+00 -2.09789D+00  7.69970D-08  5.21244D-01  5.70082D-01 -2.44882D-08  2.32763D-02  5.96867D-02
   33    6.10522D-08  3.30910D-01  1.59910D-08 -4.30202D-08  2.32834D-01 -2.88115D-08  8.81916D-09  6.16710D-01 -5.89445D-08  7.37337D-08
   34   -7.17946D-02 -2.51833D-08 -4.12337D-01  7.78947D-02  7.77558D-08  1.03842D-01 -2.78258D+00 -5.23593D-08  4.46703D-01  5.83253D-01
   35    8.43436D-01  5.08222D-08  5.21244D-01  5.70082D-01 -1.89593D-09 -1.77400D+00 -2.09789D+00 -9.67614D-08 -5.97896D-01  4.38697D-01
   36    3.00620D-08  5.74079D-01  3.97088D-08 -2.24213D-08  6.16710D-01 -6.21797D-09  2.93753D-08  2.32834D-01 -1.66352D-08  8.54899D-08
   37    7.01796D-01 -4.76123D-08  1.99702D-01  3.07317D-02  5.79880D-08 -3.34747D-02 -9.84295D-03  1.96812D-07  3.10703D-02 -4.64571D-02
   38    5.13506D-01  3.17421D-09  5.21255D-01 -1.53135D+00  3.20849D-08  3.59649D-02  4.70678D-02 -3.12910D-08  1.57294D-02 -4.65384D-01
   39    3.06600D-08 -2.50496D-01  6.20263D-09  4.85413D-08  7.02054D-01  5.88180D-08 -1.61812D-08 -7.77808D-03 -6.10932D-08  1.72836D-07
   40    4.80536D-02  9.06954D-08 -3.34747D-02 -9.84283D-03 -1.19944D-07  1.99702D-01  3.07317D-02  2.50846D-08  8.12630D-02 -4.05676D-01
   41    7.72667D-02  1.90706D-08  3.59648D-02  4.70678D-02  9.80758D-09  5.21255D-01 -1.53135D+00 -3.85673D-08  5.11826D-01 -1.00673D-01
   42    4.71147D-08  7.31292D-04 -4.79943D-08  2.81878D-08 -7.77812D-03  7.87495D-10 -4.17641D-09  7.02054D-01 -2.35339D-08  4.62430D-08
   43   -5.93068D-01  4.59260D-08 -4.21082D-01 -4.28857D-01 -3.54208D-08  1.64607D-01  1.24311D-01 -1.09270D-07 -1.52904D-03 -6.48752D-03
   44    2.41124D-01 -7.10664D-09  5.28284D-01  3.25691D-01 -2.73533D-08 -7.32970D-02 -2.66607D-01  5.29532D-08 -3.92299D-03  1.61703D-02
   45    2.89364D-09  1.20066D-01  3.69893D-08  1.60122D-08  3.65405D-02 -1.11545D-09  2.08147D-08 -8.79607D-03  5.41444D-08  3.40288D-08
   46    2.47140D-01  1.33157D-08  1.64607D-01  1.24311D-01  3.63728D-08 -4.21082D-01 -4.28857D-01 -3.70681D-08  4.82115D-02 -8.51074D-02
   47   -1.41699D-01  3.38110D-08 -7.32970D-02 -2.66607D-01 -6.64542D-08  5.28284D-01  3.25691D-01  1.90705D-08 -2.89843D-02 -1.83912D-02
   48    4.91082D-08 -3.83696D-02 -6.58388D-09 -2.53718D-08 -8.79607D-03 -4.10328D-08 -2.65951D-08  3.65405D-02 -1.14491D-08 -1.84673D-09
   49   -4.38055D-02 -3.32065D-08  1.43468D-01 -3.08773D-01 -1.43671D-07 -5.06452D-02  9.10414D-03  2.42916D-07  1.25777D-03 -2.61998D-02
   50    4.43984D-03  1.55274D-08  3.79493D-01 -3.83740D-01 -8.70283D-08 -3.78815D-02  1.47714D-02  1.09123D-07 -2.35623D-02 -3.46627D-02
   51    1.81092D-07  9.55482D-03  4.04002D-08 -3.04150D-08  5.10346D-02  3.66412D-08  2.81538D-08  7.58405D-02 -1.05167D-07  4.52188D-07
   52   -9.90599D-03 -2.67921D-08 -5.06450D-02  9.10449D-03 -1.47982D-07  1.43468D-01 -3.08774D-01  2.33554D-07 -3.80003D-02 -2.67262D-02
   53    5.02111D-02 -8.13015D-08 -3.78814D-02  1.47716D-02 -5.09728D-09  3.79493D-01 -3.83740D-01  1.97756D-07 -7.70161D-02  8.47712D-02
   54    2.27444D-07  3.99608D-02  5.19654D-08 -5.67988D-08  7.58404D-02  5.65232D-08  1.24671D-08  5.10346D-02 -4.50865D-09  4.34647D-07
   55    2.65086D-01 -2.38810D-08 -1.59510D-01 -4.43683D-02  1.66800D-07 -7.61221D-02  1.55593D-02 -9.74999D-09  6.91108D-03  4.80273D-02
   56   -1.13195D-01 -1.49241D-08  6.34016D-02  1.36200D-01  1.48115D-07  1.21547D-01 -5.70976D-02 -1.45823D-07  1.13997D-02 -1.55428D-02
   57    1.94206D-07  7.76719D-03  4.14708D-08 -4.20064D-08 -1.26273D-01  2.50523D-08  2.46739D-08 -2.58694D-01 -2.84619D-09  3.82189D-07
   58   -3.16240D-03  1.56768D-08 -7.61222D-02  1.55590D-02  2.28429D-08 -1.59510D-01 -4.43681D-02 -1.62118D-07  3.66430D-02  5.06389D-04
   59    3.98608D-03  5.63548D-10  1.21547D-01 -5.70979D-02  8.74283D-08  6.34017D-02  1.36200D-01 -2.03042D-07  8.97905D-02 -2.26049D-02
   60    1.58878D-07 -9.35089D-02  5.64422D-08 -4.32257D-08 -2.58694D-01  3.84928D-08  4.75992D-08 -1.26273D-01  1.81554D-09  3.68262D-07


              21           22           23           24           25           26           27           28           29           30
   ----- ----- ----- ----- -----
   21    2.82008D+01
   22   -2.70523D-07  3.73232D+02
   23   -4.15098D-08  1.13654D+02  1.06909D+02
   24   -1.07318D+00  2.03947D-08 -1.24478D-08  2.82008D+01
   25    4.21012D-08 -7.95626D-01  1.12036D+00 -3.79789D-08  2.76993D+02
   26   -2.01131D-08 -6.75052D-01  6.07637D-01  1.08158D-07 -1.73688D+02  2.07214D+02
   27   -5.06423D+00 -2.84987D-08 -1.85070D-07  1.46964D-01  1.90507D-07  1.29903D-08  2.74011D+01
   28    1.35617D-07  1.16134D+00  1.83770D-02  4.73846D-08 -5.57550D-02  2.35550D-01 -3.69536D-07  2.76993D+02
   29   -8.28504D-08  1.91132D-01  1.85778D+00  2.74476D-08  2.35548D-01 -1.69929D-02  2.94206D-07 -1.73688D+02  2.07214D+02
   30    1.46964D-01 -3.32394D-08 -2.08272D-07 -5.06423D+00  2.09095D-07 -1.85726D-08 -1.16199D+00 -2.83592D-07 -5.41026D-08  2.74011D+01
   31   -5.53276D-09  4.46703D-01  5.83253D-01 -1.16029D-07  3.57323D-01  3.19089D-01 -4.49224D-08  1.36677D-01  3.97083D-01  5.25252D-08
   32    3.36494D-08 -5.97896D-01  4.38697D-01 -9.57050D-08  4.86503D-01 -1.06720D-02 -1.88973D-08 -6.75469D-02 -9.58895D-02  8.69418D-08
   33    4.52615D-02  1.22758D-08 -6.50192D-08 -1.11327D+00  1.93425D-08  7.08958D-09 -1.12327D+00  2.46269D-09 -1.19327D-08  9.77928D-03
   34    7.99119D-09  2.39048D-02 -4.43949D-01 -7.73808D-08  1.36677D-01  3.97083D-01 -2.72854D-09  3.57323D-01  3.19089D-01  6.03348D-08
   35    1.01522D-07  2.32763D-02  5.96867D-02 -7.04195D-08 -6.75466D-02 -9.58899D-02 -1.24998D-07  4.86503D-01 -1.06717D-02  2.01835D-09
   36   -1.11327D+00  3.93121D-08 -2.35907D-08  4.52615D-02  2.16543D-08 -1.90685D-08  9.77928D-03  4.09094D-09 -2.71899D-08 -1.12327D+00
   37   -2.67935D-08  8.12627D-02 -4.05676D-01  5.25624D-08  1.21924D-01  4.50806D-02  2.16588D-07  8.13469D-03  2.60106D-02  1.42301D-07
   38    4.19080D-08  5.11826D-01 -1.00673D-01 -2.24269D-08  3.27089D-03 -3.35581D-03  2.84385D-08  1.52111D-02 -1.25417D-03  3.07129D-08
   39   -2.24143D-01  2.00499D-08 -2.01509D-08 -5.44739D-02  1.21195D-07 -8.53073D-08 -6.45514D-02 -2.25179D-07 -7.34237D-09  1.52780D-02
   40    5.97851D-08  3.10702D-02 -4.64569D-02  1.14893D-07  8.13471D-03  2.60102D-02 -2.67662D-08  1.21924D-01  4.50810D-02 -7.95108D-08
   41   -3.72180D-08  1.57294D-02 -4.65384D-01 -4.43575D-08  1.52112D-02 -1.25418D-03 -1.75698D-08  3.27083D-03 -3.35583D-03 -4.30458D-08
   42   -5.44739D-02  4.51957D-08 -9.53320D-08 -2.24143D-01  2.10727D-07 -1.82332D-08  1.52780D-02 -1.14458D-07 -3.14056D-08 -6.45514D-02
   43    5.01122D-08  4.82114D-02 -8.51074D-02 -7.16369D-09  1.25471D-02 -5.90876D-01 -8.08924D-08 -2.27057D-02 -8.71331D-02 -7.65323D-08
   44    3.35493D-09 -2.89843D-02 -1.83911D-02  4.36294D-08  1.08875D-01 -2.98831D-01  4.79306D-08 -3.62024D-02 -1.00359D-01  2.01793D-08
   45    7.65830D-03  3.92806D-08  2.44631D-08  3.50651D-02  3.26445D-08 -4.19564D-08  6.79232D-02  4.25963D-08 -3.18427D-08 -3.19042D-02
   46    1.62883D-08 -1.52917D-03 -6.48761D-03 -5.96864D-08 -2.27056D-02 -8.71332D-02 -3.29145D-08  1.25470D-02 -5.90876D-01  1.43673D-09
   47    1.42239D-08 -3.92306D-03  1.61704D-02  7.65055D-08 -3.62025D-02 -1.00359D-01 -1.70877D-08  1.08875D-01 -2.98831D-01 -4.78949D-08
   48    3.50650D-02 -1.84454D-08 -3.38981D-08  7.65831D-03  1.78702D-08 -1.46430D-08 -3.19042D-02  2.68589D-08 -1.38658D-08  6.79232D-02
   49   -4.91226D-08 -3.80001D-02 -2.67257D-02  1.85531D-07  5.20095D-01 -2.82899D-01  1.13785D-07 -1.47170D-03 -7.81063D-03  1.75024D-08
   50   -1.37579D-08 -7.70159D-02  8.47716D-02  1.39293D-07 -7.21867D-01 -1.66456D+00  9.92064D-09  5.15489D-03 -1.26060D-03 -7.60781D-08
   51    1.33085D-02  3.02016D-08 -2.49752D-07 -8.74693D-02  3.06889D-07 -6.45778D-08  3.21835D-01 -2.91957D-07 -4.04140D-08 -3.94623D-03
   52   -2.54351D-08  1.25818D-03 -2.61991D-02  2.17026D-07 -1.47196D-03 -7.81077D-03  9.00696D-08  5.20095D-01 -2.82899D-01 -1.93066D-08
   53   -7.59855D-08 -2.35620D-02 -3.46625D-02  4.75285D-08  5.15474D-03 -1.26055D-03  1.82185D-07 -7.21867D-01 -1.66456D+00  3.43876D-08
   54   -8.74693D-02  6.69333D-08 -2.46807D-07  1.33086D-02  3.03592D-07 -9.45069D-08 -3.94630D-03 -3.31977D-07 -6.32713D-08  3.21835D-01
   55   -1.20493D-07  3.66429D-02  5.06004D-04 -1.01819D-07  3.28799D-01  2.46911D-01  6.29669D-08  3.50502D-02  1.14047D-01  6.93841D-08
   56   -7.44660D-09  8.97904D-02 -2.26054D-02 -1.56106D-07  3.10557D-02  1.24406D-01 -8.81751D-08 -3.74490D-02 -5.79718D-02  2.23467D-08
   57    4.60018D-03  3.23775D-08 -1.87553D-07  3.25314D-01  2.60318D-07 -9.89281D-08  1.32225D-01 -2.52055D-07 -6.89426D-08  7.18773D-03
   58   -2.03175D-08  6.91110D-03  4.80270D-02 -6.78406D-09  3.50503D-02  1.14047D-01 -7.97718D-08  3.28799D-01  2.46911D-01 -3.50781D-08
   59    9.69811D-09  1.13995D-02 -1.55433D-02 -1.64186D-07 -3.74489D-02 -5.79715D-02 -1.00039D-07  3.10555D-02  1.24406D-01  1.73606D-08
   60    3.25313D-01  3.88772D-08 -2.05788D-07  4.60022D-03  2.35977D-07 -5.26734D-08  7.18770D-03 -2.48598D-07 -3.98110D-08  1.32225D-01


              31           32           33           34           35           36           37           38           39           40
   ----- ----- ----- ----- -----
   31    7.32544D+01
   32   -1.18223D+01  6.42681D+01
   33    1.00837D-07 -5.46645D-08  1.15275D+01
   34   -1.37523D-02 -7.62558D-02 -2.39268D-08  7.32544D+01
   35   -7.62526D-02  2.73215D-01 -1.55816D-08 -1.18223D+01  6.42681D+01
   36    2.44974D-08 -2.33933D-08 -8.23506D-02 -2.82774D-07  1.02625D-07  1.15275D+01
   37   -1.09714D+02 -2.12658D+01  2.57935D-08  1.22527D-02  2.11143D-03  9.15869D-08  3.92896D+02
   38   -2.21073D+01 -2.37598D+01 -1.21627D-08  4.02467D-02  8.64903D-03 -2.43912D-09  7.49238D+01  8.59899D+01
   39    5.16661D-09  6.33361D-08 -1.27712D+01 -2.84269D-08 -9.07035D-08 -1.01822D-03  3.87182D-08 -2.36964D-08  3.00155D+01
   40    1.22531D-02  2.11134D-03 -1.92841D-09 -1.09714D+02 -2.12658D+01  3.73227D-08 -7.29271D-03  5.33745D-04  1.70604D-09  3.92896D+02
   41    4.02467D-02  8.64901D-03 -1.73945D-08 -2.21073D+01 -2.37598D+01  2.59938D-08  5.34365D-04 -1.95065D-04  4.06753D-08  7.49238D+01
   42    5.30650D-08  9.23515D-08 -1.01826D-03 -4.24176D-08 -3.41327D-08 -1.27712D+01 -8.90968D-08 -1.58070D-07 -4.37972D-04 -6.85653D-08
   43   -3.08028D+01  1.93772D+01 -2.98512D-08  1.02829D-03  9.97317D-02 -1.78133D-08 -4.51872D+00  9.25799D+00 -1.80751D-08 -3.72396D-03
   44    2.12255D+01 -3.26592D+01  3.83822D-08  3.90902D-02 -8.44001D-02 -9.14549D-09 -2.77540D+00  2.37438D+00 -1.71905D-08 -5.34946D-03
   45    2.09722D-09 -1.35413D-08 -4.38015D+00  7.01579D-09  4.35506D-08  7.55744D-03 -3.91984D-08  3.94567D-09  1.65027D+00  3.89275D-08
   46    1.02833D-03  9.97317D-02 -4.36202D-10 -3.08028D+01  1.93772D+01  1.17506D-08 -3.72408D-03 -8.48256D-03 -4.56313D-08 -4.51872D+00
   47    3.90904D-02 -8.44001D-02  2.22917D-08  2.12255D+01 -3.26592D+01 -1.91529D-08 -5.34967D-03 -1.90897D-02 -1.41158D-08 -2.77540D+00
   48    6.36581D-09 -4.98860D-08  7.55743D-03  4.57973D-09  1.96478D-08 -4.38015D+00 -5.92372D-08 -9.02945D-09 -1.30286D-03  1.19837D-08
   49   -3.93892D+00 -2.31117D+00  4.91875D-08  5.33323D-02  2.32486D-02  6.41893D-08 -5.72312D-01  2.24288D+00  1.06015D-07 -7.92198D-03
   50    8.58324D+00  3.33058D+00  3.57109D-09 -8.03462D-03  3.83505D-03  1.60738D-08  2.12155D+00 -3.71570D+00  8.06271D-08  6.18212D-04
   51    8.81344D-08  9.58627D-08  1.37919D+00 -1.65367D-08  2.42676D-08  1.74383D-02 -4.87381D-07 -1.94480D-07  1.39439D+01  3.59955D-07
   52    5.33325D-02  2.32485D-02 -8.83403D-09 -3.93892D+00 -2.31117D+00  3.27163D-08 -7.92200D-03 -2.48625D-02  1.52407D-07 -5.72312D-01
   53   -8.03459D-03  3.83501D-03  3.13098D-08  8.58324D+00  3.33058D+00  5.83700D-08  6.18244D-04 -4.67344D-03  1.84849D-07  2.12155D+00
   54    7.51536D-08  2.99416D-08  1.74383D-02 -2.15556D-08 -4.04150D-08  1.37919D+00 -4.55368D-07 -1.87342D-07  2.79924D-03  3.71273D-07
   55    2.84420D+00  8.23716D+00 -8.72222D-11 -1.77256D-02 -1.44321D-02 -5.02666D-08  1.92434D+00 -5.65626D-02 -7.70663D-08  5.40215D-03
   56   -3.57319D+00 -4.53349D+00 -4.81228D-08 -2.90160D-02 -1.56276D-02  2.03688D-08 -1.42312D-01  1.64639D+00 -9.26954D-08  2.28447D-03
   57    3.81078D-08  8.13725D-08  1.61487D+00 -4.81709D-08 -6.13038D-08 -2.16509D-03 -3.65357D-07 -1.60299D-07 -9.19877D+00  3.55337D-07
   58   -1.77259D-02 -1.44320D-02 -1.28444D-08  2.84420D+00  8.23716D+00 -5.53066D-08  5.40251D-03  1.98358D-02 -1.28059D-08  1.92434D+00
   59   -2.90163D-02 -1.56275D-02 -9.95843D-08 -3.57319D+00 -4.53349D+00 -1.95513D-08  2.28476D-03  1.10359D-02 -4.28027D-08 -1.42312D-01
   60    1.00946D-07  9.20772D-08 -2.16515D-03  2.35528D-09 -4.58017D-08  1.61487D+00 -4.51601D-07 -2.22266D-07  2.82891D-03  2.61969D-07


              41           42           43           44           45           46           47           48           49           50
   ----- ----- ----- ----- -----
   41    8.59899D+01
   42    3.67285D-08  3.00155D+01
   43   -8.48255D-03  1.05474D-07  7.25692D+01
   44   -1.90896D-02 -7.86796D-09 -8.85249D+00  7.42920D+01
   45    1.24970D-08 -1.30287D-03 -1.06560D-07  4.58350D-08  9.49609D+00
   46    9.25799D+00  6.52254D-08  2.22376D-02 -4.07853D-02 -7.07380D-09  7.25692D+01
   47    2.37438D+00 -1.63439D-08 -4.07849D-02  1.73304D-02  1.40644D-09 -8.85249D+00  7.42920D+01
   48    3.09959D-09  1.65027D+00  2.19755D-08  1.62876D-08  9.51771D-04  4.15038D-08 -1.70573D-07  9.49609D+00
   49   -2.48625D-02 -2.75382D-07 -1.15043D+02 -1.70497D+01 -1.79138D-08 -2.01876D-02 -2.89290D-02 -6.81685D-08  4.10714D+02
   50   -4.67346D-03 -2.85986D-07 -1.76171D+01 -2.32518D+01 -2.54150D-08 -3.97292D-04  2.03521D-03 -6.43179D-09  6.01944D+01  7.17950D+01
   51    1.30149D-07  2.79918D-03  3.84838D-08 -7.93823D-08 -1.11501D+01 -1.59845D-07  8.64856D-09 -7.94521D-04 -5.29985D-08  1.92499D-07
   52    2.24288D+00 -2.70148D-07 -2.01879D-02 -2.89288D-02  2.24209D-08 -1.15043D+02 -1.70497D+01 -2.73156D-08 -5.75509D-02 -3.04072D-03
   53   -3.71570D+00 -1.78764D-07 -3.97446D-04  2.03527D-03 -1.48060D-08 -1.76171D+01 -2.32518D+01 -8.38694D-09 -3.04218D-03 -1.60334D-03
   54    1.38081D-07  1.39439D+01  6.69603D-08 -2.46572D-08 -7.94542D-04 -1.82362D-07  4.71923D-08 -1.11501D+01 -5.85319D-08  1.86222D-07
   55    1.98357D-02  2.97084D-08 -2.89072D+01 -2.92941D+01  7.77766D-09  9.75020D-03  1.36420D-02 -5.29735D-09 -1.13596D+00 -2.96567D+01
   56    1.10357D-02  1.19878D-07 -2.83534D+01 -1.09348D+02  9.72457D-09  1.14581D-02  1.33549D-02 -1.18544D-09  7.45709D+00  1.82264D+00
   57    1.66050D-07  2.82880D-03  3.91019D-08 -8.91436D-08 -1.02017D+01 -1.12650D-07  3.64046D-08 -4.26049D-03 -1.44387D-08  2.20302D-07
   58   -5.65627D-02  1.16617D-07  9.75032D-03  1.36419D-02  2.85761D-08 -2.89072D+01 -2.92941D+01  4.16401D-08  3.18435D-02 -1.57970D-03
   59    1.64639D+00  1.91512D-07  1.14583D-02  1.33547D-02  5.29066D-08 -2.83534D+01 -1.09348D+02  3.16042D-08  3.17501D-02  5.09659D-03
   60    1.19751D-07 -9.19877D+00  3.96170D-08 -7.11430D-08 -4.26045D-03 -9.48601D-08  1.38612D-08 -1.02017D+01  2.76559D-08  1.89551D-07


              51           52           53           54           55           56           57           58           59           60
   ----- ----- ----- ----- -----
   51    2.48883D+01
   52    5.66170D-08  4.10714D+02
   53    2.60541D-08  6.01944D+01  7.17950D+01
   54    1.87382D-02  2.99451D-07 -2.23199D-07  2.48883D+01
   55   -3.95488D-08  3.18432D-02 -1.58002D-03  9.36615D-08  9.18431D+01
   56   -1.71022D-08  3.17502D-02  5.09607D-03  2.42595D-08  9.99948D+01  3.89497D+02
   57    2.20870D+00  1.59467D-07 -2.54573D-07 -2.04470D-02  1.63913D-07  8.12515D-08  2.48339D+01
   58   -6.28116D-08 -1.13596D+00 -2.96567D+01  5.88705D-08 -1.36540D-02 -1.77510D-02  5.18462D-08  9.18431D+01
   59   -3.34808D-08  7.45709D+00  1.82264D+00 -5.21509D-09 -1.77421D-02 -2.31193D-02  1.41379D-07  9.99948D+01  3.89497D+02
   60   -2.04471D-02  1.59670D-07 -2.54304D-07  2.20870D+00  1.80819D-07  1.31217D-07  2.76930D-02 -1.51281D-07 -7.31840D-08  2.48339D+01



          -------------------------------------------------
          NORMAL MODE EIGENVECTORS IN CARTESIAN COORDINATES
          -------------------------------------------------
                 (Frequencies expressed in cm-1)

                    1           2           3           4           5           6
 
 Frequency         -9.92       -1.35        3.25        6.84        9.12       17.92
 
           1     0.00000    -0.00001    -0.08510     0.02117    -0.04865    -0.00000
           2     0.00000    -0.00000     0.02113     0.08511     0.00812     0.00000
           3     0.03217     0.08767    -0.00001     0.00000     0.00000     0.04614
           4     0.00000    -0.00001    -0.08510     0.02116     0.04865     0.00000
           5     0.00000    -0.00000     0.02113     0.08511    -0.00810     0.00000
           6    -0.03217     0.08767    -0.00001     0.00000     0.00000    -0.04614
           7     0.00000    -0.00001    -0.08510     0.02117    -0.01678     0.00000
           8     0.00000    -0.00000     0.02113     0.08510     0.04526     0.00000
           9    -0.04862     0.08766    -0.00001     0.00000     0.00000     0.11745
          10     0.00000    -0.00001    -0.08510     0.02117     0.01679     0.00000
          11     0.00000     0.00000     0.02113     0.08511    -0.04524     0.00000
          12     0.04862     0.08766    -0.00001     0.00000     0.00000    -0.11745
          13     0.00000    -0.00001    -0.08510     0.02117     0.03079     0.00000
          14     0.00000    -0.00000     0.02113     0.08510     0.03735     0.00000
          15    -0.07995     0.08766    -0.00001     0.00000     0.00000     0.07249
          16     0.00000    -0.00001    -0.08510     0.02118    -0.03078    -0.00000
          17     0.00000    -0.00000     0.02113     0.08510    -0.03733     0.00000
          18     0.07995     0.08766    -0.00000     0.00000     0.00000    -0.07249
          19     0.00000    -0.00001    -0.08510     0.02118    -0.02985    -0.00000
          20    -0.00000    -0.00000     0.02112     0.08510     0.08072     0.00000
          21    -0.08655     0.08766    -0.00001     0.00000    -0.00000     0.20950
          22     0.00000    -0.00001    -0.08510     0.02117     0.02985     0.00000
          23     0.00000     0.00000     0.02112     0.08511    -0.08070    -0.00000
          24     0.08655     0.08766    -0.00000     0.00000     0.00000    -0.20950
          25     0.00000    -0.00001    -0.08510     0.02115     0.05461     0.00000
          26     0.00000    -0.00000     0.02113     0.08506     0.06667     0.00000
          27    -0.14262     0.08766    -0.00001     0.00000    -0.00000     0.13082
          28     0.00000    -0.00001    -0.08510     0.02116    -0.05461    -0.00000
          29     0.00000     0.00000     0.02113     0.08508    -0.06665    -0.00000
          30     0.14262     0.08766    -0.00000     0.00000     0.00000    -0.13082
          31     0.00000    -0.00001    -0.08510     0.02110     0.09912     0.00000
          32     0.00000    -0.00000     0.02113     0.08513    -0.01834     0.00000
          33    -0.06285     0.08768    -0.00001     0.00000     0.00000    -0.09792
          34     0.00000    -0.00000    -0.08509     0.02113    -0.09912    -0.00000
          35     0.00000    -0.00000     0.02113     0.08512     0.01836     0.00000
          36     0.06285     0.08768    -0.00000     0.00000     0.00000     0.09792
          37     0.00000    -0.00001    -0.08509     0.02109     0.10769     0.00000
          38     0.00000     0.00000     0.02112     0.08519    -0.05506    -0.00000
          39    -0.01413     0.08765    -0.00001     0.00000     0.00000    -0.18835
          40     0.00000    -0.00000    -0.08509     0.02111    -0.10769    -0.00000
          41     0.00000    -0.00000     0.02112     0.08518     0.05508     0.00000
          42     0.01413     0.08765    -0.00001     0.00000     0.00000     0.18835
          43     0.00000    -0.00001    -0.08509     0.02101     0.13341     0.00000
          44     0.00000    -0.00000     0.02113     0.08505     0.01250     0.00000
          45    -0.14239     0.08772    -0.00001     0.00000     0.00000    -0.04423
          46     0.00000    -0.00000    -0.08508     0.02105    -0.13341    -0.00000
          47     0.00000    -0.00000     0.02113     0.08505    -0.01248     0.00000
          48     0.14239     0.08772    -0.00000     0.00000     0.00000     0.04423
          49     0.00000    -0.00001    -0.08509     0.02104     0.12725     0.00000
          50     0.00000    -0.00000     0.02114     0.08491     0.04950     0.00000
          51    -0.19452     0.08775    -0.00001     0.00000    -0.00000     0.04586
          52     0.00000    -0.00000    -0.08509     0.02107    -0.12725    -0.00000
          53     0.00000     0.00000     0.02114     0.08492    -0.04948     0.00000
          54     0.19452     0.08775    -0.00000     0.00000     0.00000    -0.04586
          55     0.00000    -0.00001    -0.08508     0.02090     0.16929     0.00000
          56     0.00000    -0.00000     0.02113     0.08508     0.00170     0.00000
          57    -0.15879     0.08773    -0.00001     0.00000     0.00000    -0.08884
          58     0.00000    -0.00000    -0.08508     0.02094    -0.16929    -0.00000
          59     0.00000    -0.00000     0.02113     0.08508    -0.00168     0.00000
          60     0.15879     0.08773    -0.00000     0.00000     0.00000     0.08884

                    7           8           9          10          11          12
 
 Frequency         49.01       81.29      151.70      181.05      265.75      301.27
 
           1    -0.00000     0.00000     0.00000     0.05678    -0.06710     0.00000
           2    -0.00000    -0.00000     0.00000     0.01053     0.02426     0.00000
           3    -0.04458    -0.05531     0.02076     0.00000     0.00000    -0.11846
           4    -0.00000     0.00000    -0.00000     0.05678     0.06710     0.00000
           5    -0.00000    -0.00000     0.00000     0.01052    -0.02426    -0.00000
           6    -0.04458     0.05531     0.02076    -0.00000    -0.00000     0.11846
           7    -0.00000     0.00000     0.00000     0.06198    -0.03562     0.00000
           8    -0.00000    -0.00000    -0.00000     0.01364     0.05531     0.00000
           9    -0.05720     0.02668     0.05684     0.00000    -0.00000    -0.07801
          10    -0.00000     0.00000    -0.00000     0.06198     0.03562     0.00000
          11    -0.00000    -0.00000     0.00000     0.01364    -0.05531    -0.00000
          12    -0.05720    -0.02668     0.05684    -0.00000    -0.00000     0.07801
          13    -0.00000     0.00000    -0.00000     0.06099     0.04505     0.00000
          14    -0.00000    -0.00000     0.00000     0.00643     0.03727     0.00000
          15    -0.05327     0.08506     0.06573     0.00000     0.00000     0.06449
          16    -0.00000     0.00000     0.00000     0.06099    -0.04505     0.00000
          17    -0.00000    -0.00000     0.00000     0.00643    -0.03727    -0.00000
          18    -0.05327    -0.08506     0.06573     0.00000     0.00000    -0.06449
          19    -0.00000     0.00000     0.00000     0.06243    -0.05344     0.00000
          20    -0.00000    -0.00000    -0.00000     0.01382     0.10413     0.00000
          21    -0.06189     0.05296     0.04389     0.00000    -0.00000    -0.11910
          22    -0.00000     0.00000    -0.00000     0.06243     0.05344     0.00000
          23    -0.00000    -0.00000     0.00000     0.01382    -0.10413    -0.00000
          24    -0.06189    -0.05296     0.04389    -0.00000    -0.00000     0.11910
          25    -0.00000     0.00000    -0.00000     0.05942     0.08282     0.00000
          26    -0.00000    -0.00000    -0.00000     0.00251     0.08104     0.00000
          27    -0.05766     0.16013     0.05764     0.00000     0.00000     0.08322
          28    -0.00000     0.00000     0.00000     0.05942    -0.08282     0.00000
          29    -0.00000    -0.00000     0.00000     0.00251    -0.08104    -0.00000
          30    -0.05766    -0.16013     0.05764    -0.00000     0.00000    -0.08322
          31    -0.00000     0.00000    -0.00000    -0.03069     0.03030     0.00000
          32    -0.00000    -0.00000     0.00000     0.02870    -0.02384    -0.00000
          33    -0.01339     0.08997    -0.12599    -0.00000     0.00000    -0.03636
          34    -0.00000     0.00000     0.00000    -0.03069    -0.03030    -0.00000
          35    -0.00000    -0.00000    -0.00000     0.02870     0.02384     0.00000
          36    -0.01339    -0.08997    -0.12599    -0.00000     0.00000     0.03636
          37    -0.00000     0.00000    -0.00000    -0.05166     0.01289     0.00000
          38    -0.00000    -0.00000     0.00000     0.11818     0.04826     0.00000
          39    -0.11918     0.25122    -0.35623    -0.00000     0.00000    -0.25933
          40    -0.00000     0.00000     0.00000    -0.05166    -0.01289    -0.00000
          41    -0.00000    -0.00000    -0.00000     0.11818    -0.04826     0.00000
          42    -0.11918    -0.25122    -0.35623    -0.00000     0.00000     0.25933
          43    -0.00000     0.00000    -0.00000    -0.12655    -0.06658    -0.00000
          44    -0.00000    -0.00000     0.00000    -0.05557    -0.11206    -0.00000
          45     0.15095    -0.08982    -0.00428     0.00000    -0.00000    -0.02102
          46    -0.00000     0.00000     0.00000    -0.12655     0.06658    -0.00000
          47    -0.00000    -0.00000     0.00000    -0.05557     0.11206    -0.00000
          48     0.15095     0.08982    -0.00428    -0.00000    -0.00000     0.02102
          49    -0.00000     0.00000    -0.00000    -0.10888    -0.04633    -0.00000
          50    -0.00000    -0.00000    -0.00000    -0.15873    -0.22732    -0.00000
          51     0.27573    -0.27841     0.24306     0.00000    -0.00000     0.20778
          52    -0.00000     0.00000     0.00000    -0.10888     0.04633    -0.00000
          53     0.00000    -0.00000     0.00000    -0.15873     0.22732    -0.00000
          54     0.27573     0.27841     0.24306     0.00000    -0.00000    -0.20778
          55    -0.00000     0.00000    -0.00000    -0.23087    -0.18385    -0.00000
          56    -0.00000    -0.00000     0.00000    -0.02434    -0.07747    -0.00000
          57     0.16993    -0.05957    -0.14359     0.00000     0.00000    -0.23349
          58     0.00000     0.00000     0.00000    -0.23087     0.18385    -0.00000
          59    -0.00000    -0.00000     0.00000    -0.02434     0.07747    -0.00000
          60     0.16993     0.05957    -0.14359    -0.00000    -0.00000     0.23349

                   13          14          15          16          17          18
 
 Frequency        407.92      424.39      468.98      487.93      578.92      657.87
 
           1     0.06233     0.00000    -0.00000    -0.02307     0.03797    -0.00000
           2     0.06102     0.00000     0.00000     0.03327    -0.06916    -0.00000
           3    -0.00000     0.01084     0.13222    -0.00000     0.00000     0.02736
           4    -0.06233    -0.00000     0.00000    -0.02307    -0.03797     0.00000
           5    -0.06102    -0.00000    -0.00000     0.03327     0.06916    -0.00000
           6    -0.00000     0.01084     0.13222    -0.00000     0.00000    -0.02736
           7     0.00252    -0.00000    -0.00000    -0.04171     0.07931    -0.00000
           8    -0.02401    -0.00000     0.00000     0.04783    -0.03825    -0.00000
           9    -0.00000     0.12087    -0.06190     0.00000    -0.00000    -0.08228
          10    -0.00252     0.00000     0.00000    -0.04171    -0.07931     0.00000
          11     0.02401     0.00000     0.00000     0.04783     0.03825     0.00000
          12    -0.00000     0.12087    -0.06190     0.00000    -0.00000     0.08228
          13    -0.07035    -0.00000    -0.00000    -0.04286    -0.01392     0.00000
          14    -0.02928    -0.00000     0.00000     0.05698    -0.01297    -0.00000
          15     0.00000    -0.12494    -0.03989     0.00000     0.00000     0.07877
          16     0.07035     0.00000    -0.00000    -0.04286     0.01392    -0.00000
          17     0.02928     0.00000     0.00000     0.05698     0.01297     0.00000
          18     0.00000    -0.12494    -0.03989    -0.00000     0.00000    -0.07877
          19     0.03779     0.00000    -0.00000    -0.04590     0.08497    -0.00000
          20    -0.11570    -0.00000     0.00000     0.05444    -0.05171    -0.00000
          21    -0.00000     0.23241    -0.22743     0.00000    -0.00000    -0.11226
          22    -0.03779     0.00000     0.00000    -0.04590    -0.08497     0.00000
          23     0.11570     0.00000    -0.00000     0.05444     0.05171     0.00000
          24    -0.00000     0.23241    -0.22743     0.00000    -0.00000     0.11226
          25    -0.07248     0.00000     0.00000    -0.04412    -0.09398     0.00000
          26    -0.03305    -0.00000     0.00000     0.05565    -0.11018    -0.00000
          27     0.00000    -0.28134    -0.19195     0.00000     0.00000     0.13474
          28     0.07248     0.00000    -0.00000    -0.04412     0.09398    -0.00000
          29     0.03305     0.00000    -0.00000     0.05565     0.11018     0.00000
          30     0.00000    -0.28134    -0.19195     0.00000     0.00000    -0.13474
          31     0.00243     0.00000     0.00000     0.09736     0.10217     0.00000
          32    -0.11048    -0.00000    -0.00000    -0.01407     0.05567     0.00000
          33    -0.00000    -0.00253     0.04259    -0.00000     0.00000    -0.09644
          34    -0.00243    -0.00000     0.00000     0.09736    -0.10217    -0.00000
          35     0.11048     0.00000    -0.00000    -0.01407    -0.05567     0.00000
          36     0.00000    -0.00253     0.04259     0.00000     0.00000     0.09644
          37     0.01267     0.00000     0.00000     0.09900     0.10803     0.00000
          38    -0.16285    -0.00000    -0.00000    -0.02943     0.02986     0.00000
          39    -0.00000    -0.01385    -0.13640     0.00000     0.00000     0.13055
          40    -0.01267    -0.00000     0.00000     0.09900    -0.10803    -0.00000
          41     0.16285     0.00000    -0.00000    -0.02943    -0.02986     0.00000
          42     0.00000    -0.01385    -0.13640     0.00000     0.00000    -0.13055
          43     0.03932     0.00000    -0.00000     0.01768     0.01300     0.00000
          44    -0.09043    -0.00000    -0.00000    -0.10304    -0.03511     0.00000
          45    -0.00000     0.00074    -0.01871     0.00000    -0.00000     0.01639
          46    -0.03932    -0.00000     0.00000     0.01768    -0.01300    -0.00000
          47     0.09043     0.00000    -0.00000    -0.10304     0.03511     0.00000
          48    -0.00000     0.00074    -0.01871     0.00000    -0.00000    -0.01639
          49     0.03611     0.00000     0.00000     0.04793     0.04988     0.00000
          50    -0.06588    -0.00000    -0.00000    -0.27471    -0.25315    -0.00000
          51    -0.00000     0.02871     0.16236    -0.00000    -0.00000    -0.20851
          52    -0.03611    -0.00000     0.00000     0.04793    -0.04988    -0.00000
          53     0.06588     0.00000    -0.00000    -0.27471     0.25315     0.00000
          54    -0.00000     0.02871     0.16236    -0.00000    -0.00000     0.20851
          55     0.06843    -0.00000    -0.00000    -0.14510    -0.19200    -0.00000
          56    -0.10050    -0.00000    -0.00000    -0.05619     0.02532     0.00000
          57     0.00000    -0.02539    -0.25321     0.00000     0.00000     0.35709
          58    -0.06843     0.00000    -0.00000    -0.14510     0.19200     0.00000
          59     0.10050     0.00000    -0.00000    -0.05619    -0.02532     0.00000
          60    -0.00000    -0.02539    -0.25321     0.00000     0.00000    -0.35709

                   19          20          21          22          23          24
 
 Frequency        673.47      707.33      735.12      810.69      862.51      893.98
 
           1    -0.04040    -0.00000     0.00161    -0.00000    -0.00735     0.00000
           2    -0.00027    -0.00000     0.01015    -0.00000    -0.03625    -0.00000
           3     0.00000    -0.06850     0.00000    -0.14256     0.00000    -0.00213
           4     0.04040     0.00000     0.00161     0.00000     0.00735     0.00000
           5     0.00027     0.00000     0.01015    -0.00000     0.03625     0.00000
           6     0.00000    -0.06850     0.00000     0.14256     0.00000     0.00213
           7    -0.08893     0.00000    -0.03821     0.00000     0.11601     0.00000
           8    -0.09855    -0.00000    -0.07523    -0.00000     0.00186     0.00000
           9     0.00000    -0.01327     0.00000     0.05829    -0.00000    -0.06359
          10     0.08893    -0.00000    -0.03821     0.00000    -0.11601    -0.00000
          11     0.09855    -0.00000    -0.07523    -0.00000    -0.00186     0.00000
          12    -0.00000    -0.01327    -0.00000    -0.05829    -0.00000     0.06359
          13     0.06162     0.00000    -0.01410     0.00000     0.11777     0.00000
          14    -0.12263    -0.00000    -0.07363    -0.00000    -0.03435    -0.00000
          15     0.00000    -0.01708    -0.00000    -0.05684     0.00000    -0.07062
          16    -0.06162    -0.00000    -0.01410    -0.00000    -0.11777    -0.00000
          17     0.12263    -0.00000    -0.07363     0.00000     0.03435     0.00000
          18     0.00000    -0.01708    -0.00000     0.05684    -0.00000     0.07062
          19    -0.10491     0.00000    -0.01933    -0.00000     0.08785     0.00000
          20    -0.05681    -0.00000    -0.12589    -0.00000     0.09835     0.00000
          21    -0.00000     0.25586    -0.00000     0.15511    -0.00000     0.43162
          22     0.10491    -0.00000    -0.01933     0.00000    -0.08785     0.00000
          23     0.05681    -0.00000    -0.12589    -0.00000    -0.09835    -0.00000
          24    -0.00000     0.25586     0.00000    -0.15511     0.00000    -0.43162
          25     0.08399    -0.00000    -0.04801     0.00000     0.07287    -0.00000
          26    -0.09557    -0.00000    -0.11191    -0.00000    -0.10063    -0.00000
          27     0.00000     0.25282    -0.00000    -0.15507    -0.00000     0.44923
          28    -0.08399    -0.00000    -0.04801     0.00000    -0.07287    -0.00000
          29     0.09557     0.00000    -0.11191     0.00000     0.10063    -0.00000
          30     0.00000     0.25282    -0.00000     0.15507     0.00000    -0.44923
          31     0.02095     0.00000     0.07198     0.00000    -0.03707    -0.00000
          32     0.00441     0.00000     0.10255     0.00000    -0.05193    -0.00000
[...]
          44    -0.09225     0.09392    -0.03603     0.03607     0.01031     0.01018
          45    -0.00000     0.00000    -0.00000     0.00000    -0.00000    -0.00000
          46    -0.07693    -0.07771     0.02954     0.02951    -0.01393     0.01385
          47     0.09225     0.09392    -0.03603    -0.03607     0.01031    -0.01019
          48    -0.00000    -0.00000     0.00000     0.00000    -0.00000    -0.00000
          49     0.04826    -0.04843    -0.44964     0.45004     0.14525     0.14372
          50     0.19162    -0.19576    -0.08010     0.08015     0.02806     0.02780
          51     0.00000    -0.00000    -0.00000    -0.00000     0.00000     0.00000
          52    -0.04826    -0.04843    -0.44964    -0.45004     0.14515    -0.14382
          53    -0.19162    -0.19576    -0.08010    -0.08015     0.02804    -0.02782
          54     0.00000     0.00000     0.00000    -0.00000     0.00000     0.00000
          55    -0.17114     0.17147     0.14250    -0.14273    -0.02991    -0.02941
          56    -0.03741     0.03904     0.45481    -0.45522    -0.09571    -0.09426
          57     0.00000    -0.00000     0.00000    -0.00000    -0.00000     0.00000
          58     0.17114     0.17147     0.14250     0.14273    -0.02989     0.02944
          59     0.03741     0.03904     0.45481     0.45522    -0.09564     0.09433
          60     0.00000     0.00000    -0.00000    -0.00000     0.00000     0.00000

                   55          56          57          58          59          60
 
 P.Frequency     3447.88     3451.35     3471.32     3474.29     3546.60     3546.65
 
           1    -0.00118     0.00257    -0.00372    -0.00145    -0.00015    -0.00016
           2     0.00216    -0.00161     0.00002    -0.00203     0.00032     0.00032
           3     0.00000    -0.00000    -0.00000    -0.00000    -0.00000    -0.00000
           4    -0.00118    -0.00257    -0.00372     0.00145    -0.00015     0.00016
           5     0.00216     0.00161     0.00002     0.00203     0.00032    -0.00032
           6    -0.00000    -0.00000     0.00000    -0.00000    -0.00000     0.00000
           7     0.05177    -0.05188     0.02225    -0.02230     0.00003     0.00008
           8     0.01792    -0.01832     0.01128    -0.01081    -0.00003     0.00007
           9    -0.00000     0.00000     0.00000    -0.00000    -0.00000     0.00000
          10     0.05177     0.05188     0.02225     0.02230     0.00003    -0.00008
          11     0.01792     0.01832     0.01128     0.01081    -0.00003    -0.00007
          12     0.00000    -0.00000    -0.00000    -0.00000    -0.00000     0.00000
          13    -0.01905     0.01826     0.04224    -0.04266    -0.00032     0.00039
          14     0.01193    -0.01192    -0.03625     0.03639     0.00026    -0.00034
          15    -0.00000     0.00000    -0.00000     0.00000    -0.00000    -0.00000
          16    -0.01905    -0.01826     0.04224     0.04266    -0.00032    -0.00039
          17     0.01193     0.01192    -0.03625    -0.03639     0.00026     0.00034
          18     0.00000     0.00000     0.00000     0.00000     0.00000    -0.00000
          19    -0.58121     0.58284    -0.24595     0.24125     0.00016    -0.00055
          20    -0.21355     0.21457    -0.09209     0.08967    -0.00005    -0.00023
          21     0.00000     0.00000     0.00000    -0.00000    -0.00000    -0.00000
          22    -0.58121    -0.58284    -0.24595    -0.24125     0.00016     0.00055
          23    -0.21355    -0.21457    -0.09209    -0.08967    -0.00005     0.00023
          24    -0.00000     0.00000    -0.00000    -0.00000     0.00000    -0.00000
          25     0.20621    -0.20204    -0.47831     0.47992     0.00500    -0.00579
          26    -0.16673     0.16441     0.39212    -0.39316    -0.00366     0.00433
          27     0.00000    -0.00000     0.00000     0.00000     0.00000    -0.00000
          28     0.20621     0.20204    -0.47831    -0.47992     0.00500     0.00579
          29    -0.16673    -0.16441     0.39212     0.39316    -0.00366    -0.00433
          30    -0.00000     0.00000    -0.00000     0.00000    -0.00000    -0.00000
          31    -0.00192    -0.00209     0.00005    -0.00069    -0.00316     0.00316
          32    -0.00028    -0.00041    -0.00015    -0.00003    -0.00067     0.00067
          33     0.00000     0.00000     0.00000    -0.00000    -0.00000    -0.00000
          34    -0.00192     0.00209     0.00005     0.00069    -0.00316    -0.00316
          35    -0.00028     0.00041    -0.00015     0.00003    -0.00067    -0.00067
          36    -0.00000    -0.00000    -0.00000    -0.00000     0.00000     0.00000
          37     0.02039     0.02368     0.00257     0.00520     0.03652    -0.03648
          38     0.00350     0.00486     0.00116    -0.00008     0.00653    -0.00653
          39    -0.00000    -0.00000    -0.00000     0.00000     0.00000     0.00000
          40     0.02039    -0.02368     0.00257    -0.00520     0.03652     0.03648
          41     0.00350    -0.00486     0.00116     0.00008     0.00653     0.00653
          42     0.00000    -0.00000     0.00000     0.00000    -0.00000     0.00000
          43     0.00006     0.00030    -0.00022     0.00039    -0.05034     0.05034
          44     0.00053    -0.00071    -0.00095     0.00089    -0.04415     0.04414
          45    -0.00000     0.00000    -0.00000    -0.00000     0.00000    -0.00000
          46     0.00006    -0.00030    -0.00022    -0.00039    -0.05034    -0.05034
          47     0.00053     0.00071    -0.00095    -0.00089    -0.04415    -0.04414
          48     0.00000     0.00000     0.00000    -0.00000    -0.00000     0.00000
          49     0.00360    -0.00515    -0.00291     0.00074     0.46698    -0.46713
          50     0.00087    -0.00110    -0.00091     0.00053     0.07798    -0.07800
          51     0.00000    -0.00000     0.00000     0.00000     0.00000     0.00000
          52     0.00360     0.00515    -0.00291    -0.00074     0.46701     0.46710
          53     0.00087     0.00110    -0.00091    -0.00053     0.07798     0.07800
          54    -0.00000    -0.00000    -0.00000     0.00000     0.00000     0.00000
          55    -0.00232     0.00193     0.00304    -0.00291     0.13352    -0.13348
          56    -0.00822     0.00589     0.00990    -0.01015     0.44631    -0.44621
          57     0.00000     0.00000    -0.00000     0.00000     0.00000     0.00000
          58    -0.00232    -0.00193     0.00304     0.00291     0.13352     0.13347
          59    -0.00822    -0.00589     0.00990     0.01015     0.44633     0.44619
          60    -0.00000    -0.00000    -0.00000     0.00000     0.00000    -0.00000



 ----------------------------------------------------------------------------
 Normal Eigenvalue ||    Projected Derivative Dipole Moments (debye/angs)
  Mode   [cm**-1]  ||      [d/dqX]             [d/dqY]           [d/dqZ]
 ------ ---------- || ------------------ ------------------ -----------------
    1       -0.000 ||      -0.000               0.000            -0.000
    2       -0.000 ||       0.000              -0.000            -0.000
    3       -0.000 ||       0.000               0.000            -0.000
    4        0.000 ||       0.000              -0.000             0.000
    5        0.000 ||       0.000              -0.000             0.000
    6        0.000 ||       0.000               0.000            -0.000
    7       49.010 ||      -0.000               0.000             0.027
    8       81.563 ||      -0.000               0.000            -0.000
    9      151.698 ||       0.000              -0.000            -0.091
   10      181.038 ||       0.031              -0.073             0.000
   11      265.733 ||       0.000              -0.000             0.000
   12      300.969 ||       0.000              -0.000            -0.000
   13      407.917 ||       0.000              -0.000            -0.000
   14      424.393 ||       0.000              -0.000            -0.049
   15      468.977 ||      -0.000               0.000             0.372
   16      487.917 ||      -0.018               0.214             0.000
   17      578.842 ||      -0.000               0.000             0.000
   18      657.328 ||       0.000              -0.000            -0.000
   19      673.470 ||       0.000              -0.000             0.000
   20      707.330 ||       0.000              -0.000            -0.105
   21      735.110 ||      -0.024               0.319            -0.000
   22      810.677 ||      -0.000               0.000             0.000
   23      862.518 ||      -0.000               0.000             0.000
   24      895.309 ||      -0.000               0.000            -0.000
   25      896.429 ||       0.000              -0.000             0.788
   26      980.901 ||      -0.000               0.000             0.000
   27      980.975 ||      -0.000               0.000             0.930
   28     1017.729 ||      -0.000               0.000            -0.000
   29     1036.478 ||      -0.000               0.000            -0.013
   30     1073.558 ||       0.014              -0.107            -0.000
   31     1102.043 ||       0.034               0.456            -0.000
   32     1107.662 ||       0.000              -0.000             0.000
   33     1107.685 ||       0.000              -0.000            -0.558
   34     1110.621 ||      -0.000              -0.000             0.000
   35     1203.737 ||       0.090              -0.165             0.000
   36     1260.965 ||       0.000               0.000             0.000
   37     1284.270 ||       0.024               0.025            -0.000
   38     1296.189 ||       0.000               0.000             0.000
   39     1350.007 ||      -0.050              -0.460            -0.000
   40     1398.542 ||       0.000               0.000            -0.000
   41     1422.113 ||      -0.086               0.440            -0.000
   42     1427.487 ||       0.000              -0.000             0.000
   43     1514.545 ||      -0.648              -0.167             0.000
   44     1565.407 ||       0.000              -0.000            -0.000
   45     1575.243 ||       0.082               0.084             0.000
   46     1639.653 ||      -0.039               0.601             0.000
   47     1690.932 ||      -0.000              -0.000             0.000
   48     1738.513 ||      -0.000              -0.000            -0.000
   49     1814.826 ||      -0.000              -0.000             0.000
   50     1815.798 ||       0.188               0.009            -0.000
   51     3394.043 ||      -0.362               1.486            -0.000
   52     3394.772 ||       0.000              -0.000            -0.000
   53     3432.831 ||      -0.068               0.287             0.000
   54     3432.835 ||       0.000              -0.000             0.000
   55     3447.881 ||      -0.173              -0.028             0.000
   56     3451.354 ||      -0.000               0.000             0.000
   57     3471.324 ||      -0.347               0.112             0.000
   58     3474.287 ||       0.000              -0.000            -0.000
   59     3546.602 ||       0.012              -0.020            -0.000
   60     3546.649 ||      -0.000               0.000             0.000
 ----------------------------------------------------------------------------



  
  
 ----------------------------------------------------------------------------
 Normal Eigenvalue ||           Projected Infra Red Intensities
  Mode   [cm**-1]  || [atomic units] [(debye/angs)**2] [(KM/mol)] [arbitrary]
 ------ ---------- || -------------- ----------------- ---------- -----------
    1       -0.000 ||    0.000000           0.000         0.000       0.000
    2       -0.000 ||    0.000000           0.000         0.000       0.000
    3       -0.000 ||    0.000000           0.000         0.000       0.000
    4        0.000 ||    0.000000           0.000         0.000       0.000
    5        0.000 ||    0.000000           0.000         0.000       0.000
    6        0.000 ||    0.000000           0.000         0.000       0.000
    7       49.010 ||    0.000030           0.001         0.030       0.068
    8       81.563 ||    0.000000           0.000         0.000       0.000
    9      151.698 ||    0.000359           0.008         0.350       0.797
   10      181.038 ||    0.000273           0.006         0.266       0.607
   11      265.733 ||    0.000000           0.000         0.000       0.000
   12      300.969 ||    0.000000           0.000         0.000       0.000
   13      407.917 ||    0.000000           0.000         0.000       0.000
   14      424.393 ||    0.000104           0.002         0.101       0.230
   15      468.977 ||    0.006013           0.139         5.862      13.348
   16      487.917 ||    0.001992           0.046         1.941       4.421
   17      578.842 ||    0.000000           0.000         0.000       0.000
   18      657.328 ||    0.000000           0.000         0.000       0.000
   19      673.470 ||    0.000000           0.000         0.000       0.000
   20      707.330 ||    0.000476           0.011         0.464       1.058
   21      735.110 ||    0.004426           0.102         4.315       9.826
   22      810.677 ||    0.000000           0.000         0.000       0.000
   23      862.518 ||    0.000000           0.000         0.000       0.000
   24      895.309 ||    0.000000           0.000         0.000       0.000
   25      896.429 ||    0.026919           0.621        26.242      59.756
   26      980.901 ||    0.000000           0.000         0.000       0.000
   27      980.975 ||    0.037514           0.865        36.571      83.276
   28     1017.729 ||    0.000000           0.000         0.000       0.000
   29     1036.478 ||    0.000007           0.000         0.007       0.016
   30     1073.558 ||    0.000500           0.012         0.487       1.110
   31     1102.043 ||    0.009063           0.209         8.835      20.119
   32     1107.662 ||    0.000000           0.000         0.000       0.000
   33     1107.685 ||    0.013502           0.311        13.162      29.972
   34     1110.621 ||    0.000000           0.000         0.000       0.000
   35     1203.737 ||    0.001529           0.035         1.490       3.394
   36     1260.965 ||    0.000000           0.000         0.000       0.000
   37     1284.270 ||    0.000053           0.001         0.052       0.118
   38     1296.189 ||    0.000000           0.000         0.000       0.000
   39     1350.007 ||    0.009261           0.214         9.028      20.557
   40     1398.542 ||    0.000000           0.000         0.000       0.000
   41     1422.113 ||    0.008710           0.201         8.491      19.335
   42     1427.487 ||    0.000000           0.000         0.000       0.000
   43     1514.545 ||    0.019393           0.447        18.905      43.050
   44     1565.407 ||    0.000000           0.000         0.000       0.000
   45     1575.243 ||    0.000596           0.014         0.581       1.323
   46     1639.653 ||    0.015696           0.362        15.302      34.843
   47     1690.932 ||    0.000000           0.000         0.000       0.000
   48     1738.513 ||    0.000000           0.000         0.000       0.000
   49     1814.826 ||    0.000000           0.000         0.000       0.000
   50     1815.798 ||    0.001539           0.036         1.500       3.416
   51     3394.043 ||    0.101447           2.340        98.896     225.197
   52     3394.772 ||    0.000000           0.000         0.000       0.000
   53     3432.831 ||    0.003773           0.087         3.678       8.376
   54     3432.835 ||    0.000000           0.000         0.000       0.000
   55     3447.881 ||    0.001330           0.031         1.297       2.952
   56     3451.354 ||    0.000000           0.000         0.000       0.000
   57     3471.324 ||    0.005760           0.133         5.615      12.786
   58     3474.287 ||    0.000000           0.000         0.000       0.000
   59     3546.602 ||    0.000023           0.001         0.023       0.052
   60     3546.649 ||    0.000000           0.000         0.000       0.000
 ----------------------------------------------------------------------------



 vib:animation  F

 Task  times  cpu:      212.5s     wall:      223.5s
 
 
                                NWChem Input Module
                                -------------------
 
 
 Summary of allocated global arrays
-----------------------------------
  No active global arrays



                         GA Statistics for process    0
                         ------------------------------

       create   destroy   get      put      acc     scatter   gather  read&inc
calls: 6378     6378     2.98e+06 6.22e+04 2.58e+06 1262        0     1622     
number of processes/call 1.21e+12 5.10e+13 8.50e+10 0.00e+00 0.00e+00
bytes total:             3.87e+08 4.85e+07 3.49e+08 0.00e+00 0.00e+00 1.30e+04
bytes remote:            2.61e+08 1.83e+07 2.57e+08 -3.00e+03 0.00e+00 0.00e+00
Max memory consumed for GA by this process: 4761304 bytes
 
MA_summarize_allocated_blocks: starting scan ...
MA_summarize_allocated_blocks: scan completed: 0 heap blocks, 0 stack blocks
MA usage statistics:

	allocation statistics:
					      heap	     stack
					      ----	     -----
	current number of blocks	         0	         0
	maximum number of blocks	        25	        54
	current total bytes		         0	         0
	maximum total bytes		   6909864	  67349688
	maximum total K-bytes		      6910	     67350
	maximum total M-bytes		         7	        68
 
 
                                     CITATION
                                     --------
                Please cite the following reference when publishing
                           results obtained with NWChem:
 
                 M. Valiev, E.J. Bylaska, N. Govind, K. Kowalski,
              T.P. Straatsma, H.J.J. van Dam, D. Wang, J. Nieplocha,
                        E. Apra, T.L. Windus, W.A. de Jong
                 "NWChem: a comprehensive and scalable open-source
                  solution for large scale molecular simulations"
                      Comput. Phys. Commun. 181, 1477 (2010)
                           doi:10.1016/j.cpc.2010.04.018
 
                                      AUTHORS
                                      -------
     E. Apra, E. J. Bylaska, N. Govind, K. Kowalski, M. Valiev, W. A. de Jong,
      T. P. Straatsma, H. J. J. van Dam, D. Wang, T. L. Windus, N. P. Bauman,
       A. Panyala, J. Hammond, J. Autschbach, K. Bhaskaran-Nair, J. Brabec,
    K. Lopata, S. A. Fischer, S. Krishnamoorthy, M. Jacquelin, W. Ma, M. Klemm,
       O. Villa, Y. Chen, V. Anisimov, F. Aquino, S. Hirata, M. T. Hackler,
           Eric Hermes, L. Jensen, J. E. Moore, J. C. Becca, V. Konjkov,
            D. Mejia-Rodriguez, T. Risthaus, M. Malagoli, A. Marenich,
   A. Otero-de-la-Roza, J. Mullin, P. Nichols, R. Peverati, J. Pittner, Y. Zhao,
        P.-D. Fan, A. Fonari, M. J. Williamson, R. J. Harrison, J. R. Rehr,
      M. Dupuis, D. Silverstein, D. M. A. Smith, J. Nieplocha, V. Tipparaju,
      M. Krishnan, B. E. Van Kuiken, A. Vazquez-Mayagoitia, M. Swart, Q. Wu,
   T. Van Voorhis, A. A. Auer, M. Nooijen, L. D. Crosby, E. Brown, G. Cisneros,
     G. I. Fann, H. Fruchtl, J. Garza, K. Hirao, R. A. Kendall, J. A. Nichols,
       K. Tsemekhman, K. Wolinski, J. Anchell, D. E. Bernholdt, P. Borowski,
       T. Clark, D. Clerc, H. Dachsel, M. J. O. Deegan, K. Dyall, D. Elwood,
      E. Glendening, M. Gutowski, A. C. Hess, J. Jaffe, B. G. Johnson, J. Ju,
        R. Kobayashi, R. Kutteh, Z. Lin, R. Littlefield, X. Long, B. Meng,
      T. Nakajima, S. Niu, L. Pollack, M. Rosing, K. Glaesemann, G. Sandrone,
      M. Stave, H. Taylor, G. Thomas, J. H. van Lenthe, A. T. Wong, Z. Zhang.

 Total times  cpu:      212.5s     wall:      223.6s
