 argument  1 = dvb_un_sp_ks.nw
                                         
                                         


              Northwest Computational Chemistry Package (NWChem) 6.5
              ------------------------------------------------------


                    Environmental Molecular Sciences Laboratory
                       Pacific Northwest National Laboratory
                                Richland, WA 99352

                              Copyright (c) 1994-2014
                       Pacific Northwest National Laboratory
                            Battelle Memorial Institute

             NWChem is an open-source computational chemistry package
                        distributed under the terms of the
                      Educational Community License (ECL) 2.0
             A copy of the license is included with this distribution
                              in the LICENSE.TXT file

                                  ACKNOWLEDGMENT
                                  --------------

            This software and its documentation were developed at the
            EMSL at Pacific Northwest National Laboratory, a multiprogram
            national laboratory, operated for the U.S. Department of Energy
            by Battelle under Contract Number DE-AC05-76RL01830. Support
            for this work was provided by the Department of Energy Office
            of Biological and Environmental Research, Office of Basic
            Energy Sciences, and the Office of Advanced Scientific Computing.


           Job information
           ---------------

    hostname        = boman
    program         = /usr/lib64/mpich/bin/nwchem_mpich
    date            = Sat Jan 17 16:30:55 2015

    compiled        = Sat_Dec_06_13:02:58_2014
    source          = /builddir/build/BUILD/Nwchem-6.5.revision26243-src.2014-09-10
    nwchem branch   = 6.5
    nwchem revision = 26243
    ga revision     = 10506
    input           = dvb_un_sp_ks.nw
    prefix          = dvb.
    data base       = ./dvb.db
    status          = startup
    nproc           =        1
    time left       =     -1s



           Memory information
           ------------------

    heap     =   13107194 doubles =    100.0 Mbytes
    stack    =   13107199 doubles =    100.0 Mbytes
    global   =   26214400 doubles =    200.0 Mbytes (distinct from heap & stack)
    total    =   52428793 doubles =    400.0 Mbytes
    verify   = yes
    hardfail = no 


           Directory information
           ---------------------

  0 permanent = .
  0 scratch   = .




                                NWChem Input Module
                                -------------------


                        Divinylbenzene in STO-3G basis set
                        ----------------------------------

 Scaling coordinates for geometry "geometry" by  1.889725989
 (inverse scale =  0.529177249)

 C2H symmetry detected

          ------
          auto-z
          ------


                             Geometry "geometry" -> ""
                             -------------------------

 Output coordinates in angstroms (scale by  1.889725989 to convert to a.u.)

  No.       Tag          Charge          X              Y              Z
 ---- ---------------- ---------- -------------- -------------- --------------
    1 C                    6.0000     0.23680554     1.41416660     0.00000000
    2 C                    6.0000    -0.23680554    -1.41416660     0.00000000
    3 C                    6.0000     1.31675086     0.48901061     0.00000000
    4 C                    6.0000    -1.31675086    -0.48901061     0.00000000
    5 C                    6.0000     1.08679847    -0.89447642     0.00000000
    6 C                    6.0000    -1.08679847     0.89447642     0.00000000
    7 H                    1.0000     2.34780221     0.86863451     0.00000000
    8 H                    1.0000    -2.34780221    -0.86863451     0.00000000
    9 H                    1.0000     1.93764188    -1.58693865     0.00000000
   10 H                    1.0000    -1.93764188     1.58693865     0.00000000
   11 C                    6.0000    -0.53450789    -2.88212824     0.00000000
   12 C                    6.0000     0.53450789     2.88212824     0.00000000
   13 H                    1.0000    -1.60655769    -3.13289308     0.00000000
   14 H                    1.0000     1.60655769     3.13289308     0.00000000
   15 C                    6.0000     0.36419263    -3.88177971     0.00000000
   16 C                    6.0000    -0.36419263     3.88177971     0.00000000
   17 H                    1.0000     1.44522900    -3.70144241     0.00000000
   18 H                    1.0000    -1.44522900     3.70144241     0.00000000
   19 H                    1.0000     0.04815351    -4.93192286     0.00000000
   20 H                    1.0000    -0.04815351     4.93192286     0.00000000

      Atomic Mass 
      ----------- 

      C                 12.000000
      H                  1.007825


 Effective nuclear repulsion energy (a.u.)     445.9370121674

            Nuclear Dipole moment (a.u.) 
            ----------------------------
        X                 Y               Z
 ---------------- ---------------- ----------------
     0.0000000000     0.0000000000     0.0000000000

      Symmetry information
      --------------------

 Group name             C2h       
 Group number             21
 Group order               4
 No. of unique centers    10

      Symmetry unique atoms

     1    3    5    7    9   11   13   15   17   19



                                Z-matrix (autoz)
                                -------- 

 Units are Angstrom for bonds and degrees for angles

      Type          Name      I     J     K     L     M      Value
      ----------- --------  ----- ----- ----- ----- ----- ----------
    1 Stretch                  1     3                       1.42204
    2 Stretch                  1     6                       1.42197
    3 Stretch                  1    12                       1.49784
    4 Stretch                  2     4                       1.42204
    5 Stretch                  2     5                       1.42197
    6 Stretch                  2    11                       1.49784
    7 Stretch                  3     5                       1.40247
    8 Stretch                  3     7                       1.09872
    9 Stretch                  4     6                       1.40247
   10 Stretch                  4     8                       1.09872
   11 Stretch                  5     9                       1.09701
   12 Stretch                  6    10                       1.09701
   13 Stretch                 11    13                       1.10099
   14 Stretch                 11    15                       1.34423
   15 Stretch                 12    14                       1.10099
   16 Stretch                 12    16                       1.34423
   17 Stretch                 15    17                       1.09597
   18 Stretch                 15    19                       1.09667
   19 Stretch                 16    18                       1.09597
   20 Stretch                 16    20                       1.09667
   21 Bend                     1     3     5               121.14867
   22 Bend                     1     3     7               119.20109
   23 Bend                     1     6     4               120.87358
   24 Bend                     1     6    10               119.42285
   25 Bend                     1    12    14               114.62953
   26 Bend                     1    12    16               126.57992
   27 Bend                     2     4     6               121.14867
   28 Bend                     2     4     8               119.20109
   29 Bend                     2     5     3               120.87358
   30 Bend                     2     5     9               119.42285
   31 Bend                     2    11    13               114.62953
   32 Bend                     2    11    15               126.57992
   33 Bend                     3     1     6               117.97776
   34 Bend                     3     1    12               119.12155
   35 Bend                     3     5     9               119.70357
   36 Bend                     4     2     5               117.97776
   37 Bend                     4     2    11               119.12155
   38 Bend                     4     6    10               119.70357
   39 Bend                     5     2    11               122.90069
   40 Bend                     5     3     7               119.65024
   41 Bend                     6     1    12               122.90069
   42 Bend                     6     4     8               119.65024
   43 Bend                    11    15    17               122.48517
   44 Bend                    11    15    19               121.29492
   45 Bend                    12    16    18               122.48517
   46 Bend                    12    16    20               121.29492
   47 Bend                    13    11    15               118.79054
   48 Bend                    14    12    16               118.79054
   49 Bend                    17    15    19               116.21990
   50 Bend                    18    16    20               116.21990
   51 Torsion                  1     3     5     2           0.00000
   52 Torsion                  1     3     5     9         180.00000
   53 Torsion                  1     6     4     2           0.00000
   54 Torsion                  1     6     4     8         180.00000
   55 Torsion                  1    12    16    18           0.00000
   56 Torsion                  1    12    16    20         180.00000
   57 Torsion                  2     4     6    10         180.00000
   58 Torsion                  2     5     3     7         180.00000
   59 Torsion                  2    11    15    17           0.00000
   60 Torsion                  2    11    15    19         180.00000
   61 Torsion                  3     1     6     4           0.00000
   62 Torsion                  3     1     6    10         180.00000
   63 Torsion                  3     1    12    14           0.00000
   64 Torsion                  3     1    12    16         180.00000
   65 Torsion                  3     5     2     4           0.00000
   66 Torsion                  3     5     2    11         180.00000
   67 Torsion                  4     2     5     9         180.00000
   68 Torsion                  4     2    11    13           0.00000
   69 Torsion                  4     2    11    15         180.00000
   70 Torsion                  4     6     1    12         180.00000
   71 Torsion                  5     2     4     6          -0.00000
   72 Torsion                  5     2     4     8         180.00000
   73 Torsion                  5     2    11    13         180.00000
   74 Torsion                  5     2    11    15           0.00000
   75 Torsion                  5     3     1     6           0.00000
   76 Torsion                  5     3     1    12         180.00000
   77 Torsion                  6     1     3     7         180.00000
   78 Torsion                  6     1    12    14         180.00000
   79 Torsion                  6     1    12    16           0.00000
   80 Torsion                  6     4     2    11         180.00000
   81 Torsion                  7     3     1    12          -0.00000
   82 Torsion                  7     3     5     9           0.00000
   83 Torsion                  8     4     2    11          -0.00000
   84 Torsion                  8     4     6    10           0.00000
   85 Torsion                  9     5     2    11           0.00000
   86 Torsion                 10     6     1    12           0.00000
   87 Torsion                 13    11    15    17         180.00000
   88 Torsion                 13    11    15    19          -0.00000
   89 Torsion                 14    12    16    18         180.00000
   90 Torsion                 14    12    16    20          -0.00000


            XYZ format geometry
            -------------------
    20
 geometry
 C                     0.23680554     1.41416660     0.00000000
 C                    -0.23680554    -1.41416660     0.00000000
 C                     1.31675086     0.48901061     0.00000000
 C                    -1.31675086    -0.48901061     0.00000000
 C                     1.08679847    -0.89447642     0.00000000
 C                    -1.08679847     0.89447642     0.00000000
 H                     2.34780221     0.86863451     0.00000000
 H                    -2.34780221    -0.86863451     0.00000000
 H                     1.93764188    -1.58693865     0.00000000
 H                    -1.93764188     1.58693865     0.00000000
 C                    -0.53450789    -2.88212824     0.00000000
 C                     0.53450789     2.88212824     0.00000000
 H                    -1.60655769    -3.13289308     0.00000000
 H                     1.60655769     3.13289308     0.00000000
 C                     0.36419263    -3.88177971     0.00000000
 C                    -0.36419263     3.88177971     0.00000000
 H                     1.44522900    -3.70144241     0.00000000
 H                    -1.44522900     3.70144241     0.00000000
 H                     0.04815351    -4.93192286     0.00000000
 H                    -0.04815351     4.93192286     0.00000000

 ==============================================================================
                                internuclear distances
 ------------------------------------------------------------------------------
       center one      |      center two      | atomic units |  angstroms
 ------------------------------------------------------------------------------
    3 C                |   1 C                |     2.68726  |     1.42204
    4 C                |   2 C                |     2.68726  |     1.42204
    5 C                |   2 C                |     2.68714  |     1.42197
    5 C                |   3 C                |     2.65028  |     1.40247
    6 C                |   1 C                |     2.68714  |     1.42197
    6 C                |   4 C                |     2.65028  |     1.40247
    7 H                |   3 C                |     2.07628  |     1.09872
    8 H                |   4 C                |     2.07628  |     1.09872
    9 H                |   5 C                |     2.07305  |     1.09701
   10 H                |   6 C                |     2.07305  |     1.09701
   11 C                |   2 C                |     2.83052  |     1.49784
   12 C                |   1 C                |     2.83052  |     1.49784
   13 H                |  11 C                |     2.08056  |     1.10099
   14 H                |  12 C                |     2.08056  |     1.10099
   15 C                |  11 C                |     2.54023  |     1.34423
   16 C                |  12 C                |     2.54023  |     1.34423
   17 H                |  15 C                |     2.07109  |     1.09597
   18 H                |  16 C                |     2.07109  |     1.09597
   19 H                |  15 C                |     2.07240  |     1.09667
   20 H                |  16 C                |     2.07240  |     1.09667
 ------------------------------------------------------------------------------
                         number of included internuclear distances:         20
 ==============================================================================



 ==============================================================================
                                 internuclear angles
 ------------------------------------------------------------------------------
        center 1       |       center 2       |       center 3       |  degrees
 ------------------------------------------------------------------------------
    3 C                |   1 C                |   6 C                |   117.98
    3 C                |   1 C                |  12 C                |   119.12
    6 C                |   1 C                |  12 C                |   122.90
    4 C                |   2 C                |   5 C                |   117.98
    4 C                |   2 C                |  11 C                |   119.12
    5 C                |   2 C                |  11 C                |   122.90
    1 C                |   3 C                |   5 C                |   121.15
    1 C                |   3 C                |   7 H                |   119.20
    5 C                |   3 C                |   7 H                |   119.65
    2 C                |   4 C                |   6 C                |   121.15
    2 C                |   4 C                |   8 H                |   119.20
    6 C                |   4 C                |   8 H                |   119.65
    2 C                |   5 C                |   3 C                |   120.87
    2 C                |   5 C                |   9 H                |   119.42
    3 C                |   5 C                |   9 H                |   119.70
    1 C                |   6 C                |   4 C                |   120.87
    1 C                |   6 C                |  10 H                |   119.42
    4 C                |   6 C                |  10 H                |   119.70
    2 C                |  11 C                |  13 H                |   114.63
    2 C                |  11 C                |  15 C                |   126.58
   13 H                |  11 C                |  15 C                |   118.79
    1 C                |  12 C                |  14 H                |   114.63
    1 C                |  12 C                |  16 C                |   126.58
   14 H                |  12 C                |  16 C                |   118.79
   11 C                |  15 C                |  17 H                |   122.49
   11 C                |  15 C                |  19 H                |   121.29
   17 H                |  15 C                |  19 H                |   116.22
   12 C                |  16 C                |  18 H                |   122.49
   12 C                |  16 C                |  20 H                |   121.29
   18 H                |  16 C                |  20 H                |   116.22
 ------------------------------------------------------------------------------
                            number of included internuclear angles:         30
 ==============================================================================



  library name resolved from: .nwchemrc
  library file name is: </home/adam/bin/nwchem/data/libraries/>
  


 Summary of "ao basis" -> "" (cartesian)
 ------------------------------------------------------------------------------
       Tag                 Description            Shells   Functions and Types
 ---------------- ------------------------------  ------  ---------------------
 *                           sto-3g                   on all atoms 


                              NWChem Property Module
                              ----------------------


                        Divinylbenzene in STO-3G basis set

  itol2e modified to match energy
  convergence criterion.

                                 NWChem DFT Module
                                 -----------------


                        Divinylbenzene in STO-3G basis set


                      Basis "ao basis" -> "ao basis" (cartesian)
                      -----
  C (Carbon)
  ----------
            Exponent  Coefficients 
       -------------- ---------------------------------------------------------
  1 S  7.16168370E+01  0.154329
  1 S  1.30450960E+01  0.535328
  1 S  3.53051220E+00  0.444635

  2 S  2.94124940E+00 -0.099967
  2 S  6.83483100E-01  0.399513
  2 S  2.22289900E-01  0.700115

  3 P  2.94124940E+00  0.155916
  3 P  6.83483100E-01  0.607684
  3 P  2.22289900E-01  0.391957

  H (Hydrogen)
  ------------
            Exponent  Coefficients 
       -------------- ---------------------------------------------------------
  1 S  3.42525091E+00  0.154329
  1 S  6.23913730E-01  0.535328
  1 S  1.68855400E-01  0.444635



 Summary of "ao basis" -> "ao basis" (cartesian)
 ------------------------------------------------------------------------------
       Tag                 Description            Shells   Functions and Types
 ---------------- ------------------------------  ------  ---------------------
 C                           sto-3g                  3        5   2s1p
 H                           sto-3g                  1        1   1s




 Summary of "ao basis" -> "ao basis" (cartesian)
 ------------------------------------------------------------------------------
       Tag                 Description            Shells   Functions and Types
 ---------------- ------------------------------  ------  ---------------------
 C                           sto-3g                  3        5   2s1p
 H                           sto-3g                  1        1   1s


      Symmetry analysis of basis
      --------------------------

        ag         25
        au          5
        bg          5
        bu         25

  Caching 1-el integrals 
  itol2e modified to match energy
  convergence criterion.

            General Information
            -------------------
          SCF calculation type: DFT
          Wavefunction type:  spin polarized.
          No. of atoms     :    20
          No. of electrons :    69
           Alpha electrons :    35
            Beta electrons :    34
          Charge           :     1
          Spin multiplicity:     2
          Use of symmetry is: on ; symmetry adaption is: on 
          Maximum number of iterations:  30
          AO basis - number of functions:    60
                     number of shells:    40
          Convergence on energy requested: 1.00D-07
          Convergence on density requested: 1.00D-05
          Convergence on gradient requested: 5.00D-04

              XC Information
              --------------
                         B3LYP Method XC Potential
                     Hartree-Fock (Exact) Exchange  0.200          
                        Slater Exchange Functional  0.800 local    
                    Becke 1988 Exchange Functional  0.720 non-local
              Lee-Yang-Parr Correlation Functional  0.810          
                  VWN I RPA Correlation Functional  0.190 local    

             Grid Information
             ----------------
          Grid used for XC integration:  xfine     
          Radial quadrature: Mura-Knowles        
          Angular quadrature: Lebedev. 
          Tag              B.-S. Rad. Rad. Pts. Rad. Cut. Ang. Pts.
          ---              ---------- --------- --------- ---------
          C                   0.70      100          13.0      1454
          H                   0.35      100          13.0      1202
          Grid pruning is: on 
          Number of quadrature shells:  1000
          Spatial weights used:  Erf1

          Convergence Information
          -----------------------
          Convergence aids based upon iterative change in 
          total energy or number of iterations. 
          Levelshifting, if invoked, occurs when the 
          HOMO/LUMO gap drops below (HL_TOL): 1.00D-02
          DIIS, if invoked, will attempt to extrapolate 
          using up to (NFOCK): 10 stored Fock matrices.

                    Damping( 0%)  Levelshifting(0.5)       DIIS
                  --------------- ------------------- ---------------
          dE  on:    start            ASAP                start   
          dE off:    2 iters         30 iters            30 iters 


      Screening Tolerance Information
      -------------------------------
          Density screening/tol_rho: 1.00D-11
          AO Gaussian exp screening on grid/accAOfunc:  16
          CD Gaussian exp screening on grid/accCDfunc:  20
          XC Gaussian exp screening on grid/accXCfunc:  20
          Schwarz screening/accCoul: 1.00D-08


      Superposition of Atomic Density Guess
      -------------------------------------

 Sum of atomic energies:        -376.44825176

 Renormalizing density from      70.00 to     69

      Non-variational initial energy
      ------------------------------

 Total energy =    -375.750729
 1-e energy   =   -1381.430366
 2-e energy   =     559.742625
 HOMO         =      -0.261060
 LUMO         =      -0.063255


   Symmetry analysis of molecular orbitals - initial alpha
   -------------------------------------------------------

  Numbering of irreducible representations: 

     1 ag          2 au          3 bg          4 bu      

  Orbital symmetries:

     1 ag          2 bu          3 bu          4 ag          5 bu      
     6 ag          7 ag          8 bu          9 bu         10 ag      
    11 ag         12 bu         13 ag         14 bu         15 bu      
    16 ag         17 ag         18 bu         19 ag         20 ag      
    21 bu         22 bu         23 bu         24 ag         25 bu      
    26 bu         27 ag         28 au         29 bu         30 ag      
    31 ag         32 bg         33 bg         34 au         35 bg      
    36 au         37 au         38 bg         39 au         40 bg      
    41 ag         42 bu         43 bu         44 ag         45 ag      


   Symmetry analysis of molecular orbitals - initial beta
   ------------------------------------------------------

  Numbering of irreducible representations: 

     1 ag          2 au          3 bg          4 bu      

  Orbital symmetries:

     1 ag          2 bu          3 bu          4 ag          5 bu      
     6 ag          7 ag          8 bu          9 bu         10 ag      
    11 ag         12 bu         13 ag         14 bu         15 bu      
    16 ag         17 ag         18 bu         19 ag         20 ag      
    21 bu         22 bu         23 bu         24 ag         25 bu      
    26 bu         27 ag         28 au         29 bu         30 ag      
    31 ag         32 bg         33 bg         34 au         35 bg      
    36 au         37 au         38 bg         39 au         40 bg      
    41 ag         42 bu         43 bu         44 ag         45 ag      

   Time after variat. SCF:      0.7
   Time prior to 1st pass:      0.7

 Integral file          = ./dvb.aoints.0
 Record size in doubles =    65536    No. of integs per rec  =    43688
 Max. records in memory =       19    Max. records in file   = ********
 No. of bits per label  =        8    No. of bits per value  =       64


 #quartets = 1.086D+05 #integrals = 3.268D+05 #direct =  0.0% #cached =100.0%


 Grid_pts file          = ./dvb.gridpts.0
 Record size in doubles =  12289        No. of grid_pts per rec  =   3070
 Max. records in memory =    522        Max. recs in file   = *********


           Memory utilization after 1st SCF pass: 
           Heap Space remaining (MW):        5.44             5443586
          Stack Space remaining (MW):       13.11            13105692

   convergence    iter        energy       DeltaE   RMS-Dens  Diis-err    time
 ---------------- ----- ----------------- --------- --------- ---------  ------
 d= 0,ls=0.0,diis     1   -382.0243207793 -8.28D+02  7.77D-03  1.04D-01    12.5
                                                     7.68D-03  1.02D-01
 d= 0,ls=0.0,diis     2   -382.0647499189 -4.04D-02  4.64D-03  1.95D-02    18.9
                                                     5.39D-03  2.36D-02
 d= 0,ls=0.0,diis     3   -382.0625001693  2.25D-03  2.83D-03  2.67D-02    28.1
                                                     2.64D-03  2.26D-02
 d= 0,ls=0.0,diis     4   -382.0809247663 -1.84D-02  3.84D-04  5.13D-04    37.4
                                                     3.93D-04  5.30D-04
 d= 0,ls=0.0,diis     5   -382.0812990147 -3.74D-04  2.64D-04  2.82D-05    46.7
                                                     2.73D-04  3.75D-05
  Resetting Diis
 d= 0,ls=0.0,diis     6   -382.0813980745 -9.91D-05  1.70D-04  7.53D-06    56.0
                                                     1.78D-04  1.25D-05
 d= 0,ls=0.0,diis     7   -382.0814285795 -3.05D-05  7.49D-05  4.37D-06    65.3
                                                     1.08D-04  5.77D-06
 d= 0,ls=0.0,diis     8   -382.0814301365 -1.56D-06  4.83D-05  1.07D-05    74.6
                                                     5.20D-05  8.93D-06
 d= 0,ls=0.0,diis     9   -382.0814368255 -6.69D-06  6.54D-05  2.84D-07    83.8
                                                     7.05D-05  4.73D-07
 d= 0,ls=0.0,diis    10   -382.0814390543 -2.23D-06  7.31D-06  4.27D-08    93.1
                                                     3.38D-06  2.29D-08
 d= 0,ls=0.0,diis    11   -382.0814390856 -3.13D-08  6.92D-07  2.68D-09   102.4
                                                     1.65D-06  3.12D-09


         Total DFT energy =     -382.081439085639
      One electron energy =    -1386.634813660123
           Coulomb energy =      615.977982897230
    Exchange-Corr. energy =      -57.361620490192
 Nuclear repulsion energy =      445.937012167446

 Numeric. integr. density =       69.000000234960

     Total iterative time =    101.6s



                  Occupations of the irreducible representations
                  ----------------------------------------------

                     irrep           alpha         beta
                     --------     --------     --------
                     ag               15.0         15.0
                     au                2.0          2.0
                     bg                3.0          2.0
                     bu               15.0         15.0


                    DFT Final Alpha Molecular Orbital Analysis
                    ------------------------------------------

 Vector    1  Occ=1.000000D+00  E=-1.025361D+01  Symmetry=bu
              MO Center=  2.5D-11,  1.5D-10, -4.2D-27, r^2= 2.1D+00
   Bfn.  Coefficient  Atom+Function         Bfn.  Coefficient  Atom+Function  
  ----- ------------  ---------------      ----- ------------  ---------------
     1      0.700267   1 C  s                 6     -0.700267   2 C  s         

 Vector    2  Occ=1.000000D+00  E=-1.025356D+01  Symmetry=ag
              MO Center= -2.5D-11, -1.5D-10,  6.5D-19, r^2= 2.1D+00
   Bfn.  Coefficient  Atom+Function         Bfn.  Coefficient  Atom+Function  
  ----- ------------  ---------------      ----- ------------  ---------------
     1      0.700290   1 C  s                 6      0.700290   2 C  s         

 Vector    3  Occ=1.000000D+00  E=-1.021954D+01  Symmetry=bu
              MO Center=  3.2D-11, -2.3D-11, -1.6D-24, r^2= 2.0D+00
   Bfn.  Coefficient  Atom+Function         Bfn.  Coefficient  Atom+Function  
  ----- ------------  ---------------      ----- ------------  ---------------
    21      0.682809   5 C  s                26     -0.682809   6 C  s         
    11     -0.155052   3 C  s                16      0.155052   4 C  s         

 Vector    4  Occ=1.000000D+00  E=-1.021949D+01  Symmetry=ag
              MO Center= -3.2D-11,  2.3D-11,  9.8D-19, r^2= 2.0D+00
   Bfn.  Coefficient  Atom+Function         Bfn.  Coefficient  Atom+Function  
  ----- ------------  ---------------      ----- ------------  ---------------
    21      0.676841   5 C  s                26      0.676841   6 C  s         
    11     -0.179416   3 C  s                16     -0.179416   4 C  s         

 Vector    5  Occ=1.000000D+00  E=-1.021807D+01  Symmetry=bu
              MO Center=  1.2D-11,  3.7D-12, -5.0D-24, r^2= 2.0D+00
   Bfn.  Coefficient  Atom+Function         Bfn.  Coefficient  Atom+Function  
  ----- ------------  ---------------      ----- ------------  ---------------
    11      0.682912   3 C  s                16     -0.682912   4 C  s         
    21      0.156049   5 C  s                26     -0.156049   6 C  s         

 Vector    6  Occ=1.000000D+00  E=-1.021797D+01  Symmetry=ag
              MO Center= -1.2D-11, -3.9D-12,  3.0D-18, r^2= 2.0D+00
   Bfn.  Coefficient  Atom+Function         Bfn.  Coefficient  Atom+Function  
  ----- ------------  ---------------      ----- ------------  ---------------
    11      0.674981   3 C  s                16      0.674981   4 C  s         
    21      0.179432   5 C  s                26      0.179432   6 C  s         

 Vector    7  Occ=1.000000D+00  E=-1.021759D+01  Symmetry=bu
              MO Center= -9.9D-10, -5.4D-09,  1.9D-21, r^2= 8.7D+00
   Bfn.  Coefficient  Atom+Function         Bfn.  Coefficient  Atom+Function  
  ----- ------------  ---------------      ----- ------------  ---------------
    35      0.697690  11 C  s                40     -0.697690  12 C  s         

 Vector    8  Occ=1.000000D+00  E=-1.021759D+01  Symmetry=ag
              MO Center=  9.9D-10,  5.4D-09,  3.6D-32, r^2= 8.6D+00
   Bfn.  Coefficient  Atom+Function         Bfn.  Coefficient  Atom+Function  
  ----- ------------  ---------------      ----- ------------  ---------------
    35      0.695510  11 C  s                40      0.695510  12 C  s         

 Vector    9  Occ=1.000000D+00  E=-1.021526D+01  Symmetry=bu
              MO Center=  1.9D-17,  2.2D-16, -7.0D-32, r^2= 1.5D+01
   Bfn.  Coefficient  Atom+Function         Bfn.  Coefficient  Atom+Function  
  ----- ------------  ---------------      ----- ------------  ---------------
    47      0.697939  15 C  s                52     -0.697939  16 C  s         

 Vector   10  Occ=1.000000D+00  E=-1.021526D+01  Symmetry=ag
              MO Center= -3.0D-16,  1.2D-16,  2.2D-33, r^2= 1.5D+01
   Bfn.  Coefficient  Atom+Function         Bfn.  Coefficient  Atom+Function  
  ----- ------------  ---------------      ----- ------------  ---------------
    47      0.697918  15 C  s                52      0.697918  16 C  s         

 Vector   11  Occ=1.000000D+00  E=-1.020756D+00  Symmetry=ag
              MO Center=  6.5D-15, -8.9D-15,  3.5D-17, r^2= 2.8D+00
   Bfn.  Coefficient  Atom+Function         Bfn.  Coefficient  Atom+Function  
  ----- ------------  ---------------      ----- ------------  ---------------
     2      0.290615   1 C  s                 7      0.290615   2 C  s         
    22      0.241187   5 C  s                27      0.241187   6 C  s         
    12      0.239205   3 C  s                17      0.239205   4 C  s         

 Vector   12  Occ=1.000000D+00  E=-9.619173D-01  Symmetry=bu
              MO Center=  2.1D-15,  2.0D-14,  1.1D-20, r^2= 7.1D+00
   Bfn.  Coefficient  Atom+Function         Bfn.  Coefficient  Atom+Function  
  ----- ------------  ---------------      ----- ------------  ---------------
     2      0.302134   1 C  s                 7     -0.302134   2 C  s         
    36     -0.278925  11 C  s                41      0.278925  12 C  s         
    48     -0.200892  15 C  s                53      0.200892  16 C  s         

 Vector   13  Occ=1.000000D+00  E=-9.216166D-01  Symmetry=ag
              MO Center= -4.1D-16, -1.2D-14,  4.0D-32, r^2= 1.1D+01
   Bfn.  Coefficient  Atom+Function         Bfn.  Coefficient  Atom+Function  
  ----- ------------  ---------------      ----- ------------  ---------------
    48      0.322501  15 C  s                53      0.322501  16 C  s         
    36      0.312363  11 C  s                41      0.312363  12 C  s         

 Vector   14  Occ=1.000000D+00  E=-8.992434D-01  Symmetry=bu
              MO Center= -7.0D-15,  2.7D-15, -6.9D-20, r^2= 3.1D+00
   Bfn.  Coefficient  Atom+Function         Bfn.  Coefficient  Atom+Function  
  ----- ------------  ---------------      ----- ------------  ---------------
    12      0.363920   3 C  s                17     -0.363920   4 C  s         
    22      0.320446   5 C  s                27     -0.320446   6 C  s         

 Vector   15  Occ=1.000000D+00  E=-8.767202D-01  Symmetry=bu
              MO Center=  7.1D-17,  2.1D-15, -1.0D-19, r^2= 9.2D+00
   Bfn.  Coefficient  Atom+Function         Bfn.  Coefficient  Atom+Function  
  ----- ------------  ---------------      ----- ------------  ---------------
    48      0.313565  15 C  s                53     -0.313565  16 C  s         
     2      0.266881   1 C  s                 7     -0.266881   2 C  s         
    22     -0.205247   5 C  s                27      0.205247   6 C  s         
    36      0.162233  11 C  s                41     -0.162233  12 C  s         

 Vector   16  Occ=1.000000D+00  E=-7.871090D-01  Symmetry=ag
              MO Center= -8.0D-16, -2.8D-15, -5.2D-17, r^2= 7.6D+00
   Bfn.  Coefficient  Atom+Function         Bfn.  Coefficient  Atom+Function  
  ----- ------------  ---------------      ----- ------------  ---------------
    22      0.249081   5 C  s                27      0.249081   6 C  s         
    48      0.238948  15 C  s                53      0.238948  16 C  s         
     2     -0.224049   1 C  s                 7     -0.224049   2 C  s         
    14     -0.170958   3 C  py               19      0.170958   4 C  py        

 Vector   17  Occ=1.000000D+00  E=-7.598629D-01  Symmetry=ag
              MO Center= -1.4D-15,  2.2D-15,  1.4D-16, r^2= 4.9D+00
   Bfn.  Coefficient  Atom+Function         Bfn.  Coefficient  Atom+Function  
  ----- ------------  ---------------      ----- ------------  ---------------
    12      0.334339   3 C  s                17      0.334339   4 C  s         
     3      0.203987   1 C  px                8     -0.203987   2 C  px        
    24      0.178445   5 C  py               29     -0.178445   6 C  py        
    22     -0.169852   5 C  s                27     -0.169852   6 C  s         
     2     -0.160170   1 C  s                 7     -0.160170   2 C  s         

 Vector   18  Occ=1.000000D+00  E=-7.224938D-01  Symmetry=bu
              MO Center= -6.0D-16, -8.0D-16, -3.0D-32, r^2= 1.2D+01
   Bfn.  Coefficient  Atom+Function         Bfn.  Coefficient  Atom+Function  
  ----- ------------  ---------------      ----- ------------  ---------------
    36      0.309254  11 C  s                41     -0.309254  12 C  s         
    48     -0.268359  15 C  s                53      0.268359  16 C  s         
     4     -0.161007   1 C  py                9     -0.161007   2 C  py        
    12      0.153598   3 C  s                17     -0.153598   4 C  s         
    45      0.152835  13 H  s                46     -0.152835  14 H  s         

 Vector   19  Occ=1.000000D+00  E=-7.035946D-01  Symmetry=ag
              MO Center=  2.0D-16, -3.2D-16,  1.7D-32, r^2= 7.3D+00
   Bfn.  Coefficient  Atom+Function         Bfn.  Coefficient  Atom+Function  
  ----- ------------  ---------------      ----- ------------  ---------------
    23      0.203402   5 C  px               28     -0.203402   6 C  px        
    13      0.190090   3 C  px               18     -0.190090   4 C  px        
    36      0.185525  11 C  s                41      0.185525  12 C  s         
    48     -0.177455  15 C  s                53     -0.177455  16 C  s         
    22      0.170730   5 C  s                27      0.170730   6 C  s         

 Vector   20  Occ=1.000000D+00  E=-6.504762D-01  Symmetry=ag
              MO Center= -1.1D-16,  5.8D-17,  3.4D-33, r^2= 1.0D+01
   Bfn.  Coefficient  Atom+Function         Bfn.  Coefficient  Atom+Function  
  ----- ------------  ---------------      ----- ------------  ---------------
    49      0.228211  15 C  px               54     -0.228211  16 C  px        
    38      0.181709  11 C  py               43     -0.181709  12 C  py        
    57      0.177943  17 H  s                58      0.177943  18 H  s         
    36     -0.158069  11 C  s                41     -0.158069  12 C  s         

 Vector   21  Occ=1.000000D+00  E=-6.349759D-01  Symmetry=bu
              MO Center=  2.9D-16, -2.1D-15,  3.5D-17, r^2= 9.2D+00
   Bfn.  Coefficient  Atom+Function         Bfn.  Coefficient  Atom+Function  
  ----- ------------  ---------------      ----- ------------  ---------------
    14      0.215130   3 C  py               19      0.215130   4 C  py        
    37      0.211885  11 C  px               42      0.211885  12 C  px        
    50      0.199161  15 C  py               55      0.199161  16 C  py        
     3      0.173226   1 C  px                8      0.173226   2 C  px        
    59     -0.151328  19 H  s                60      0.151328  20 H  s         

 Vector   22  Occ=1.000000D+00  E=-6.039889D-01  Symmetry=bu
              MO Center=  7.1D-16, -2.0D-16, -7.6D-17, r^2= 7.9D+00
   Bfn.  Coefficient  Atom+Function         Bfn.  Coefficient  Atom+Function  
  ----- ------------  ---------------      ----- ------------  ---------------
    38      0.208675  11 C  py               43      0.208675  12 C  py        
    49      0.202922  15 C  px               54      0.202922  16 C  px        
    13      0.183074   3 C  px               18      0.183074   4 C  px        
     3     -0.181829   1 C  px                8     -0.181829   2 C  px        
    24      0.179965   5 C  py               29      0.179965   6 C  py        

 Vector   23  Occ=1.000000D+00  E=-5.960837D-01  Symmetry=bu
              MO Center=  7.5D-16, -2.8D-16, -6.8D-32, r^2= 7.2D+00
   Bfn.  Coefficient  Atom+Function         Bfn.  Coefficient  Atom+Function  
  ----- ------------  ---------------      ----- ------------  ---------------
    23      0.283932   5 C  px               28      0.283932   6 C  px        
    33      0.234053   9 H  s                34     -0.234053  10 H  s         
    49      0.175613  15 C  px               54      0.175613  16 C  px        
     2      0.173244   1 C  s                 7     -0.173244   2 C  s         
     4     -0.154219   1 C  py                9     -0.154219   2 C  py        

 Vector   24  Occ=1.000000D+00  E=-5.878168D-01  Symmetry=ag
              MO Center= -9.0D-16,  1.8D-15, -4.7D-17, r^2= 1.5D+01
   Bfn.  Coefficient  Atom+Function         Bfn.  Coefficient  Atom+Function  
  ----- ------------  ---------------      ----- ------------  ---------------
    50      0.350754  15 C  py               55     -0.350754  16 C  py        
    37      0.265660  11 C  px               42     -0.265660  12 C  px        
    59     -0.246184  19 H  s                60     -0.246184  20 H  s         
    45     -0.150427  13 H  s                46     -0.150427  14 H  s         

 Vector   25  Occ=1.000000D+00  E=-5.688461D-01  Symmetry=bu
              MO Center= -8.3D-16,  6.7D-16, -9.1D-19, r^2= 4.6D+00
   Bfn.  Coefficient  Atom+Function         Bfn.  Coefficient  Atom+Function  
  ----- ------------  ---------------      ----- ------------  ---------------
    13      0.335087   3 C  px               18      0.335087   4 C  px        
    31      0.248253   7 H  s                32     -0.248253   8 H  s         
    23      0.195219   5 C  px               28      0.195219   6 C  px        
    24     -0.193761   5 C  py               29     -0.193761   6 C  py        
    33      0.190865   9 H  s                34     -0.190865  10 H  s         

 Vector   26  Occ=1.000000D+00  E=-5.522412D-01  Symmetry=bu
              MO Center=  2.9D-15,  1.6D-15,  1.5D-17, r^2= 1.0D+01
   Bfn.  Coefficient  Atom+Function         Bfn.  Coefficient  Atom+Function  
  ----- ------------  ---------------      ----- ------------  ---------------
    50      0.283994  15 C  py               55      0.283994  16 C  py        
    14     -0.220296   3 C  py               19     -0.220296   4 C  py        
    37      0.215469  11 C  px               42      0.215469  12 C  px        
    24      0.210473   5 C  py               29      0.210473   6 C  py        
    59     -0.178274  19 H  s                60      0.178274  20 H  s         

 Vector   27  Occ=1.000000D+00  E=-5.371004D-01  Symmetry=ag
              MO Center= -2.1D-15, -2.3D-15,  4.3D-32, r^2= 1.1D+01
   Bfn.  Coefficient  Atom+Function         Bfn.  Coefficient  Atom+Function  
  ----- ------------  ---------------      ----- ------------  ---------------
    49      0.294646  15 C  px               54     -0.294646  16 C  px        
    57      0.237658  17 H  s                58      0.237658  18 H  s         
    37     -0.192640  11 C  px               42      0.192640  12 C  px        
    45      0.172738  13 H  s                46      0.172738  14 H  s         
    14     -0.170018   3 C  py               19      0.170018   4 C  py        

 Vector   28  Occ=1.000000D+00  E=-5.336331D-01  Symmetry=au
              MO Center= -2.3D-15, -5.8D-15,  3.6D-17, r^2= 3.5D+00
   Bfn.  Coefficient  Atom+Function         Bfn.  Coefficient  Atom+Function  
  ----- ------------  ---------------      ----- ------------  ---------------
     5      0.362047   1 C  pz               10      0.362047   2 C  pz        
    25      0.287484   5 C  pz               30      0.287484   6 C  pz        
    15      0.285426   3 C  pz               20      0.285426   4 C  pz        
    39      0.163596  11 C  pz               44      0.163596  12 C  pz        

 Vector   29  Occ=1.000000D+00  E=-5.010516D-01  Symmetry=bu
              MO Center= -2.4D-15, -3.0D-14, -1.1D-17, r^2= 1.3D+01
   Bfn.  Coefficient  Atom+Function         Bfn.  Coefficient  Atom+Function  
  ----- ------------  ---------------      ----- ------------  ---------------
    45      0.260437  13 H  s                46     -0.260437  14 H  s         
    37     -0.236132  11 C  px               42     -0.236132  12 C  px        
    49      0.234565  15 C  px               54      0.234565  16 C  px        
    57      0.235371  17 H  s                58     -0.235371  18 H  s         
     4      0.218695   1 C  py                9      0.218695   2 C  py        

 Vector   30  Occ=1.000000D+00  E=-4.932961D-01  Symmetry=ag
              MO Center=  1.9D-15,  1.9D-14,  2.3D-17, r^2= 6.1D+00
   Bfn.  Coefficient  Atom+Function         Bfn.  Coefficient  Atom+Function  
  ----- ------------  ---------------      ----- ------------  ---------------
    33     -0.259644   9 H  s                34     -0.259644  10 H  s         
     4      0.247991   1 C  py                9     -0.247991   2 C  py        
    14     -0.245384   3 C  py               19      0.245384   4 C  py        
    24      0.218035   5 C  py               29     -0.218035   6 C  py        
    38      0.210706  11 C  py               43     -0.210706  12 C  py        

 Vector   31  Occ=1.000000D+00  E=-4.827093D-01  Symmetry=ag
              MO Center=  1.0D-15,  9.1D-15, -1.9D-16, r^2= 7.5D+00
   Bfn.  Coefficient  Atom+Function         Bfn.  Coefficient  Atom+Function  
  ----- ------------  ---------------      ----- ------------  ---------------
     3      0.257457   1 C  px                8     -0.257457   2 C  px        
    23      0.251931   5 C  px               28     -0.251931   6 C  px        
    31     -0.234505   7 H  s                32     -0.234505   8 H  s         
    13     -0.202378   3 C  px               18      0.202378   4 C  px        
    45     -0.200740  13 H  s                46     -0.200740  14 H  s         

 Vector   32  Occ=1.000000D+00  E=-4.736159D-01  Symmetry=bg
              MO Center=  7.9D-16, -8.2D-15, -1.3D-19, r^2= 7.3D+00
   Bfn.  Coefficient  Atom+Function         Bfn.  Coefficient  Atom+Function  
  ----- ------------  ---------------      ----- ------------  ---------------
     5      0.383761   1 C  pz               10     -0.383761   2 C  pz        
    39     -0.342924  11 C  pz               44      0.342924  12 C  pz        
    51     -0.265433  15 C  pz               56      0.265433  16 C  pz        

 Vector   33  Occ=1.000000D+00  E=-4.179075D-01  Symmetry=au
              MO Center=  4.4D-16,  1.4D-14,  1.7D-16, r^2= 1.2D+01
   Bfn.  Coefficient  Atom+Function         Bfn.  Coefficient  Atom+Function  
  ----- ------------  ---------------      ----- ------------  ---------------
    51      0.447522  15 C  pz               56      0.447522  16 C  pz        
    39      0.389910  11 C  pz               44      0.389910  12 C  pz        
    15     -0.169005   3 C  pz               20     -0.169005   4 C  pz        
    25     -0.167861   5 C  pz               30     -0.167861   6 C  pz        

 Vector   34  Occ=1.000000D+00  E=-3.943442D-01  Symmetry=bg
              MO Center=  1.3D-15,  3.9D-16, -1.3D-18, r^2= 2.7D+00
   Bfn.  Coefficient  Atom+Function         Bfn.  Coefficient  Atom+Function  
  ----- ------------  ---------------      ----- ------------  ---------------
    15      0.460831   3 C  pz               20     -0.460831   4 C  pz        
    25      0.460407   5 C  pz               30     -0.460407   6 C  pz        

 Vector   35  Occ=1.000000D+00  E=-3.697074D-01  Symmetry=bg
              MO Center=  2.4D-16,  1.0D-15,  7.3D-18, r^2= 8.9D+00
   Bfn.  Coefficient  Atom+Function         Bfn.  Coefficient  Atom+Function  
  ----- ------------  ---------------      ----- ------------  ---------------
    51      0.429422  15 C  pz               56     -0.429422  16 C  pz        
     5      0.377815   1 C  pz               10     -0.377815   2 C  pz        
    39      0.228269  11 C  pz               44     -0.228269  12 C  pz        
    25     -0.201114   5 C  pz               30      0.201114   6 C  pz        
    15      0.194046   3 C  pz               20     -0.194046   4 C  pz        

 Vector   36  Occ=0.000000D+00  E=-1.774527D-01  Symmetry=au
              MO Center=  5.0D-16,  1.4D-15,  1.0D-16, r^2= 7.3D+00
   Bfn.  Coefficient  Atom+Function         Bfn.  Coefficient  Atom+Function  
  ----- ------------  ---------------      ----- ------------  ---------------
     5      0.454603   1 C  pz               10      0.454603   2 C  pz        
    51     -0.414097  15 C  pz               56     -0.414097  16 C  pz        
    25     -0.298929   5 C  pz               30     -0.298929   6 C  pz        
    15     -0.257054   3 C  pz               20     -0.257054   4 C  pz        
    39      0.248042  11 C  pz               44      0.248042  12 C  pz        

 Vector   37  Occ=0.000000D+00  E=-1.115335D-01  Symmetry=au
              MO Center= -6.1D-16, -4.9D-16, -1.0D-16, r^2= 2.7D+00
   Bfn.  Coefficient  Atom+Function         Bfn.  Coefficient  Atom+Function  
  ----- ------------  ---------------      ----- ------------  ---------------
    15      0.583595   3 C  pz               20      0.583595   4 C  pz        
    25     -0.552467   5 C  pz               30     -0.552467   6 C  pz        

 Vector   38  Occ=0.000000D+00  E=-9.436260D-02  Symmetry=bg
              MO Center=  3.9D-16,  4.9D-15, -4.9D-17, r^2= 1.1D+01
   Bfn.  Coefficient  Atom+Function         Bfn.  Coefficient  Atom+Function  
  ----- ------------  ---------------      ----- ------------  ---------------
    39      0.540550  11 C  pz               44     -0.540550  12 C  pz        
    51     -0.500547  15 C  pz               56      0.500547  16 C  pz        
    15      0.245368   3 C  pz               20     -0.245368   4 C  pz        
    25     -0.235394   5 C  pz               30      0.235394   6 C  pz        

 Vector   39  Occ=0.000000D+00  E=-2.962792D-02  Symmetry=au
              MO Center= -3.5D-16, -4.3D-15, -8.5D-16, r^2= 8.3D+00
   Bfn.  Coefficient  Atom+Function         Bfn.  Coefficient  Atom+Function  
  ----- ------------  ---------------      ----- ------------  ---------------
    39      0.553828  11 C  pz               44      0.553828  12 C  pz        
     5     -0.468066   1 C  pz               10     -0.468066   2 C  pz        
    51     -0.386369  15 C  pz               56     -0.386369  16 C  pz        
    25      0.192075   5 C  pz               30      0.192075   6 C  pz        
    15      0.159669   3 C  pz               20      0.159669   4 C  pz        

 Vector   40  Occ=0.000000D+00  E= 5.994919D-02  Symmetry=bg
              MO Center= -6.2D-16, -3.6D-15,  3.9D-17, r^2= 3.9D+00
   Bfn.  Coefficient  Atom+Function         Bfn.  Coefficient  Atom+Function  
  ----- ------------  ---------------      ----- ------------  ---------------
     5      0.526875   1 C  pz               10     -0.526875   2 C  pz        
    15     -0.472960   3 C  pz               20      0.472960   4 C  pz        
    25      0.473775   5 C  pz               30     -0.473775   6 C  pz        
    39      0.292051  11 C  pz               44     -0.292051  12 C  pz        
    51     -0.155709  15 C  pz               56      0.155709  16 C  pz        

 Vector   41  Occ=0.000000D+00  E= 1.397083D-01  Symmetry=ag
              MO Center= -2.8D-15, -4.0D-14, -5.6D-17, r^2= 8.7D+00
   Bfn.  Coefficient  Atom+Function         Bfn.  Coefficient  Atom+Function  
  ----- ------------  ---------------      ----- ------------  ---------------
     2      0.488096   1 C  s                 7      0.488096   2 C  s         
    33     -0.390580   9 H  s                34     -0.390580  10 H  s         
    31     -0.378081   7 H  s                32     -0.378081   8 H  s         
    38     -0.371423  11 C  py               43      0.371423  12 C  py        
    36     -0.347602  11 C  s                41     -0.347602  12 C  s         

 Vector   42  Occ=0.000000D+00  E= 1.490003D-01  Symmetry=bu
              MO Center=  9.9D-15,  2.5D-14, -1.5D-18, r^2= 9.8D+00
   Bfn.  Coefficient  Atom+Function         Bfn.  Coefficient  Atom+Function  
  ----- ------------  ---------------      ----- ------------  ---------------
    45      0.353761  13 H  s                46     -0.353761  14 H  s         
    13      0.340063   3 C  px               18      0.340063   4 C  px        
    37      0.328670  11 C  px               42      0.328670  12 C  px        
    57     -0.322957  17 H  s                58      0.322957  18 H  s         
    49      0.314370  15 C  px               54      0.314370  16 C  px        

 Vector   43  Occ=0.000000D+00  E= 1.792466D-01  Symmetry=bu
              MO Center= -6.5D-15,  1.8D-14, -4.9D-17, r^2= 6.4D+00
   Bfn.  Coefficient  Atom+Function         Bfn.  Coefficient  Atom+Function  
  ----- ------------  ---------------      ----- ------------  ---------------
    36      0.587200  11 C  s                41     -0.587200  12 C  s         
     4      0.447578   1 C  py                9      0.447578   2 C  py        
    33      0.400056   9 H  s                34     -0.400056  10 H  s         
     2      0.343313   1 C  s                 7     -0.343313   2 C  s         
    38      0.325332  11 C  py               43      0.325332  12 C  py        

 Vector   44  Occ=0.000000D+00  E= 1.964587D-01  Symmetry=ag
              MO Center=  2.9D-15,  5.3D-16, -2.9D-17, r^2= 1.1D+01
   Bfn.  Coefficient  Atom+Function         Bfn.  Coefficient  Atom+Function  
  ----- ------------  ---------------      ----- ------------  ---------------
    45      0.520762  13 H  s                46      0.520762  14 H  s         
    12      0.467458   3 C  s                17      0.467458   4 C  s         
    57     -0.403044  17 H  s                58     -0.403044  18 H  s         
    33     -0.332563   9 H  s                34     -0.332563  10 H  s         
    31     -0.321891   7 H  s                32     -0.321891   8 H  s         

 Vector   45  Occ=0.000000D+00  E= 2.146793D-01  Symmetry=ag
              MO Center=  5.3D-14, -1.6D-13,  9.5D-17, r^2= 8.5D+00
   Bfn.  Coefficient  Atom+Function         Bfn.  Coefficient  Atom+Function  
  ----- ------------  ---------------      ----- ------------  ---------------
    22      0.771047   5 C  s                27      0.771047   6 C  s         
    48      0.518815  15 C  s                53      0.518815  16 C  s         
     2     -0.433732   1 C  s                 7     -0.433732   2 C  s         
    12     -0.405912   3 C  s                17     -0.405912   4 C  s         
    57     -0.386663  17 H  s                58     -0.386663  18 H  s         

 Vector   46  Occ=0.000000D+00  E= 2.203576D-01  Symmetry=bu
              MO Center= -5.1D-14,  1.3D-13,  8.8D-17, r^2= 8.9D+00
   Bfn.  Coefficient  Atom+Function         Bfn.  Coefficient  Atom+Function  
  ----- ------------  ---------------      ----- ------------  ---------------
    22      0.643368   5 C  s                27     -0.643368   6 C  s         
     2      0.505156   1 C  s                 7     -0.505156   2 C  s         
    12     -0.484304   3 C  s                17      0.484304   4 C  s         
    48      0.481526  15 C  s                53     -0.481526  16 C  s         
    31      0.412727   7 H  s                32     -0.412727   8 H  s         

 Vector   47  Occ=0.000000D+00  E= 2.396756D-01  Symmetry=ag
              MO Center= -1.0D-15, -1.5D-15,  8.7D-16, r^2= 7.5D+00
   Bfn.  Coefficient  Atom+Function         Bfn.  Coefficient  Atom+Function  
  ----- ------------  ---------------      ----- ------------  ---------------
     2      0.724224   1 C  s                 7      0.724224   2 C  s         
    12     -0.638843   3 C  s                17     -0.638843   4 C  s         
    36     -0.483207  11 C  s                41     -0.483207  12 C  s         
    48      0.460729  15 C  s                53      0.460729  16 C  s         
    57     -0.356579  17 H  s                58     -0.356579  18 H  s         

 Vector   48  Occ=0.000000D+00  E= 2.405820D-01  Symmetry=bu
              MO Center=  1.5D-15,  1.6D-14, -3.4D-17, r^2= 1.2D+01
   Bfn.  Coefficient  Atom+Function         Bfn.  Coefficient  Atom+Function  
  ----- ------------  ---------------      ----- ------------  ---------------
    31      0.510048   7 H  s                32     -0.510048   8 H  s         
    59      0.462241  19 H  s                60     -0.462241  20 H  s         
    45      0.458356  13 H  s                46     -0.458356  14 H  s         
    36     -0.419598  11 C  s                41      0.419598  12 C  s         
    50      0.340596  15 C  py               55      0.340596  16 C  py        

 Vector   49  Occ=0.000000D+00  E= 2.630187D-01  Symmetry=bu
              MO Center= -2.4D-15,  1.0D-14,  3.1D-17, r^2= 1.2D+01
   Bfn.  Coefficient  Atom+Function         Bfn.  Coefficient  Atom+Function  
  ----- ------------  ---------------      ----- ------------  ---------------
    48      0.738193  15 C  s                53     -0.738193  16 C  s         
    57     -0.576719  17 H  s                58      0.576719  18 H  s         
    36     -0.469359  11 C  s                41      0.469359  12 C  s         
    33      0.400675   9 H  s                34     -0.400675  10 H  s         
    12      0.361314   3 C  s                17     -0.361314   4 C  s         

 Vector   50  Occ=0.000000D+00  E= 2.853155D-01  Symmetry=ag
              MO Center=  1.8D-15,  1.1D-14, -2.3D-17, r^2= 1.3D+01
   Bfn.  Coefficient  Atom+Function         Bfn.  Coefficient  Atom+Function  
  ----- ------------  ---------------      ----- ------------  ---------------
    12      0.573676   3 C  s                17      0.573676   4 C  s         
    22     -0.574431   5 C  s                27     -0.574431   6 C  s         
    59     -0.569861  19 H  s                60     -0.569861  20 H  s         
    48      0.524629  15 C  s                53      0.524629  16 C  s         
    50     -0.408424  15 C  py               55      0.408424  16 C  py        

 Vector   51  Occ=0.000000D+00  E= 3.197839D-01  Symmetry=ag
              MO Center= -2.0D-15, -1.2D-15, -4.5D-18, r^2= 6.7D+00
   Bfn.  Coefficient  Atom+Function         Bfn.  Coefficient  Atom+Function  
  ----- ------------  ---------------      ----- ------------  ---------------
     4      0.612787   1 C  py                9     -0.612787   2 C  py        
    36     -0.600273  11 C  s                41     -0.600273  12 C  s         
    13     -0.439477   3 C  px               18      0.439477   4 C  px        
    45      0.343476  13 H  s                46      0.343476  14 H  s         
    23     -0.335430   5 C  px               28      0.335430   6 C  px        

 Vector   52  Occ=0.000000D+00  E= 3.442773D-01  Symmetry=bu
              MO Center= -6.2D-15, -2.5D-14,  3.1D-18, r^2= 8.0D+00
   Bfn.  Coefficient  Atom+Function         Bfn.  Coefficient  Atom+Function  
  ----- ------------  ---------------      ----- ------------  ---------------
    12      0.640599   3 C  s                17     -0.640599   4 C  s         
     3     -0.549538   1 C  px                8     -0.549538   2 C  px        
    24     -0.469978   5 C  py               29     -0.469978   6 C  py        
    50      0.459269  15 C  py               55      0.459269  16 C  py        
    59      0.377578  19 H  s                60     -0.377578  20 H  s         

 Vector   53  Occ=0.000000D+00  E= 3.799999D-01  Symmetry=ag
              MO Center= -5.2D-15, -4.2D-15, -9.4D-17, r^2= 5.8D+00
   Bfn.  Coefficient  Atom+Function         Bfn.  Coefficient  Atom+Function  
  ----- ------------  ---------------      ----- ------------  ---------------
    33      0.550017   9 H  s                34      0.550017  10 H  s         
    13      0.544691   3 C  px               18     -0.544691   4 C  px        
    23     -0.506688   5 C  px               28      0.506688   6 C  px        
    31     -0.498441   7 H  s                32     -0.498441   8 H  s         
    24      0.355721   5 C  py               29     -0.355721   6 C  py        

 Vector   54  Occ=0.000000D+00  E= 3.978255D-01  Symmetry=bu
              MO Center=  7.7D-15,  1.1D-14,  7.3D-18, r^2= 4.4D+00
   Bfn.  Coefficient  Atom+Function         Bfn.  Coefficient  Atom+Function  
  ----- ------------  ---------------      ----- ------------  ---------------
    14      0.707963   3 C  py               19      0.707963   4 C  py        
    22      0.585164   5 C  s                27     -0.585164   6 C  s         
     2     -0.439525   1 C  s                 7      0.439525   2 C  s         
    24      0.431297   5 C  py               29      0.431297   6 C  py        
    23      0.381887   5 C  px               28      0.381887   6 C  px        

 Vector   55  Occ=0.000000D+00  E= 4.254715D-01  Symmetry=bu
              MO Center= -2.4D-15, -8.0D-14, -2.0D-20, r^2= 1.2D+01
   Bfn.  Coefficient  Atom+Function         Bfn.  Coefficient  Atom+Function  
  ----- ------------  ---------------      ----- ------------  ---------------
    49     -0.559554  15 C  px               54     -0.559554  16 C  px        
     2      0.529227   1 C  s                 7     -0.529227   2 C  s         
    38      0.469562  11 C  py               43      0.469562  12 C  py        
    45      0.401483  13 H  s                46     -0.401483  14 H  s         
    57      0.390968  17 H  s                58     -0.390968  18 H  s         

 Vector   56  Occ=0.000000D+00  E= 4.381710D-01  Symmetry=ag
              MO Center=  5.7D-15,  1.0D-13, -8.7D-19, r^2= 9.7D+00
   Bfn.  Coefficient  Atom+Function         Bfn.  Coefficient  Atom+Function  
  ----- ------------  ---------------      ----- ------------  ---------------
    37      0.562812  11 C  px               42     -0.562812  12 C  px        
    50     -0.552022  15 C  py               55      0.552022  16 C  py        
    14      0.425467   3 C  py               19     -0.425467   4 C  py        
    24      0.352005   5 C  py               29     -0.352005   6 C  py        
    59     -0.353031  19 H  s                60     -0.353031  20 H  s         

 Vector   57  Occ=0.000000D+00  E= 4.777506D-01  Symmetry=ag
              MO Center= -5.0D-15, -1.9D-14, -3.2D-17, r^2= 9.9D+00
   Bfn.  Coefficient  Atom+Function         Bfn.  Coefficient  Atom+Function  
  ----- ------------  ---------------      ----- ------------  ---------------
    38      0.670259  11 C  py               43     -0.670259  12 C  py        
    49     -0.605869  15 C  px               54      0.605869  16 C  px        
    24     -0.424187   5 C  py               29      0.424187   6 C  py        
     4     -0.383778   1 C  py                9      0.383778   2 C  py        
    14     -0.351071   3 C  py               19      0.351071   4 C  py        

 Vector   58  Occ=0.000000D+00  E= 5.060414D-01  Symmetry=bu
              MO Center=  1.9D-15,  3.0D-14, -2.6D-18, r^2= 9.7D+00
   Bfn.  Coefficient  Atom+Function         Bfn.  Coefficient  Atom+Function  
  ----- ------------  ---------------      ----- ------------  ---------------
    37      0.622376  11 C  px               42      0.622376  12 C  px        
    50     -0.552727  15 C  py               55     -0.552727  16 C  py        
    48     -0.518285  15 C  s                53      0.518285  16 C  s         
    38     -0.456094  11 C  py               43     -0.456094  12 C  py        
    36      0.447959  11 C  s                41     -0.447959  12 C  s         

 Vector   59  Occ=0.000000D+00  E= 5.676000D-01  Symmetry=ag
              MO Center=  2.7D-16, -2.3D-14, -2.4D-19, r^2= 5.4D+00
   Bfn.  Coefficient  Atom+Function         Bfn.  Coefficient  Atom+Function  
  ----- ------------  ---------------      ----- ------------  ---------------
     3      0.691283   1 C  px                8     -0.691283   2 C  px        
    14     -0.543568   3 C  py               19      0.543568   4 C  py        
    23     -0.437546   5 C  px               28      0.437546   6 C  px        
    37      0.433546  11 C  px               42     -0.433546  12 C  px        
    24     -0.417703   5 C  py               29      0.417703   6 C  py        

 Vector   60  Occ=0.000000D+00  E= 5.817448D-01  Symmetry=bu
              MO Center= -7.2D-16, -3.9D-15,  8.1D-24, r^2= 3.7D+00
   Bfn.  Coefficient  Atom+Function         Bfn.  Coefficient  Atom+Function  
  ----- ------------  ---------------      ----- ------------  ---------------
     4      0.642938   1 C  py                9      0.642938   2 C  py        
    13     -0.568423   3 C  px               18     -0.568423   4 C  px        
    23      0.495542   5 C  px               28      0.495542   6 C  px        
    24     -0.397652   5 C  py               29     -0.397652   6 C  py        
    22     -0.383109   5 C  s                27      0.383109   6 C  s         


                     DFT Final Beta Molecular Orbital Analysis
                     -----------------------------------------

 Vector    1  Occ=1.000000D+00  E=-1.025063D+01  Symmetry=bu
              MO Center=  5.9D-12,  3.5D-11,  2.0D-26, r^2= 2.1D+00
   Bfn.  Coefficient  Atom+Function         Bfn.  Coefficient  Atom+Function  
  ----- ------------  ---------------      ----- ------------  ---------------
     1      0.700307   1 C  s                 6     -0.700307   2 C  s         

 Vector    2  Occ=1.000000D+00  E=-1.025058D+01  Symmetry=ag
              MO Center= -5.9D-12, -3.5D-11, -7.5D-19, r^2= 2.1D+00
   Bfn.  Coefficient  Atom+Function         Bfn.  Coefficient  Atom+Function  
  ----- ------------  ---------------      ----- ------------  ---------------
     1      0.700330   1 C  s                 6      0.700330   2 C  s         

 Vector    3  Occ=1.000000D+00  E=-1.021921D+01  Symmetry=bu
              MO Center=  1.7D-11, -1.3D-11,  1.7D-23, r^2= 2.0D+00
   Bfn.  Coefficient  Atom+Function         Bfn.  Coefficient  Atom+Function  
  ----- ------------  ---------------      ----- ------------  ---------------
    21      0.680255   5 C  s                26     -0.680255   6 C  s         
    11     -0.165809   3 C  s                16      0.165809   4 C  s         

 Vector    4  Occ=1.000000D+00  E=-1.021917D+01  Symmetry=ag
              MO Center= -1.7D-11,  1.3D-11, -2.0D-18, r^2= 2.0D+00
   Bfn.  Coefficient  Atom+Function         Bfn.  Coefficient  Atom+Function  
  ----- ------------  ---------------      ----- ------------  ---------------
    21      0.673247   5 C  s                26      0.673247   6 C  s         
    11     -0.192215   3 C  s                16     -0.192215   4 C  s         

 Vector    5  Occ=1.000000D+00  E=-1.021844D+01  Symmetry=ag
              MO Center= -2.1D-16, -1.4D-16,  7.7D-35, r^2= 8.6D+00
   Bfn.  Coefficient  Atom+Function         Bfn.  Coefficient  Atom+Function  
  ----- ------------  ---------------      ----- ------------  ---------------
    35      0.699342  11 C  s                40      0.699342  12 C  s         

 Vector    6  Occ=1.000000D+00  E=-1.021844D+01  Symmetry=bu
              MO Center= -1.6D-15, -3.8D-15, -6.3D-31, r^2= 8.6D+00
   Bfn.  Coefficient  Atom+Function         Bfn.  Coefficient  Atom+Function  
  ----- ------------  ---------------      ----- ------------  ---------------
    35      0.700085  11 C  s                40     -0.700085  12 C  s         

 Vector    7  Occ=1.000000D+00  E=-1.021786D+01  Symmetry=bu
              MO Center= -1.5D-13, -4.9D-13,  3.2D-31, r^2= 2.0D+00
   Bfn.  Coefficient  Atom+Function         Bfn.  Coefficient  Atom+Function  
  ----- ------------  ---------------      ----- ------------  ---------------
    11      0.680448   3 C  s                16     -0.680448   4 C  s         
    21      0.166736   5 C  s                26     -0.166736   6 C  s         

 Vector    8  Occ=1.000000D+00  E=-1.021776D+01  Symmetry=ag
              MO Center= -2.1D-16, -1.7D-14,  2.4D-18, r^2= 2.0D+00
   Bfn.  Coefficient  Atom+Function         Bfn.  Coefficient  Atom+Function  
  ----- ------------  ---------------      ----- ------------  ---------------
    11      0.672703   3 C  s                16      0.672703   4 C  s         
    21      0.193363   5 C  s                26      0.193363   6 C  s         

 Vector    9  Occ=1.000000D+00  E=-1.021079D+01  Symmetry=ag
              MO Center= -9.4D-10,  1.0D-08,  2.2D-17, r^2= 1.5D+01
   Bfn.  Coefficient  Atom+Function         Bfn.  Coefficient  Atom+Function  
  ----- ------------  ---------------      ----- ------------  ---------------
    47      0.700374  15 C  s                52      0.700374  16 C  s         

 Vector   10  Occ=1.000000D+00  E=-1.021079D+01  Symmetry=bu
              MO Center=  9.4D-10, -1.0D-08, -1.3D-25, r^2= 1.5D+01
   Bfn.  Coefficient  Atom+Function         Bfn.  Coefficient  Atom+Function  
  ----- ------------  ---------------      ----- ------------  ---------------
    47      0.700375  15 C  s                52     -0.700375  16 C  s         

 Vector   11  Occ=1.000000D+00  E=-1.014702D+00  Symmetry=ag
              MO Center= -6.5D-16,  3.5D-15, -2.5D-17, r^2= 2.8D+00
   Bfn.  Coefficient  Atom+Function         Bfn.  Coefficient  Atom+Function  
  ----- ------------  ---------------      ----- ------------  ---------------
     2      0.279929   1 C  s                 7      0.279929   2 C  s         
    22      0.245657   5 C  s                27      0.245657   6 C  s         
    12      0.244408   3 C  s                17      0.244408   4 C  s         

 Vector   12  Occ=1.000000D+00  E=-9.544807D-01  Symmetry=bu
              MO Center= -3.0D-16, -4.3D-15,  4.1D-21, r^2= 7.1D+00
   Bfn.  Coefficient  Atom+Function         Bfn.  Coefficient  Atom+Function  
  ----- ------------  ---------------      ----- ------------  ---------------
     2      0.294364   1 C  s                 7     -0.294364   2 C  s         
    36     -0.292082  11 C  s                41      0.292082  12 C  s         
    48     -0.187106  15 C  s                53      0.187106  16 C  s         

 Vector   13  Occ=1.000000D+00  E=-9.137413D-01  Symmetry=ag
              MO Center=  6.4D-17,  1.0D-15,  1.9D-32, r^2= 1.1D+01
   Bfn.  Coefficient  Atom+Function         Bfn.  Coefficient  Atom+Function  
  ----- ------------  ---------------      ----- ------------  ---------------
    36      0.329689  11 C  s                41      0.329689  12 C  s         
    48      0.296717  15 C  s                53      0.296717  16 C  s         

 Vector   14  Occ=1.000000D+00  E=-8.975952D-01  Symmetry=bu
              MO Center=  1.5D-15,  6.7D-17, -6.9D-19, r^2= 3.0D+00
   Bfn.  Coefficient  Atom+Function         Bfn.  Coefficient  Atom+Function  
  ----- ------------  ---------------      ----- ------------  ---------------
    12      0.359673   3 C  s                17     -0.359673   4 C  s         
    22      0.329999   5 C  s                27     -0.329999   6 C  s         

 Vector   15  Occ=1.000000D+00  E=-8.645220D-01  Symmetry=bu
              MO Center=  7.7D-16,  5.5D-15, -2.4D-18, r^2= 9.1D+00
   Bfn.  Coefficient  Atom+Function         Bfn.  Coefficient  Atom+Function  
  ----- ------------  ---------------      ----- ------------  ---------------
    48      0.299589  15 C  s                53     -0.299589  16 C  s         
     2      0.262762   1 C  s                 7     -0.262762   2 C  s         
    22     -0.193859   5 C  s                27      0.193859   6 C  s         
    36      0.173277  11 C  s                41     -0.173277  12 C  s         

 Vector   16  Occ=1.000000D+00  E=-7.818207D-01  Symmetry=ag
              MO Center= -9.7D-16, -4.6D-15, -3.6D-33, r^2= 7.6D+00
   Bfn.  Coefficient  Atom+Function         Bfn.  Coefficient  Atom+Function  
  ----- ------------  ---------------      ----- ------------  ---------------
    22      0.252823   5 C  s                27      0.252823   6 C  s         
    48      0.235222  15 C  s                53      0.235222  16 C  s         
     2     -0.210254   1 C  s                 7     -0.210254   2 C  s         
    14     -0.172862   3 C  py               19      0.172862   4 C  py        

 Vector   17  Occ=1.000000D+00  E=-7.558002D-01  Symmetry=ag
              MO Center=  2.7D-15, -7.1D-16,  2.9D-16, r^2= 5.2D+00
   Bfn.  Coefficient  Atom+Function         Bfn.  Coefficient  Atom+Function  
  ----- ------------  ---------------      ----- ------------  ---------------
    12      0.329210   3 C  s                17      0.329210   4 C  s         
     3      0.192358   1 C  px                8     -0.192358   2 C  px        
    24      0.179530   5 C  py               29     -0.179530   6 C  py        
     2     -0.173327   1 C  s                 7     -0.173327   2 C  s         
    22     -0.156903   5 C  s                27     -0.156903   6 C  s         

 Vector   18  Occ=1.000000D+00  E=-7.185973D-01  Symmetry=bu
              MO Center=  6.1D-16,  1.0D-15, -1.1D-31, r^2= 1.2D+01
   Bfn.  Coefficient  Atom+Function         Bfn.  Coefficient  Atom+Function  
  ----- ------------  ---------------      ----- ------------  ---------------
    36      0.298324  11 C  s                41     -0.298324  12 C  s         
    48     -0.270135  15 C  s                53      0.270135  16 C  s         
     4     -0.155566   1 C  py                9     -0.155566   2 C  py        
    12      0.154423   3 C  s                17     -0.154423   4 C  s         
    57     -0.154081  17 H  s                58      0.154081  18 H  s         

 Vector   19  Occ=1.000000D+00  E=-7.004621D-01  Symmetry=ag
              MO Center= -3.2D-16,  1.7D-15,  3.3D-16, r^2= 7.3D+00
   Bfn.  Coefficient  Atom+Function         Bfn.  Coefficient  Atom+Function  
  ----- ------------  ---------------      ----- ------------  ---------------
    23      0.206098   5 C  px               28     -0.206098   6 C  px        
    13      0.193510   3 C  px               18     -0.193510   4 C  px        
    48     -0.178353  15 C  s                53     -0.178353  16 C  s         
    36      0.176046  11 C  s                41      0.176046  12 C  s         
    22      0.167712   5 C  s                27      0.167712   6 C  s         

 Vector   20  Occ=1.000000D+00  E=-6.482774D-01  Symmetry=ag
              MO Center= -1.9D-16,  4.4D-15, -4.9D-17, r^2= 1.0D+01
   Bfn.  Coefficient  Atom+Function         Bfn.  Coefficient  Atom+Function  
  ----- ------------  ---------------      ----- ------------  ---------------
    49      0.222212  15 C  px               54     -0.222212  16 C  px        
    38      0.180843  11 C  py               43     -0.180843  12 C  py        
    57      0.181594  17 H  s                58      0.181594  18 H  s         
    36     -0.160006  11 C  s                41     -0.160006  12 C  s         
    45     -0.150901  13 H  s                46     -0.150901  14 H  s         

 Vector   21  Occ=1.000000D+00  E=-6.329042D-01  Symmetry=bu
              MO Center= -7.9D-17, -5.9D-15, -6.3D-17, r^2= 9.2D+00
   Bfn.  Coefficient  Atom+Function         Bfn.  Coefficient  Atom+Function  
  ----- ------------  ---------------      ----- ------------  ---------------
    14      0.215331   3 C  py               19      0.215331   4 C  py        
    37      0.213660  11 C  px               42      0.213660  12 C  px        
    50      0.194026  15 C  py               55      0.194026  16 C  py        
     3      0.168547   1 C  px                8      0.168547   2 C  px        
    59     -0.153677  19 H  s                60      0.153677  20 H  s         

 Vector   22  Occ=1.000000D+00  E=-6.012788D-01  Symmetry=bu
              MO Center= -3.1D-15, -1.4D-15, -8.3D-18, r^2= 7.7D+00
   Bfn.  Coefficient  Atom+Function         Bfn.  Coefficient  Atom+Function  
  ----- ------------  ---------------      ----- ------------  ---------------
    38      0.203630  11 C  py               43      0.203630  12 C  py        
    13      0.190532   3 C  px               18      0.190532   4 C  px        
    49      0.190415  15 C  px               54      0.190415  16 C  px        
    24      0.184533   5 C  py               29      0.184533   6 C  py        
     2     -0.180455   1 C  s                 7      0.180455   2 C  s         

 Vector   23  Occ=1.000000D+00  E=-5.932512D-01  Symmetry=bu
              MO Center= -2.5D-15, -1.6D-15, -6.4D-18, r^2= 7.3D+00
   Bfn.  Coefficient  Atom+Function         Bfn.  Coefficient  Atom+Function  
  ----- ------------  ---------------      ----- ------------  ---------------
    23      0.288739   5 C  px               28      0.288739   6 C  px        
    33      0.229707   9 H  s                34     -0.229707  10 H  s         
    49      0.180460  15 C  px               54      0.180460  16 C  px        
     2      0.164820   1 C  s                 7     -0.164820   2 C  s         
     4     -0.158181   1 C  py                9     -0.158181   2 C  py        

 Vector   24  Occ=1.000000D+00  E=-5.849175D-01  Symmetry=ag
              MO Center=  9.3D-16, -4.7D-15, -3.0D-17, r^2= 1.5D+01
   Bfn.  Coefficient  Atom+Function         Bfn.  Coefficient  Atom+Function  
  ----- ------------  ---------------      ----- ------------  ---------------
    50      0.343394  15 C  py               55     -0.343394  16 C  py        
    37      0.269256  11 C  px               42     -0.269256  12 C  px        
    59     -0.248478  19 H  s                60     -0.248478  20 H  s         
    45     -0.151276  13 H  s                46     -0.151276  14 H  s         

 Vector   25  Occ=1.000000D+00  E=-5.681424D-01  Symmetry=bu
              MO Center=  1.2D-15,  2.3D-16,  4.6D-17, r^2= 4.5D+00
   Bfn.  Coefficient  Atom+Function         Bfn.  Coefficient  Atom+Function  
  ----- ------------  ---------------      ----- ------------  ---------------
    13      0.334305   3 C  px               18      0.334305   4 C  px        
    31      0.251506   7 H  s                32     -0.251506   8 H  s         
    24     -0.203061   5 C  py               29     -0.203061   6 C  py        
    33      0.192304   9 H  s                34     -0.192304  10 H  s         
    23      0.190748   5 C  px               28      0.190748   6 C  px        

 Vector   26  Occ=1.000000D+00  E=-5.492919D-01  Symmetry=bu
              MO Center=  3.8D-15,  1.6D-14,  6.4D-17, r^2= 1.0D+01
   Bfn.  Coefficient  Atom+Function         Bfn.  Coefficient  Atom+Function  
  ----- ------------  ---------------      ----- ------------  ---------------
[...]

 moments of inertia (a.u.)
 ------------------
        2631.731379210404           0.000000000000           0.000000000000
           0.000000000000         390.819001468288           0.000000000000
           0.000000000000           0.000000000000        3022.550380678692

     Multipole analysis of the density
     ---------------------------------

     L   x y z        total         alpha         beta         nuclear
     -   - - -        -----         -----         ----         -------
     0   0 0 0      1.000000    -35.000000    -34.000000     70.000000

     1   1 0 0      0.000000     -0.000000      0.000000      0.000000
     1   0 1 0     -0.000000     -0.000000     -0.000000      0.000000
     1   0 0 1      0.000000      0.000000      0.000000      0.000000

     2   2 0 0    -32.088307   -138.903464   -137.980714    244.795872
     2   1 1 0     -0.672812      3.818258      1.139957     -5.631027
     2   1 0 1      0.000000      0.000000      0.000000      0.000000
     2   0 2 0     -6.463658   -767.762440   -735.664518   1496.963300
     2   0 1 1      0.000000      0.000000      0.000000      0.000000
     2   0 0 2    -42.019876    -21.786617    -20.233259      0.000000


 Parallel integral file used       8 records with       0 large values



          ----------------------------
          Mulliken population analysis
          ----------------------------

 Alpha Spin S,P,D,... shell population
 --------------------------------
    Atom          S        P
 --------------------------------------------------------------------------------------
     1 C      1.58378   1.49484
     2 C      1.58378   1.49484
     3 C      1.57880   1.44955
     4 C      1.57880   1.44955
     5 C      1.57805   1.45579
     6 C      1.57805   1.45579
     7 H      0.43571   0.00000
     8 H      0.43571   0.00000
     9 H      0.43762   0.00000
    10 H      0.43762   0.00000
    11 C      1.57515   1.41693
    12 C      1.57515   1.41693
    13 H      0.43877   0.00000
    14 H      0.43877   0.00000
    15 C      1.61193   1.59034
    16 C      1.61193   1.59034
    17 H      0.43100   0.00000
    18 H      0.43100   0.00000
    19 H      0.42175   0.00000
    20 H      0.42175   0.00000

          ----- Alpha Spin gross population on atoms ----

              1  C    6.0     3.07862
              2  C    6.0     3.07862
              3  C    6.0     3.02835
              4  C    6.0     3.02835
              5  C    6.0     3.03384
              6  C    6.0     3.03384
              7  H    1.0     0.43571
              8  H    1.0     0.43571
              9  H    1.0     0.43762
             10  H    1.0     0.43762
             11  C    6.0     2.99208
             12  C    6.0     2.99208
             13  H    1.0     0.43877
             14  H    1.0     0.43877
             15  C    6.0     3.20227
             16  C    6.0     3.20227
             17  H    1.0     0.43100
             18  H    1.0     0.43100
             19  H    1.0     0.42175
             20  H    1.0     0.42175

 Beta Spin  S,P,D,... shell population
 --------------------------------
    Atom          S        P
 --------------------------------------------------------------------------------------
     1 C      1.57022   1.29538
     2 C      1.57022   1.29538
     3 C      1.57994   1.43047
     4 C      1.57994   1.43047
     5 C      1.57849   1.42814
     6 C      1.57849   1.42814
     7 H      0.43692   0.00000
     8 H      0.43692   0.00000
     9 H      0.43920   0.00000
    10 H      0.43920   0.00000
    11 C      1.58410   1.46402
    12 C      1.58410   1.46402
    13 H      0.43669   0.00000
    14 H      0.43669   0.00000
    15 C      1.58990   1.28458
    16 C      1.58990   1.28458
    17 H      0.44539   0.00000
    18 H      0.44539   0.00000
    19 H      0.43656   0.00000
    20 H      0.43656   0.00000

          ----- Beta Spin  gross population on atoms ----

              1  C    6.0     2.86560
              2  C    6.0     2.86560
              3  C    6.0     3.01041
              4  C    6.0     3.01041
              5  C    6.0     3.00663
              6  C    6.0     3.00663
              7  H    1.0     0.43692
              8  H    1.0     0.43692
              9  H    1.0     0.43920
             10  H    1.0     0.43920
             11  C    6.0     3.04812
             12  C    6.0     3.04812
             13  H    1.0     0.43669
             14  H    1.0     0.43669
             15  C    6.0     2.87448
             16  C    6.0     2.87448
             17  H    1.0     0.44539
             18  H    1.0     0.44539
             19  H    1.0     0.43656
             20  H    1.0     0.43656

 Total      S,P,D,... shell population
 --------------------------------
    Atom          S        P
 --------------------------------------------------------------------------------------
     1 C      3.15401   2.79021
     2 C      3.15401   2.79021
     3 C      3.15874   2.88002
     4 C      3.15874   2.88002
     5 C      3.15654   2.88393
     6 C      3.15654   2.88393
     7 H      0.87264   0.00000
     8 H      0.87264   0.00000
     9 H      0.87682   0.00000
    10 H      0.87682   0.00000
    11 C      3.15925   2.88095
    12 C      3.15925   2.88095
    13 H      0.87546   0.00000
    14 H      0.87546   0.00000
    15 C      3.20183   2.87493
    16 C      3.20183   2.87493
    17 H      0.87638   0.00000
    18 H      0.87638   0.00000
    19 H      0.85830   0.00000
    20 H      0.85830   0.00000

          ----- Total      gross population on atoms ----

              1  C    6.0     5.94422
              2  C    6.0     5.94422
              3  C    6.0     6.03876
              4  C    6.0     6.03876
              5  C    6.0     6.04047
              6  C    6.0     6.04047
              7  H    1.0     0.87264
              8  H    1.0     0.87264
              9  H    1.0     0.87682
             10  H    1.0     0.87682
             11  C    6.0     6.04020
             12  C    6.0     6.04020
             13  H    1.0     0.87546
             14  H    1.0     0.87546
             15  C    6.0     6.07675
             16  C    6.0     6.07675
             17  H    1.0     0.87638
             18  H    1.0     0.87638
             19  H    1.0     0.85830
             20  H    1.0     0.85830

          ----- Atomic spin population -----

              1  C    6.0     0.21302
              2  C    6.0     0.21302
              3  C    6.0     0.01793
              4  C    6.0     0.01793
              5  C    6.0     0.02721
              6  C    6.0     0.02721
              7  H    1.0    -0.00121
              8  H    1.0    -0.00121
              9  H    1.0    -0.00158
             10  H    1.0    -0.00158
             11  C    6.0    -0.05604
             12  C    6.0    -0.05604
             13  H    1.0     0.00208
             14  H    1.0     0.00208
             15  C    6.0     0.32779
             16  C    6.0     0.32779
             17  H    1.0    -0.01439
             18  H    1.0    -0.01439
             19  H    1.0    -0.01481
             20  H    1.0    -0.01481

          ----- Bond indices -----
  1- 1   0.00000  1- 2   0.04997  1- 3   1.26324  1- 4   0.01795  1- 5   0.01920  1- 6   1.26226  1- 7   0.00417  1- 8   0.00717
  2- 1   0.04997  2- 2   0.00000  2- 3   0.01795  2- 4   1.26324  2- 5   1.26226  2- 6   0.01920  2- 7   0.00717  2- 8   0.00417
  3- 1   1.26324  3- 2   0.01795  3- 3   0.00000  3- 4   0.07130  3- 5   1.55327  3- 6   0.00906  3- 7   0.95236  3- 8   0.00018
  4- 1   0.01795  4- 2   1.26324  4- 3   0.07130  4- 4   0.00000  4- 5   0.00906  4- 6   1.55327  4- 7   0.00018  4- 8   0.95236
  5- 1   0.01920  5- 2   1.26226  5- 3   1.55327  5- 4   0.00906  5- 5   0.00000  5- 6   0.07238  5- 7   0.00296  5- 8   0.00702
  6- 1   1.26226  6- 2   0.01920  6- 3   0.00906  6- 4   1.55327  6- 5   0.07238  6- 6   0.00000  6- 7   0.00702  6- 8   0.00296
  7- 1   0.00417  7- 2   0.00717  7- 3   0.95236  7- 4   0.00018  7- 5   0.00296  7- 6   0.00702  7- 7   0.00000  7- 8   0.00008
  8- 1   0.00717  8- 2   0.00417  8- 3   0.00018  8- 4   0.95236  8- 5   0.00702  8- 6   0.00296  8- 7   0.00008  8- 8   0.00000
  9- 1   0.00716  9- 2   0.00413  9- 3   0.00288  9- 4   0.00709  9- 5   0.95163  9- 6   0.00017  9- 7   0.00313  9- 8   0.00119
 10- 1   0.00413 10- 2   0.00716 10- 3   0.00709 10- 4   0.00288 10- 5   0.00017 10- 6   0.95163 10- 7   0.00119 10- 8   0.00313
 11- 1   0.01648 11- 2   1.16859 11- 3   0.02459 11- 4   0.00964 11- 5   0.00923 11- 6   0.02276 11- 7   0.00090 11- 8   0.00280
 12- 1   1.16859 12- 2   0.01648 12- 3   0.00964 12- 4   0.02459 12- 5   0.02276 12- 6   0.00923 12- 7   0.00280 12- 8   0.00090
 13- 1   0.00003 13- 2   0.00540 13- 3   0.00077 13- 4   0.00198 13- 5   0.00588 13- 6   0.00007 13- 7   0.00027 13- 8   0.00128
 14- 1   0.00540 14- 2   0.00003 14- 3   0.00198 14- 4   0.00077 14- 5   0.00007 14- 6   0.00588 14- 7   0.00128 14- 8   0.00027
 15- 1   0.02148 15- 2   0.05865 15- 3   0.01637 15- 4   0.02377 15- 5   0.02068 15- 6   0.01952 15- 7   0.00002 15- 8   0.00010
 16- 1   0.05865 16- 2   0.02148 16- 3   0.02377 16- 4   0.01637 16- 5   0.01952 16- 6   0.02068 16- 7   0.00010 16- 8   0.00002
 17- 1   0.00000 17- 2   0.00460 17- 3   0.00012 17- 4   0.00012 17- 5   0.00034 17- 6   0.00002 17- 7   0.00002 17- 8   0.00002
 18- 1   0.00460 18- 2   0.00000 18- 3   0.00012 18- 4   0.00012 18- 5   0.00002 18- 6   0.00034 18- 7   0.00002 18- 8   0.00002
 19- 1   0.00003 19- 2   0.01072 19- 3   0.00001 19- 4   0.00074 19- 5   0.00036 19- 6   0.00024 19- 7   0.00002 19- 8   0.00007
 20- 1   0.01072 20- 2   0.00003 20- 3   0.00074 20- 4   0.00001 20- 5   0.00024 20- 6   0.00036 20- 7   0.00007 20- 8   0.00002
  1- 9   0.00716  1-10   0.00413  1-11   0.01648  1-12   1.16859  1-13   0.00003  1-14   0.00540  1-15   0.02148  1-16   0.05865
  2- 9   0.00413  2-10   0.00716  2-11   1.16859  2-12   0.01648  2-13   0.00540  2-14   0.00003  2-15   0.05865  2-16   0.02148
  3- 9   0.00288  3-10   0.00709  3-11   0.02459  3-12   0.00964  3-13   0.00077  3-14   0.00198  3-15   0.01637  3-16   0.02377
  4- 9   0.00709  4-10   0.00288  4-11   0.00964  4-12   0.02459  4-13   0.00198  4-14   0.00077  4-15   0.02377  4-16   0.01637
  5- 9   0.95163  5-10   0.00017  5-11   0.00923  5-12   0.02276  5-13   0.00588  5-14   0.00007  5-15   0.02068  5-16   0.01952
  6- 9   0.00017  6-10   0.95163  6-11   0.02276  6-12   0.00923  6-13   0.00007  6-14   0.00588  6-15   0.01952  6-16   0.02068
  7- 9   0.00313  7-10   0.00119  7-11   0.00090  7-12   0.00280  7-13   0.00027  7-14   0.00128  7-15   0.00002  7-16   0.00010
  8- 9   0.00119  8-10   0.00313  8-11   0.00280  8-12   0.00090  8-13   0.00128  8-14   0.00027  8-15   0.00010  8-16   0.00002
  9- 9   0.00000  9-10   0.00008  9-11   0.00308  9-12   0.00085  9-13   0.00011  9-14   0.00004  9-15   0.00043  9-16   0.00015
 10- 9   0.00008 10-10   0.00000 10-11   0.00085 10-12   0.00308 10-13   0.00004 10-14   0.00011 10-15   0.00015 10-16   0.00043
 11- 9   0.00308 11-10   0.00085 11-11   0.00000 11-12   0.01397 11-13   0.95004 11-14   0.00000 11-15   1.70492 11-16   0.02004
 12- 9   0.00085 12-10   0.00308 12-11   0.01397 12-12   0.00000 12-13   0.00000 12-14   0.95004 12-15   0.02004 12-16   1.70492
 13- 9   0.00011 13-10   0.00004 13-11   0.95004 13-12   0.00000 13-13   0.00000 13-14   0.00000 13-15   0.00235 13-16   0.00000
 14- 9   0.00004 14-10   0.00011 14-11   0.00000 14-12   0.95004 14-13   0.00000 14-14   0.00000 14-15   0.00000 14-16   0.00235
 15- 9   0.00043 15-10   0.00015 15-11   1.70492 15-12   0.02004 15-13   0.00235 15-14   0.00000 15-15   0.00000 15-16   0.02684
 16- 9   0.00015 16-10   0.00043 16-11   0.02004 16-12   1.70492 16-13   0.00000 16-14   0.00235 16-15   0.02684 16-16   0.00000
 17- 9   0.00250 17-10   0.00001 17-11   0.00368 17-12   0.00000 17-13   0.01172 17-14   0.00000 17-15   0.95731 17-16   0.00000
 18- 9   0.00001 18-10   0.00250 18-11   0.00000 18-12   0.00368 18-13   0.00000 18-14   0.01172 18-15   0.00000 18-16   0.95731
 19- 9   0.00013 19-10   0.00007 19-11   0.00280 19-12   0.00000 19-13   0.00454 19-14   0.00000 19-15   0.95593 19-16   0.00000
 20- 9   0.00007 20-10   0.00013 20-11   0.00000 20-12   0.00280 20-13   0.00000 20-14   0.00454 20-15   0.00000 20-16   0.95593
  1-17   0.00000  1-18   0.00460  1-19   0.00003  1-20   0.01072
  2-17   0.00460  2-18   0.00000  2-19   0.01072  2-20   0.00003
  3-17   0.00012  3-18   0.00012  3-19   0.00001  3-20   0.00074
  4-17   0.00012  4-18   0.00012  4-19   0.00074  4-20   0.00001
  5-17   0.00034  5-18   0.00002  5-19   0.00036  5-20   0.00024
  6-17   0.00002  6-18   0.00034  6-19   0.00024  6-20   0.00036
  7-17   0.00002  7-18   0.00002  7-19   0.00002  7-20   0.00007
  8-17   0.00002  8-18   0.00002  8-19   0.00007  8-20   0.00002
  9-17   0.00250  9-18   0.00001  9-19   0.00013  9-20   0.00007
 10-17   0.00001 10-18   0.00250 10-19   0.00007 10-20   0.00013
 11-17   0.00368 11-18   0.00000 11-19   0.00280 11-20   0.00000
 12-17   0.00000 12-18   0.00368 12-19   0.00000 12-20   0.00280
 13-17   0.01172 13-18   0.00000 13-19   0.00454 13-20   0.00000
 14-17   0.00000 14-18   0.01172 14-19   0.00000 14-20   0.00454
 15-17   0.95731 15-18   0.00000 15-19   0.95593 15-20   0.00000
 16-17   0.00000 16-18   0.95731 16-19   0.00000 16-20   0.95593
 17-17   0.00000 17-18   0.00000 17-19   0.00404 17-20   0.00000
 18-17   0.00000 18-18   0.00000 18-19   0.00000 18-20   0.00404
 19-17   0.00404 19-18   0.00000 19-19   0.00000 19-20   0.00000
 20-17   0.00000 20-18   0.00404 20-19   0.00000 20-20   0.00000

 Large bond indices
 ------------------
  1   C -  3   C    1.26324
  1   C -  6   C    1.26226
  1   C - 12   C    1.16859
  2   C -  4   C    1.26324
  2   C -  5   C    1.26226
  2   C - 11   C    1.16859
  3   C -  5   C    1.55327
  3   C -  7   H    0.95236
  4   C -  6   C    1.55327
  4   C -  8   H    0.95236
  5   C -  9   H    0.95163
  6   C - 10   H    0.95163
 11   C - 13   H    0.95004
 11   C - 15   C    1.70492
 12   C - 14   H    0.95004
 12   C - 16   C    1.70492
 15   C - 17   H    0.95731
 15   C - 19   H    0.95593
 16   C - 18   H    0.95731
 16   C - 20   H    0.95593

                                                                Free electrons             Valency
                              Number of         Sum of          + Bond indices         - Bond indices    
                Valency     Free electrons    Bond indices     =Mulliken charge     = Net spin population
     1  C       3.95709        2.02298          3.92124           5.94422                 0.03585
     2  C       3.95709        2.02298          3.92124           5.94422                 0.03585
     3  C       3.95608        2.08332          3.95544           6.03876                 0.00064
     4  C       3.95608        2.08332          3.95544           6.03876                 0.00064
     5  C       3.95814        2.08341          3.95706           6.04047                 0.00108
     6  C       3.95814        2.08341          3.95706           6.04047                 0.00108
     7  H       0.98378       -0.11114          0.98378           0.87264                 0.00000
     8  H       0.98378       -0.11114          0.98378           0.87264                 0.00000
     9  H       0.98483       -0.10801          0.98482           0.87682                 0.00000
    10  H       0.98483       -0.10801          0.98482           0.87682                 0.00000
    11  C       3.95561        2.08582          3.95438           6.04020                 0.00122
    12  C       3.95561        2.08582          3.95438           6.04020                 0.00122
    13  H       0.98449       -0.10902          0.98449           0.87546                 0.00000
    14  H       0.98449       -0.10902          0.98449           0.87546                 0.00000
    15  C       3.91092        2.24818          3.82858           6.07675                 0.08235
    16  C       3.91092        2.24818          3.82858           6.07675                 0.08235
    17  H       0.98472       -0.10813          0.98451           0.87638                 0.00021
    18  H       0.98472       -0.10813          0.98451           0.87638                 0.00021
    19  H       0.97992       -0.12140          0.97970           0.85830                 0.00022
    20  H       0.97992       -0.12140          0.97970           0.85830                 0.00022

 Task  times  cpu:      102.4s     wall:      103.0s
 Summary of allocated global arrays
-----------------------------------
  No active global arrays



                         GA Statistics for process    0
                         ------------------------------

       create   destroy   get      put      acc     scatter   gather  read&inc
calls: 1431     1431     5.97e+05 1.03e+04 4.63e+05  840        0     2.32e+04 
number of processes/call 1.00e+00 1.00e+00 1.00e+00 1.00e+00 0.00e+00
bytes total:             8.30e+07 1.80e+07 4.86e+07 6.18e+04 0.00e+00 1.85e+05
bytes remote:            0.00e+00 0.00e+00 0.00e+00 0.00e+00 0.00e+00 0.00e+00
Max memory consumed for GA by this process: 1872000 bytes
MA_summarize_allocated_blocks: starting scan ...
MA_summarize_allocated_blocks: scan completed: 0 heap blocks, 0 stack blocks
MA usage statistics:

	allocation statistics:
					      heap	     stack
					      ----	     -----
	current number of blocks	         0	         0
	maximum number of blocks	        24	        54
	current total bytes		         0	         0
	maximum total bytes		  61308904	  22521112
	maximum total K-bytes		     61309	     22522
	maximum total M-bytes		        62	        23


                                NWChem Input Module
                                -------------------





                                     CITATION
                                     --------
                Please cite the following reference when publishing
                           results obtained with NWChem:

                 M. Valiev, E.J. Bylaska, N. Govind, K. Kowalski,
              T.P. Straatsma, H.J.J. van Dam, D. Wang, J. Nieplocha,
                        E. Apra, T.L. Windus, W.A. de Jong
                 "NWChem: a comprehensive and scalable open-source
                  solution for large scale molecular simulations"
                      Comput. Phys. Commun. 181, 1477 (2010)
                           doi:10.1016/j.cpc.2010.04.018

                                      AUTHORS
                                      -------
          E. Apra, E. J. Bylaska, W. A. de Jong, N. Govind, K. Kowalski,
       T. P. Straatsma, M. Valiev, H. J. J. van Dam, D. Wang, T. L. Windus,
        J. Hammond, J. Autschbach, K. Bhaskaran-Nair, J. Brabec, K. Lopata,
        S. Krishnamoorthy, W. Ma, M. Klemm, O. Villa, Y. Chen, V. Anisimov,
    F. Aquino, S. Hirata, M. T. Hackler, T. Risthaus, M. Malagoli, A. Marenich,
   A. Otero-de-la-Roza, J. Mullin, P. Nichols, R. Peverati, J. Pittner, Y. Zhao,
         P.-D. Fan, A. Fonari, R. J. Harrison, M. Dupuis, D. Silverstein,
    D. M. A. Smith, J. Nieplocha, V. Tipparaju, M. Krishnan, B. E. Van Kuiken,
        A. Vazquez-Mayagoitia, L. Jensen, M. Swart, Q. Wu, T. Van Voorhis,
     A. A. Auer, M. Nooijen, L. D. Crosby, E. Brown, G. Cisneros, G. I. Fann,
   H. Fruchtl, J. Garza, K. Hirao, R. A. Kendall, J. A. Nichols, K. Tsemekhman,
    K. Wolinski, J. Anchell, D. E. Bernholdt, P. Borowski, T. Clark, D. Clerc,
   H. Dachsel, M. J. O. Deegan, K. Dyall, D. Elwood, E. Glendening, M. Gutowski,
   A. C. Hess, J. Jaffe, B. G. Johnson, J. Ju, R. Kobayashi, R. Kutteh, Z. Lin,
   R. Littlefield, X. Long, B. Meng, T. Nakajima, S. Niu, L. Pollack, M. Rosing,
   K. Glaesemann, G. Sandrone, M. Stave, H. Taylor, G. Thomas, J. H. van Lenthe,
                               A. T. Wong, Z. Zhang.

 Total times  cpu:      102.6s     wall:      105.2s
