 argument  1 = dvb_bomd_ks.in
                                         
                                         


             Northwest Computational Chemistry Package (NWChem) 7.0.2
             --------------------------------------------------------


                    Environmental Molecular Sciences Laboratory
                       Pacific Northwest National Laboratory
                                Richland, WA 99352

                              Copyright (c) 1994-2020
                       Pacific Northwest National Laboratory
                            Battelle Memorial Institute

             NWChem is an open-source computational chemistry package
                        distributed under the terms of the
                      Educational Community License (ECL) 2.0
             A copy of the license is included with this distribution
                              in the LICENSE.TXT file

                                  ACKNOWLEDGMENT
                                  --------------

            This software and its documentation were developed at the
            EMSL at Pacific Northwest National Laboratory, a multiprogram
            national laboratory, operated for the U.S. Department of Energy
            by Battelle under Contract Number DE-AC05-76RL01830. Support
            for this work was provided by the Department of Energy Office
            of Biological and Environmental Research, Office of Basic
            Energy Sciences, and the Office of Advanced Scientific Computing.


           Job information
           ---------------

    hostname        = osmium
    program         = nwchem
    date            = Sat Jun  4 13:47:48 2022

    compiled        = Fri_Jul_02_16:33:00_2021
    source          = /tmp/eric/spack-stage/spack-stage-nwchem-7.0.2-ooqysy46k2ki4umav4357wohumino4rf/spack-src
    nwchem branch   = 7.0.2
    nwchem revision = b9985dfa
    ga revision     = 5.7.2
    use scalapack   = T
    input           = dvb_bomd_ks.in
    prefix          = dvb.
    data base       = ./dvb.db
    status          = startup
    nproc           =        1
    time left       =     -1s



           Memory information
           ------------------

    heap     =  134217726 doubles =   1024.0 Mbytes
    stack    =  134217723 doubles =   1024.0 Mbytes
    global   =  268435456 doubles =   2048.0 Mbytes (distinct from heap & stack)
    total    =  536870905 doubles =   4096.0 Mbytes
    verify   = yes
    hardfail = no 


           Directory information
           ---------------------

  0 permanent = .
  0 scratch   = .




                                NWChem Input Module
                                -------------------


                        Divinylbenzene in STO-3G basis set
                        ----------------------------------

 Scaling coordinates for geometry "geometry" by  1.889725989
 (inverse scale =  0.529177249)



                             Geometry "geometry" -> ""
                             -------------------------

 Output coordinates in angstroms (scale by  1.889725989 to convert to a.u.)

  No.       Tag          Charge          X              Y              Z
 ---- ---------------- ---------- -------------- -------------- --------------
    1 C                    6.0000     0.27867948    -1.36683162     0.00000000
    2 C                    6.0000     1.32303041    -0.44173575     0.00000000
    3 C                    6.0000     1.04434506     0.92484978     0.00000000
    4 C                    6.0000    -0.27867948     1.36683162     0.00000000
    5 C                    6.0000    -1.32303041     0.44173575     0.00000000
    6 C                    6.0000    -1.04434506    -0.92484978     0.00000000
    7 H                    1.0000     2.36595443    -0.79037726     0.00000000
    8 H                    1.0000     1.86746094     1.65407997     0.00000000
    9 H                    1.0000    -2.36595443     0.79037726     0.00000000
   10 H                    1.0000    -1.86746094    -1.65407997     0.00000000
   11 C                    6.0000    -0.58659169     2.87589931     0.00000000
   12 C                    6.0000     0.36350188     3.80076420     0.00000000
   13 H                    1.0000    -1.65647768     3.12394312     0.00000000
   14 H                    1.0000     0.14429560     4.87693235     0.00000000
   15 H                    1.0000     1.43338788     3.55272039     0.00000000
   16 C                    6.0000     0.58659169    -2.87589931     0.00000000
   17 C                    6.0000    -0.36350188    -3.80076420     0.00000000
   18 H                    1.0000     1.65647768    -3.12394312     0.00000000
   19 H                    1.0000    -0.14429560    -4.87693235     0.00000000
   20 H                    1.0000    -1.43338788    -3.55272039     0.00000000

      Atomic Mass 
      ----------- 

      C                 12.000000
      H                  1.007825


 Effective nuclear repulsion energy (a.u.)     450.0061706802

            Nuclear Dipole moment (a.u.) 
            ----------------------------
        X                 Y               Z
 ---------------- ---------------- ----------------
    -0.0000000000     0.0000000000     0.0000000000


            XYZ format geometry
            -------------------
    20
 geometry
 C                     0.27867948    -1.36683162     0.00000000
 C                     1.32303041    -0.44173575     0.00000000
 C                     1.04434506     0.92484978     0.00000000
 C                    -0.27867948     1.36683162     0.00000000
 C                    -1.32303041     0.44173575     0.00000000
 C                    -1.04434506    -0.92484978     0.00000000
 H                     2.36595443    -0.79037726     0.00000000
 H                     1.86746094     1.65407997     0.00000000
 H                    -2.36595443     0.79037726     0.00000000
 H                    -1.86746094    -1.65407997     0.00000000
 C                    -0.58659169     2.87589931     0.00000000
 C                     0.36350188     3.80076420     0.00000000
 H                    -1.65647768     3.12394312     0.00000000
 H                     0.14429560     4.87693235     0.00000000
 H                     1.43338788     3.55272039     0.00000000
 C                     0.58659169    -2.87589931     0.00000000
 C                    -0.36350188    -3.80076420     0.00000000
 H                     1.65647768    -3.12394312     0.00000000
 H                    -0.14429560    -4.87693235     0.00000000
 H                    -1.43338788    -3.55272039     0.00000000

 ==============================================================================
                                internuclear distances
 ------------------------------------------------------------------------------
       center one      |      center two      | atomic units |  angstroms
 ------------------------------------------------------------------------------
    2 C                |   1 C                |     2.63647  |     1.39516
    3 C                |   2 C                |     2.63562  |     1.39471
    4 C                |   3 C                |     2.63598  |     1.39490
    5 C                |   4 C                |     2.63647  |     1.39516
    6 C                |   1 C                |     2.63598  |     1.39490
    6 C                |   5 C                |     2.63562  |     1.39471
    7 H                |   2 C                |     2.07805  |     1.09966
    8 H                |   3 C                |     2.07809  |     1.09968
    9 H                |   5 C                |     2.07805  |     1.09966
   10 H                |   6 C                |     2.07809  |     1.09968
   11 C                |   4 C                |     2.91048  |     1.54016
   12 C                |  11 C                |     2.50562  |     1.32592
   13 H                |  11 C                |     2.07542  |     1.09826
   14 H                |  12 C                |     2.07542  |     1.09827
   15 H                |  12 C                |     2.07542  |     1.09826
   16 C                |   1 C                |     2.91048  |     1.54016
   17 C                |  16 C                |     2.50562  |     1.32592
   18 H                |  16 C                |     2.07542  |     1.09826
   19 H                |  17 C                |     2.07542  |     1.09827
   20 H                |  17 C                |     2.07542  |     1.09826
 ------------------------------------------------------------------------------
                         number of included internuclear distances:         20
 ==============================================================================



 ==============================================================================
                                 internuclear angles
 ------------------------------------------------------------------------------
        center 1       |       center 2       |       center 3       |  degrees
 ------------------------------------------------------------------------------
    2 C                |   1 C                |   6 C                |   119.99
    2 C                |   1 C                |  16 C                |   120.00
    6 C                |   1 C                |  16 C                |   120.01
    1 C                |   2 C                |   3 C                |   120.01
    1 C                |   2 C                |   7 H                |   119.98
    3 C                |   2 C                |   7 H                |   120.01
    2 C                |   3 C                |   4 C                |   120.00
    2 C                |   3 C                |   8 H                |   120.01
    4 C                |   3 C                |   8 H                |   119.99
    3 C                |   4 C                |   5 C                |   119.99
    3 C                |   4 C                |  11 C                |   120.01
    5 C                |   4 C                |  11 C                |   120.00
    4 C                |   5 C                |   6 C                |   120.01
    4 C                |   5 C                |   9 H                |   119.98
    6 C                |   5 C                |   9 H                |   120.01
    1 C                |   6 C                |   5 C                |   120.00
    1 C                |   6 C                |  10 H                |   119.99
    5 C                |   6 C                |  10 H                |   120.01
    4 C                |  11 C                |  12 C                |   122.70
    4 C                |  11 C                |  13 H                |   114.59
   12 C                |  11 C                |  13 H                |   122.72
   11 C                |  12 C                |  14 H                |   122.72
   11 C                |  12 C                |  15 H                |   122.72
   14 H                |  12 C                |  15 H                |   114.57
    1 C                |  16 C                |  17 C                |   122.70
    1 C                |  16 C                |  18 H                |   114.59
   17 C                |  16 C                |  18 H                |   122.72
   16 C                |  17 C                |  19 H                |   122.72
   16 C                |  17 C                |  20 H                |   122.72
   19 H                |  17 C                |  20 H                |   114.57
 ------------------------------------------------------------------------------
                            number of included internuclear angles:         30
 ==============================================================================



  library name resolved from: environment
  library file name is: </home/eric/data/spack/opt/spack/linux-archrolling-zen/gcc-11.1.0/nwchem-7.0.2-ooqysy46k2ki4umav4357wohumino4rf/share/nwchem/libraries/>
  


 Summary of "ao basis" -> "" (cartesian)
 ------------------------------------------------------------------------------
       Tag                 Description            Shells   Functions and Types
 ---------------- ------------------------------  ------  ---------------------
 *                           sto-3g                   on all atoms 




                                 NWChem QMD Module
                                 -----------------




                                QMD Run Parameters
                                ------------------


    No. of nuclear steps:                  35
       Nuclear time step:               25.00
        Target temp. (K):              298.00
              Thermostat:                none
             Random seed:                -123
      Nuclear integrator:     velocity-verlet
 no velocities found in input
       Current temp. (K):              378.11

                                 NWChem DFT Module
                                 -----------------


                        Divinylbenzene in STO-3G basis set


                      Basis "ao basis" -> "ao basis" (cartesian)
                      -----
  C (Carbon)
  ----------
            Exponent  Coefficients 
       -------------- ---------------------------------------------------------
  1 S  7.16168370E+01  0.154329
  1 S  1.30450960E+01  0.535328
  1 S  3.53051220E+00  0.444635

  2 S  2.94124940E+00 -0.099967
  2 S  6.83483100E-01  0.399513
  2 S  2.22289900E-01  0.700115

  3 P  2.94124940E+00  0.155916
  3 P  6.83483100E-01  0.607684
  3 P  2.22289900E-01  0.391957

  H (Hydrogen)
  ------------
            Exponent  Coefficients 
       -------------- ---------------------------------------------------------
  1 S  3.42525091E+00  0.154329
  1 S  6.23913730E-01  0.535328
  1 S  1.68855400E-01  0.444635



 Summary of "ao basis" -> "ao basis" (cartesian)
 ------------------------------------------------------------------------------
       Tag                 Description            Shells   Functions and Types
 ---------------- ------------------------------  ------  ---------------------
 C                           sto-3g                  3        5   2s1p
 H                           sto-3g                  1        1   1s



  Caching 1-el integrals 
   Time after variat. SCF:      0.3
   Time prior to 1st pass:      0.3
  Resetting Diis


         Total DFT energy =     -382.300234057255
      One electron energy =    -1408.669142371894
           Coulomb energy =      634.252424911240
    Exchange-Corr. energy =      -57.889687276837
 Nuclear repulsion energy =      450.006170680236

 Numeric. integr. density =       70.000005883387

     Total iterative time =     12.0s




                         DFT ENERGY GRADIENTS

    atom               coordinates                        gradient
                 x          y          z           x          y          z
   1 C       0.526628  -2.582937   0.000000   -0.008591   0.050680   0.000000
   2 C       2.500165  -0.834760   0.000000   -0.019248  -0.006173  -0.000000
   3 C       1.973526   1.747713   0.000000   -0.019904   0.001498   0.000000
   4 C      -0.526628   2.582937   0.000000    0.008591  -0.050680  -0.000000
   5 C      -2.500165   0.834760   0.000000    0.019248   0.006173   0.000000
   6 C      -1.973526  -1.747713   0.000000    0.019904  -0.001498  -0.000000
   7 H       4.471006  -1.493596   0.000000    0.001347   0.000197   0.000000
   8 H       3.528989   3.125758   0.000000    0.001489   0.003437   0.000000
   9 H      -4.471006   1.493596   0.000000   -0.001347  -0.000197   0.000000
  10 H      -3.528989  -3.125758   0.000000   -0.001489  -0.003437   0.000000
  11 C      -1.108498   5.434662   0.000000    0.004656   0.039239   0.000000
  12 C       0.686919   7.182403   0.000000   -0.013087  -0.023339  -0.000000
  13 H      -3.130289   5.903397   0.000000    0.000323  -0.002973   0.000000
  14 H       0.272679   9.216066   0.000000    0.001999   0.001526  -0.000000
  15 H       2.708710   6.713668   0.000000    0.002856  -0.000189   0.000000
  16 C       1.108498  -5.434662   0.000000   -0.004656  -0.039239   0.000000
  17 C      -0.686919  -7.182403   0.000000    0.013087   0.023339  -0.000000
  18 H       3.130289  -5.903397   0.000000   -0.000323   0.002973  -0.000000
  19 H      -0.272679  -9.216066   0.000000   -0.001999  -0.001526   0.000000
  20 H      -2.708710  -6.713668   0.000000   -0.002856   0.000189  -0.000000


                                 NWChem DFT Module
                                 -----------------


                        Divinylbenzene in STO-3G basis set



  Caching 1-el integrals 
   Time after variat. SCF:     15.2
   Time prior to 1st pass:     15.2


         Total DFT energy =     -382.299603286719
      One electron energy =    -1408.442517198386
           Coulomb energy =      634.139749547366
    Exchange-Corr. energy =      -57.884578784160
 Nuclear repulsion energy =      449.887743148460

 Numeric. integr. density =       70.000005695039

     Total iterative time =      8.0s




                         DFT ENERGY GRADIENTS

    atom               coordinates                        gradient
                 x          y          z           x          y          z
   1 C       0.530426  -2.587089   0.004148   -0.006405   0.046915   0.000156
   2 C       2.501603  -0.835636   0.010231   -0.017258  -0.009968   0.002023
   3 C       1.970684   1.754350  -0.005098   -0.027287   0.005003  -0.002322
   4 C      -0.522419   2.584359   0.002514    0.013461  -0.050225   0.000698
   5 C      -2.501873   0.840316  -0.006637    0.013438   0.012676  -0.000695
   6 C      -1.973464  -1.749136  -0.006911    0.015421  -0.008648  -0.000271
   7 H       4.474441  -1.480015  -0.011826    0.000503   0.001140  -0.000892
   8 H       3.541732   3.128122   0.020130    0.004778   0.005323   0.000913
   9 H      -4.462797   1.498837   0.002404    0.002378  -0.001399   0.000375
  10 H      -3.517233  -3.121055  -0.013970    0.002759  -0.000024   0.000006
  11 C      -1.111440   5.425948   0.006438    0.020549   0.027012  -0.000371
  12 C       0.692058   7.176984  -0.005230    0.008290  -0.038937  -0.000681
  13 H      -3.186048   5.910779   0.024552   -0.020658   0.002117   0.000344
  14 H       0.289279   9.251196   0.006780    0.000600   0.016551   0.000281
  15 H       2.680375   6.723674  -0.011660   -0.012603   0.004527   0.000332
  16 C       1.107869  -5.429154  -0.003755    0.002805  -0.031584   0.001510
  17 C      -0.689878  -7.190350   0.006002    0.007023   0.008028  -0.000446
  18 H       3.119386  -5.894885  -0.060279   -0.004567   0.004087  -0.000871
  19 H      -0.283105  -9.205068  -0.010714   -0.003693   0.006614   0.000239
  20 H      -2.698477  -6.699547   0.034316    0.000465   0.000793  -0.000329



            QMD Run Information
            -------------------
  Time elapsed (fs) :                     0.604721
  Kin. energy (a.u.):        1            0.031752
  Pot. energy (a.u.):        1         -382.299603
  Tot. energy (a.u.):        1         -382.267851
  Target temp. (K)  :        1              298.00
  Current temp. (K) :        1              371.35
  Dipole (a.u.)     :        1   1.202648E-03  -2.263902E-04  -1.028971E-03



                                 NWChem DFT Module
                                 -----------------


                        Divinylbenzene in STO-3G basis set



  Caching 1-el integrals 
   Time after variat. SCF:     26.1
   Time prior to 1st pass:     26.1


         Total DFT energy =     -382.296793668322
      One electron energy =    -1408.168998064960
           Coulomb energy =      634.002661347266
    Exchange-Corr. energy =      -57.879442098149
 Nuclear repulsion energy =      449.748985147520

 Numeric. integr. density =       70.000007291420

     Total iterative time =      8.0s




                         DFT ENERGY GRADIENTS

    atom               coordinates                        gradient
                 x          y          z           x          y          z
   1 C       0.534406  -2.592582   0.008291   -0.004108   0.041760   0.000299
   2 C       2.503533  -0.836228   0.020404   -0.014758  -0.013071   0.004028
   3 C       1.968621   1.760844  -0.010129   -0.033163   0.008716  -0.004668
   4 C      -0.518594   2.587215   0.005007    0.017959  -0.048414   0.001370
   5 C      -2.503965   0.845509  -0.013254    0.007469   0.018314  -0.001353
   6 C      -1.973842  -1.750312  -0.013814    0.010472  -0.015215  -0.000601
   7 H       4.477704  -1.466821  -0.023348   -0.000439   0.002043  -0.001742
   8 H       3.552850   3.128675   0.039948    0.007216   0.006455   0.001856
   9 H      -4.455397   1.504554   0.004680    0.005951  -0.002493   0.000716
  10 H      -3.506415  -3.116344  -0.027942    0.006978   0.003372   0.000050
  11 C      -1.114969   5.416463   0.012887    0.030644   0.014705  -0.000910
  12 C       0.696960   7.172677  -0.010441    0.028678  -0.049842  -0.001605
  13 H      -3.234779   5.917442   0.048987   -0.036401   0.006160   0.000914
  14 H       0.305675   9.280696   0.013464   -0.000049   0.027905   0.000662
  15 H       2.656327   6.732140  -0.023433   -0.027209   0.008844   0.000748
  16 C       1.107160  -5.422743  -0.007553    0.008941  -0.022649   0.002870
  17 C      -0.693038  -7.198527   0.012017    0.000811  -0.006983  -0.000901
  18 H       3.110037  -5.887763  -0.120261   -0.007426   0.004779  -0.001593
  19 H      -0.292274  -9.196321  -0.021510   -0.005179   0.014145   0.000594
  20 H      -2.688401  -6.685695   0.068744    0.003614   0.001466  -0.000737



            QMD Run Information
            -------------------
  Time elapsed (fs) :                     1.209442
  Kin. energy (a.u.):        2            0.029058
  Pot. energy (a.u.):        2         -382.296794
  Tot. energy (a.u.):        2         -382.267735
  Target temp. (K)  :        2              298.00
  Current temp. (K) :        2              339.85
  Dipole (a.u.)     :        2   2.891432E-03  -1.071556E-03  -2.201629E-03



                                 NWChem DFT Module
                                 -----------------


                        Divinylbenzene in STO-3G basis set



  Caching 1-el integrals 
   Time after variat. SCF:     36.9
   Time prior to 1st pass:     36.9


         Total DFT energy =     -382.293568835403
      One electron energy =    -1407.846130119755
           Coulomb energy =      633.841937315184
    Exchange-Corr. energy =      -57.873778482936
 Nuclear repulsion energy =      449.584402452103

 Numeric. integr. density =       70.000009836422

     Total iterative time =      8.0s




                         DFT ENERGY GRADIENTS

    atom               coordinates                        gradient
                 x          y          z           x          y          z
   1 C       0.538504  -2.599268   0.012426   -0.001745   0.035304   0.000435
   2 C       2.505886  -0.836446   0.030462   -0.012007  -0.015356   0.005990
   3 C       1.967506   1.767089  -0.015027   -0.037024   0.012662  -0.006967
   4 C      -0.515283   2.591455   0.007462    0.021805  -0.045325   0.002021
   5 C      -2.506270   0.850180  -0.019832    0.002094   0.022691  -0.001985
   6 C      -1.974520  -1.751054  -0.020700    0.005842  -0.020413  -0.000983
   7 H       4.481118  -1.454322  -0.034278   -0.001307   0.002847  -0.002541
   8 H       3.561512   3.127033   0.059136    0.008530   0.006660   0.002769
   9 H      -4.450023   1.511118   0.006712    0.008723  -0.003245   0.001030
  10 H      -3.497971  -3.112781  -0.041931    0.010441   0.006107   0.000125
  11 C      -1.119374   5.406558   0.019361    0.034773   0.002746  -0.001462
  12 C       0.701042   7.169794  -0.015605    0.044295  -0.054763  -0.002660
  13 H      -3.271126   5.922008   0.073110   -0.046527   0.009029   0.001564
  14 H       0.322088   9.300703   0.019923    0.000071   0.034883   0.001066
  15 H       2.641535   6.737598  -0.035460   -0.037396   0.011980   0.001208
  16 C       1.106195  -5.415685  -0.011432    0.012856  -0.012743   0.004214
  17 C      -0.696222  -7.206504   0.018058   -0.005040  -0.019808  -0.001336
  18 H       3.103214  -5.882268  -0.179702   -0.008357   0.004935  -0.002309
  19 H      -0.299682  -9.192385  -0.032508   -0.006166   0.019513   0.001005
  20 H      -2.679555  -6.672342   0.103423    0.006138   0.002294  -0.001185



            QMD Run Information
            -------------------
  Time elapsed (fs) :                     1.814163
  Kin. energy (a.u.):        3            0.025947
  Pot. energy (a.u.):        3         -382.293569
  Tot. energy (a.u.):        3         -382.267622
  Target temp. (K)  :        3              298.00
  Current temp. (K) :        3              303.46
  Dipole (a.u.)     :        3   4.354939E-03  -1.226533E-03  -3.463879E-03



                                 NWChem DFT Module
                                 -----------------


                        Divinylbenzene in STO-3G basis set



  Caching 1-el integrals 
   Time after variat. SCF:     47.8
   Time prior to 1st pass:     47.8


         Total DFT energy =     -382.291676982586
      One electron energy =    -1407.469796377808
           Coulomb energy =      633.656576271552
    Exchange-Corr. energy =      -57.867067341354
 Nuclear repulsion energy =      449.388610465025

 Numeric. integr. density =       70.000012528362

     Total iterative time =      8.0s




                         DFT ENERGY GRADIENTS

    atom               coordinates                        gradient
                 x          y          z           x          y          z
   1 C       0.542652  -2.606962   0.016548    0.000633   0.027688   0.000571
   2 C       2.508581  -0.836225   0.040348   -0.009260  -0.016746   0.007892
   3 C       1.967449   1.772972  -0.019726   -0.038574   0.016793  -0.009148
   4 C      -0.512594   2.596989   0.009858    0.024746  -0.041058   0.002658
   5 C      -2.508635   0.854202  -0.026354   -0.002029   0.025512  -0.002607
   6 C      -1.975365  -1.751212  -0.027558    0.002261  -0.023555  -0.001397
   7 H       4.484975  -1.442791  -0.044343   -0.001929   0.003497  -0.003291
   8 H       3.567273   3.123124   0.077381    0.008590   0.005890   0.003595
   9 H      -4.447615   1.518787   0.008394    0.010151  -0.003463   0.001333
  10 H      -3.493079  -3.111295  -0.055963    0.012489   0.007590   0.000207
  11 C      -1.124772   5.396574   0.025877    0.033492  -0.008534  -0.001908
  12 C       0.703859   7.168476  -0.020694    0.051873  -0.053131  -0.003687
  13 H      -3.291644   5.923504   0.096702   -0.051296   0.010724   0.002172
  14 H       0.338477   9.308842   0.026019    0.000907   0.037306   0.001423
  15 H       2.639466   6.738980  -0.047898   -0.040110   0.013288   0.001622
  16 C       1.104863  -5.408264  -0.015433    0.014168  -0.002209   0.005690
  17 C      -0.699261  -7.213916   0.024137   -0.010153  -0.028903  -0.001703
  18 H       3.099235  -5.878451  -0.238357   -0.007215   0.004532  -0.003173
  19 H      -0.304991  -9.195088  -0.043848   -0.006416   0.021429   0.001366
  20 H      -2.672798  -6.659769   0.138504    0.007671   0.003350  -0.001616



            QMD Run Information
            -------------------
  Time elapsed (fs) :                     2.418884
  Kin. energy (a.u.):        4            0.024106
  Pot. energy (a.u.):        4         -382.291677
  Tot. energy (a.u.):        4         -382.267571
  Target temp. (K)  :        4              298.00
  Current temp. (K) :        4              281.92
  Dipole (a.u.)     :        4   5.382361E-03   7.056587E-05  -4.746376E-03



                                 NWChem DFT Module
                                 -----------------


                        Divinylbenzene in STO-3G basis set



  Caching 1-el integrals 
   Time after variat. SCF:     58.7
   Time prior to 1st pass:     58.7


         Total DFT energy =     -382.291903643771
      One electron energy =    -1407.049628949667
           Coulomb energy =      633.453497739928
    Exchange-Corr. energy =      -57.859241337235
 Nuclear repulsion energy =      449.163468903204

 Numeric. integr. density =       70.000014765744

     Total iterative time =      8.0s




                         DFT ENERGY GRADIENTS

    atom               coordinates                        gradient
                 x          y          z           x          y          z
   1 C       0.546782  -2.615448   0.020654    0.002985   0.019118   0.000710
   2 C       2.511542  -0.835526   0.050010   -0.006736  -0.017214   0.009721
   3 C       1.968494   1.778376  -0.024163   -0.037717   0.020973  -0.011149
   4 C      -0.510613   2.603697   0.012179    0.026617  -0.035743   0.003288
   5 C      -2.510942   0.857495  -0.032801   -0.004503   0.026609  -0.003242
   6 C      -1.976274  -1.750698  -0.034376    0.000215  -0.024239  -0.001810
   7 H       4.489489  -1.432451  -0.053289   -0.002177   0.003955  -0.003997
   8 H       3.570111   3.117212   0.094403    0.007405   0.004206   0.004279
   9 H      -4.448661   1.527634   0.009623    0.009930  -0.003029   0.001645
  10 H      -3.492436  -3.112391  -0.070065    0.012709   0.007455   0.000271
  11 C      -1.131128   5.386834   0.032448    0.027360  -0.018789  -0.002153
  12 C       0.705194   7.168676  -0.025677    0.050293  -0.044954  -0.004511
  13 H      -3.294712   5.921350   0.119555   -0.050999   0.011244   0.002641
  14 H       0.354557   9.304290   0.031631    0.002374   0.035165   0.001666
  15 H       2.651042   6.735841  -0.060888   -0.034401   0.012555   0.001888
  16 C       1.103127  -5.400779  -0.019596    0.013052   0.008553   0.007400
  17 C      -0.702010  -7.220501   0.030264   -0.014275  -0.033524  -0.001950
  18 H       3.097709  -5.876176  -0.295933   -0.004300   0.003647  -0.004292
  19 H      -0.308119  -9.205082  -0.055652   -0.005847   0.019350   0.001559
  20 H      -2.668650  -6.648337   0.174136    0.008016   0.004662  -0.001964



            QMD Run Information
            -------------------
  Time elapsed (fs) :                     3.023605
  Kin. energy (a.u.):        5            0.024296
  Pot. energy (a.u.):        5         -382.291904
  Tot. energy (a.u.):        5         -382.267608
  Target temp. (K)  :        5              298.00
  Current temp. (K) :        5              284.15
  Dipole (a.u.)     :        5   5.491672E-03   3.156837E-03  -5.966170E-03



                                 NWChem DFT Module
                                 -----------------


                        Divinylbenzene in STO-3G basis set



  Caching 1-el integrals 
   Time after variat. SCF:     69.5
   Time prior to 1st pass:     69.5


         Total DFT energy =     -382.293705399372
      One electron energy =    -1406.603628537159
           Coulomb energy =      633.239811744292
    Exchange-Corr. energy =      -57.850826166316
 Nuclear repulsion energy =      448.920937559811

 Numeric. integr. density =       70.000016527051

     Total iterative time =      8.0s




                         DFT ENERGY GRADIENTS

    atom               coordinates                        gradient
                 x          y          z           x          y          z
   1 C       0.550826  -2.624480   0.024740    0.005291   0.009838   0.000857
   2 C       2.514694  -0.834335   0.059393   -0.004582  -0.016767   0.011459
   3 C       1.970616   1.783180  -0.028282   -0.034599   0.024982  -0.012923
   4 C      -0.509392   2.611426   0.014406    0.027336  -0.029509   0.003916
   5 C      -2.513121   0.860028  -0.039156   -0.005282   0.025998  -0.003902
   6 C      -1.977189  -1.749490  -0.041142   -0.000205  -0.022441  -0.002192
   7 H       4.494744  -1.423455  -0.060875   -0.001995   0.004207  -0.004664
   8 H       3.570430   3.109869   0.109970    0.005132   0.001777   0.004787
   9 H      -4.453085   1.537511   0.010292    0.008093  -0.001953   0.001978
  10 H      -3.496116  -3.116023  -0.084259    0.011069   0.005679   0.000287
  11 C      -1.138265   5.377631   0.039081    0.016619  -0.027665  -0.002107
  12 C       0.705092   7.170160  -0.030532    0.041144  -0.030827  -0.004994
  13 H      -3.280430   5.915372   0.141509   -0.045649   0.010517   0.002870
  14 H       0.369829   9.287774   0.036677    0.004375   0.028538   0.001735
  15 H       2.674321   6.728432  -0.074520   -0.021973   0.010104   0.001940
  16 C       1.101017  -5.393538  -0.023970    0.010148   0.019123   0.009350
  17 C      -0.704351  -7.226129   0.036448   -0.017232  -0.033932  -0.002049
  18 H       3.097647  -5.875142  -0.352049   -0.000271   0.002446  -0.005674
  19 H      -0.309257  -9.221658  -0.067987   -0.004568   0.013687   0.001496
  20 H      -2.667228  -6.638490   0.210436    0.007149   0.006199  -0.002171



            QMD Run Information
            -------------------
  Time elapsed (fs) :                     3.628326
  Kin. energy (a.u.):        6            0.026002
  Pot. energy (a.u.):        6         -382.293705
  Tot. energy (a.u.):        6         -382.267703
  Target temp. (K)  :        6              298.00
  Current temp. (K) :        6              304.11
  Dipole (a.u.)     :        6   4.419665E-03   7.395290E-03  -7.052082E-03



                                 NWChem DFT Module
                                 -----------------


                        Divinylbenzene in STO-3G basis set



  Caching 1-el integrals 
   Time after variat. SCF:     80.4
   Time prior to 1st pass:     80.4


         Total DFT energy =     -382.295615610122
      One electron energy =    -1406.161617225830
           Coulomb energy =      633.028662837864
    Exchange-Corr. energy =      -57.842797024986
 Nuclear repulsion energy =      448.680135802831

 Numeric. integr. density =       70.000017279557

     Total iterative time =      9.5s




                         DFT ENERGY GRADIENTS

    atom               coordinates                        gradient
                 x          y          z           x          y          z
   1 C       0.554720  -2.633793   0.028801    0.007550   0.000146   0.001015
   2 C       2.517978  -0.832665   0.068449   -0.002867  -0.015455   0.013085
   3 C       1.973728   1.787270  -0.032032   -0.029597   0.028514  -0.014443
   4 C      -0.508952   2.619998   0.016521    0.026927  -0.022521   0.004544
   5 C      -2.515149   0.861819  -0.045399   -0.004654   0.023865  -0.004591
   6 C      -1.978099  -1.747642  -0.047846    0.000700  -0.018546  -0.002524
   7 H       4.500677  -1.415891  -0.066875   -0.001407   0.004261  -0.005291
   8 H       3.569003   3.101921   0.123908    0.002081  -0.001123   0.005110
   9 H      -4.460263   1.548052   0.010288    0.004988  -0.000356   0.002334
  10 H      -3.503562  -3.121587  -0.098551    0.007916   0.002592   0.000242
  11 C      -1.145876   5.369218   0.045773    0.001225  -0.034780  -0.001667
  12 C       0.703814   7.172525  -0.035243    0.027775  -0.011836  -0.005075
  13 H      -3.250618   5.905816   0.162487   -0.035043   0.008414   0.002746
  14 H       0.383613   9.261550   0.041132    0.006779   0.017688   0.001580
  15 H       2.705075   6.717585  -0.088813   -0.006202   0.006611   0.001779
  16 C       1.098618  -5.386844  -0.028611    0.006309   0.029061   0.011444
  17 C      -0.706200  -7.230787   0.042689   -0.018945  -0.031191  -0.002020
  18 H       3.097677  -5.874940  -0.406235    0.004065   0.001142  -0.007228
  19 H      -0.308841  -9.242891  -0.080831   -0.002847   0.005652   0.001160
  20 H      -2.668239  -6.630752   0.247474    0.005247   0.007862  -0.002198



            QMD Run Information
            -------------------
  Time elapsed (fs) :                     4.233048
  Kin. energy (a.u.):        7            0.027811
  Pot. energy (a.u.):        7         -382.295616
  Tot. energy (a.u.):        7         -382.267804
  Target temp. (K)  :        7              298.00
  Current temp. (K) :        7              325.26
  Dipole (a.u.)     :        7   1.867614E-03   1.177159E-02  -7.962402E-03



                                 NWChem DFT Module
                                 -----------------


                        Divinylbenzene in STO-3G basis set



  Caching 1-el integrals 
   Time after variat. SCF:     92.7
   Time prior to 1st pass:     92.7


         Total DFT energy =     -382.296072748297
      One electron energy =    -1405.753728493205
           Coulomb energy =      632.833360166008
    Exchange-Corr. energy =      -57.836212233011
 Nuclear repulsion energy =      448.460507811912

 Numeric. integr. density =       70.000017339900

     Total iterative time =      9.5s




                         DFT ENERGY GRADIENTS

    atom               coordinates                        gradient
                 x          y          z           x          y          z
   1 C       0.558397  -2.643110   0.032833    0.009719  -0.009628   0.001186
   2 C       2.521343  -0.830554   0.077132   -0.001566  -0.013403   0.014581
   3 C       1.977684   1.790546  -0.035368   -0.023306   0.031248  -0.015727
   4 C      -0.509281   2.629214   0.018506    0.025465  -0.014916   0.005170
   5 C      -2.517043   0.862927  -0.051511   -0.003160   0.020500  -0.005294
   6 C      -1.979028  -1.745264  -0.054477    0.002345  -0.013219  -0.002802
   7 H       4.507089  -1.409776  -0.071074   -0.000481   0.004143  -0.005877
   8 H       3.566869   3.094355   0.136108   -0.001283  -0.004111   0.005273
   9 H      -4.469137   1.558715   0.009490    0.001198   0.001546   0.002701
  10 H      -3.513702  -3.128033  -0.112925    0.003881  -0.001215   0.000137
  11 C      -1.153523   5.361799   0.052513   -0.018794  -0.039758  -0.000724
  12 C       0.701743   7.175229  -0.039810    0.013616   0.010333  -0.004770
  13 H      -3.208885   5.893397   0.182531   -0.019033   0.004813   0.002143
  14 H       0.395091   9.229309   0.045050    0.009399   0.003392   0.001175
  15 H       2.737939   6.704489  -0.103711    0.009506   0.002806   0.001464
  16 C       1.096038  -5.380980  -0.033580    0.002408   0.037970   0.013520
  17 C      -0.707508  -7.234554   0.048989   -0.019490  -0.026738  -0.001918
  18 H       3.096324  -5.875126  -0.457961    0.007955  -0.000058  -0.008802
  19 H      -0.307456  -9.266046  -0.094069   -0.001014  -0.003207   0.000599
  20 H      -2.671035  -6.625689   0.285260    0.002636   0.009502  -0.002036



            QMD Run Information
            -------------------
  Time elapsed (fs) :                     4.837769
  Kin. energy (a.u.):        8            0.028210
  Pot. energy (a.u.):        8         -382.296073
  Tot. energy (a.u.):        8         -382.267863
  Target temp. (K)  :        8              298.00
  Current temp. (K) :        8              329.93
  Dipole (a.u.)     :        8  -7.293358E-04   1.537593E-02  -8.669625E-03



                                 NWChem DFT Module
                                 -----------------


                        Divinylbenzene in STO-3G basis set



  Caching 1-el integrals 
   Time after variat. SCF:    105.1
   Time prior to 1st pass:    105.1


         Total DFT energy =     -382.294203245523
      One electron energy =    -1405.399003057520
           Coulomb energy =      632.661804625952
    Exchange-Corr. energy =      -57.831674128286
 Nuclear repulsion energy =      448.274669314331

 Numeric. integr. density =       70.000016782334

     Total iterative time =      9.5s




                         DFT ENERGY GRADIENTS

    atom               coordinates                        gradient
                 x          y          z           x          y          z
   1 C       0.561797  -2.652152   0.036831    0.011798  -0.019140   0.001374
   2 C       2.524753  -0.828059   0.085397   -0.000594  -0.010718   0.015916
   3 C       1.982307   1.792929  -0.038256   -0.016465   0.032782  -0.016811
   4 C      -0.510338   2.638855   0.020343    0.023115  -0.006849   0.005788
   5 C      -2.518847   0.863450  -0.057471   -0.001426   0.016294  -0.005988
   6 C      -1.980025  -1.742508  -0.061029    0.004069  -0.007246  -0.003039
   7 H       4.513664  -1.405071  -0.073274    0.000631   0.003897  -0.006406
   8 H       3.565171   3.088188   0.146514   -0.004413  -0.006744   0.005333
   9 H      -4.478419   1.568851   0.007773   -0.002644   0.003505   0.003055
  10 H      -3.525161  -3.134066  -0.127346   -0.000339  -0.005084  -0.000013
  11 C      -1.160633   5.355516   0.059274   -0.042668  -0.042414   0.000792
  12 C       0.699283   7.177637  -0.044241    0.001178   0.033169  -0.004173
  13 H      -3.160676   5.879341   0.201845    0.001795  -0.000210   0.000974
  14 H       0.403372   9.195913   0.048568    0.011956  -0.012620   0.000554
  15 H       2.767570   6.690438  -0.119106    0.022745  -0.000736   0.001078
  16 C       1.093390  -5.376201  -0.038935   -0.000842   0.045479   0.015381
  17 C      -0.708259  -7.237557   0.055343   -0.019028  -0.021873  -0.001816
  18 H       3.092265  -5.875293  -0.506693    0.010789  -0.000975  -0.010204
  19 H      -0.305727  -9.288111  -0.107511    0.000635  -0.011462  -0.000086
  20 H      -2.674728  -6.623858   0.323739   -0.000291   0.010944  -0.001708



            QMD Run Information
            -------------------
  Time elapsed (fs) :                     5.442490
  Kin. energy (a.u.):        9            0.026357
  Pot. energy (a.u.):        9         -382.294203
  Tot. energy (a.u.):        9         -382.267847
  Target temp. (K)  :        9              298.00
  Current temp. (K) :        9              308.25
  Dipole (a.u.)     :        9  -2.943847E-03   1.741942E-02  -9.227647E-03



                                 NWChem DFT Module
                                 -----------------


                        Divinylbenzene in STO-3G basis set



  Caching 1-el integrals 
   Time after variat. SCF:    117.5
   Time prior to 1st pass:    117.5


         Total DFT energy =     -382.290337129267
      One electron energy =    -1405.100533726221
           Coulomb energy =      632.515339698489
    Exchange-Corr. energy =      -57.829138030352
 Nuclear repulsion energy =      448.123994928819

 Numeric. integr. density =       70.000015027262

     Total iterative time =      9.5s




                         DFT ENERGY GRADIENTS

    atom               coordinates                        gradient
                 x          y          z           x          y          z
   1 C       0.564860  -2.660647   0.040790    0.013763  -0.028031   0.001581
   2 C       2.528180  -0.825259   0.093208    0.000180  -0.007541   0.017056
   3 C       1.987400   1.794375  -0.040663   -0.009850   0.032766  -0.017755
   4 C      -0.512056   2.648693   0.022015    0.020058   0.001546   0.006391
   5 C      -2.520611   0.863507  -0.063261   -0.000037   0.011648  -0.006644
   6 C      -1.981138  -1.739545  -0.067493    0.005278  -0.001368  -0.003257
   7 H       4.520025  -1.401692  -0.073295    0.001761   0.003575  -0.006857
   8 H       3.564974   3.084316   0.155106   -0.006747  -0.008574   0.005364
   9 H      -4.486802   1.577796   0.005017   -0.005953   0.005278   0.003370
  10 H      -3.536505  -3.138369  -0.141763   -0.004114  -0.008418  -0.000184
  11 C      -1.166524   5.350445   0.066012   -0.067921  -0.043036   0.002805
  12 C       0.696789   7.179097  -0.048552   -0.008069   0.053131  -0.003465
  13 H      -3.113078   5.865357   0.220828    0.025186  -0.006116  -0.000714
  14 H       0.407585   9.166811   0.051898    0.014051  -0.027427  -0.000159
  15 H       2.789462   6.676638  -0.134869    0.032239  -0.003639   0.000703
  16 C       1.090765  -5.372722  -0.044729   -0.002929   0.051271   0.016837
  17 C      -0.708466  -7.239935   0.061750   -0.017812  -0.017553  -0.001777
  18 H       3.084535  -5.875128  -0.551954    0.012168  -0.001484  -0.011254
  19 H      -0.304214  -9.306276  -0.120924    0.001883  -0.018051  -0.000779
  20 H      -2.678322  -6.625750   0.362799   -0.003133   0.012023  -0.001261



            QMD Run Information
            -------------------
  Time elapsed (fs) :                     6.047211
  Kin. energy (a.u.):       10            0.022590
  Pot. energy (a.u.):       10         -382.290337
  Tot. energy (a.u.):       10         -382.267747
  Target temp. (K)  :       10              298.00
  Current temp. (K) :       10              264.20
  Dipole (a.u.)     :       10  -4.095699E-03   1.798954E-02  -9.718055E-03



                                 NWChem DFT Module
                                 -----------------


                        Divinylbenzene in STO-3G basis set



  Caching 1-el integrals 
   Time after variat. SCF:    129.8
   Time prior to 1st pass:    129.8


         Total DFT energy =     -382.286087743960
      One electron energy =    -1404.846094145077
           Coulomb energy =      632.388827368852
    Exchange-Corr. energy =      -57.827958535420
 Nuclear repulsion energy =      447.999137567685

 Numeric. integr. density =       70.000011836388

     Total iterative time =      8.0s




                         DFT ENERGY GRADIENTS

    atom               coordinates                        gradient
                 x          y          z           x          y          z
   1 C       0.567530  -2.668341   0.044704    0.015559  -0.035974   0.001813
   2 C       2.531602  -0.822243   0.100532    0.000901  -0.004037   0.017974
   3 C       1.992775   1.794885  -0.042563   -0.004124   0.030992  -0.018625
   4 C      -0.514346   2.658486   0.023505    0.016448   0.010148   0.006969
   5 C      -2.522374   0.863231  -0.068861    0.000546   0.006926  -0.007230
   6 C      -1.982401  -1.736543  -0.073865    0.005531   0.003822  -0.003483
   7 H       4.525787  -1.399529  -0.070983    0.002751   0.003228  -0.007213
   8 H       3.567073   3.083360   0.161873   -0.007828  -0.009247   0.005443
   9 H      -4.493159   1.584944   0.001115   -0.008266   0.006662   0.003621
  10 H      -3.546450  -3.139808  -0.156117   -0.006957  -0.010761  -0.000346
  11 C      -1.170474   5.346604   0.072671   -0.089675  -0.042631   0.004961
  12 C       0.694525   7.179039  -0.052764   -0.013373   0.066106  -0.002902
  13 H      -3.074048   5.853453   0.240054    0.046504  -0.011686  -0.002601
  14 H       0.407018   9.147039   0.055282    0.015218  -0.037388  -0.000746
  15 H       2.800386   6.664076  -0.150870    0.037483  -0.005680   0.000412
  16 C       1.088225  -5.370707  -0.051004   -0.003557   0.055093   0.017731
  17 C      -0.708164  -7.241812   0.068207   -0.016130  -0.014358  -0.001840
  18 H       3.072666  -5.874458  -0.593386    0.011894  -0.001511  -0.011805
  19 H      -0.303341  -9.318300  -0.134072    0.002603  -0.022309  -0.001369
  20 H      -2.680850  -6.631733   0.402287   -0.005531   0.012605  -0.000762



            QMD Run Information
            -------------------
  Time elapsed (fs) :                     6.651932
  Kin. energy (a.u.):       11            0.018482
  Pot. energy (a.u.):       11         -382.286088
  Tot. energy (a.u.):       11         -382.267605
  Target temp. (K)  :       11              298.00
  Current temp. (K) :       11              216.16
  Dipole (a.u.)     :       11  -3.416412E-03   1.825050E-02  -1.019820E-02



                                 NWChem DFT Module
                                 -----------------


                        Divinylbenzene in STO-3G basis set



  Caching 1-el integrals 
   Time after variat. SCF:    140.7
   Time prior to 1st pass:    140.7


         Total DFT energy =     -382.283659115531
      One electron energy =    -1404.617884043011
           Coulomb energy =      632.275147519826
    Exchange-Corr. energy =      -57.827283162930
 Nuclear repulsion energy =      447.886360570585

 Numeric. integr. density =       70.000007920787

     Total iterative time =      8.0s




                         DFT ENERGY GRADIENTS

    atom               coordinates                        gradient
                 x          y          z           x          y          z
   1 C       0.569755  -2.675008   0.048566    0.017187  -0.042671   0.002075
   2 C       2.534999  -0.819111   0.107342    0.001692  -0.000325   0.018632
   3 C       1.998267   1.794510  -0.043931    0.000309   0.027425  -0.019441
   4 C      -0.517107   2.667989   0.024795    0.012511   0.018815   0.007511
   5 C      -2.524152   0.862757  -0.074254    0.000031   0.002482  -0.007724
   6 C      -1.983823  -1.733650  -0.080137    0.004589   0.007858  -0.003741
   7 H       4.530612  -1.398465  -0.066217    0.003434   0.002907  -0.007447
   8 H       3.571834   3.085550   0.166789   -0.007476  -0.008629   0.005611
   9 H      -4.496705   1.589826  -0.004020   -0.009326   0.007527   0.003791
  10 H      -3.554028  -3.137586  -0.170353   -0.008585  -0.011847  -0.000471
  11 C      -1.171862   5.343980   0.079187   -0.101518  -0.042746   0.006592
  12 C       0.692644   7.177093  -0.056894   -0.014360   0.068825  -0.002759
  13 H      -3.050839   5.845524   0.260165    0.059531  -0.015218  -0.004057
  14 H       0.401273   9.139987   0.058920    0.015066  -0.039549  -0.000966
  15 H       2.798559   6.653446  -0.167012    0.038312  -0.006727   0.000271
  16 C       1.085785  -5.370267  -0.057786   -0.002620   0.056784   0.017943
  17 C      -0.707401  -7.243278   0.074716   -0.014217  -0.012570  -0.002032
  18 H       3.056750  -5.873274  -0.630802    0.009933  -0.001035  -0.011746
  19 H      -0.303354  -9.322735  -0.146754    0.002739  -0.023917  -0.001759
  20 H      -2.681496  -6.642003   0.442035   -0.007233   0.012609  -0.000283



            QMD Run Information
            -------------------
  Time elapsed (fs) :                     7.256653
  Kin. energy (a.u.):       12            0.016142
  Pot. energy (a.u.):       12         -382.283659
  Tot. energy (a.u.):       12         -382.267517
  Target temp. (K)  :       12              298.00
  Current temp. (K) :       12              188.79
  Dipole (a.u.)     :       12  -3.403031E-03   1.843859E-02  -1.068935E-02



                                 NWChem DFT Module
                                 -----------------


                        Divinylbenzene in STO-3G basis set



  Caching 1-el integrals 
   Time after variat. SCF:    151.6
   Time prior to 1st pass:    151.6


         Total DFT energy =     -382.284392727635
      One electron energy =    -1404.404514206570
           Coulomb energy =      632.169439299011
    Exchange-Corr. energy =      -57.826598719084
 Nuclear repulsion energy =      447.777280899008

 Numeric. integr. density =       70.000003866962

     Total iterative time =      8.0s




                         DFT ENERGY GRADIENTS

    atom               coordinates                        gradient
                 x          y          z           x          y          z
   1 C       0.571489  -2.680455   0.052369    0.018586  -0.047885   0.002379
   2 C       2.538347  -0.815970   0.113620    0.002655   0.003425   0.019015
   3 C       2.003751   1.793351  -0.044744    0.003371   0.022312  -0.020204
   4 C      -0.520225   2.676955   0.025871    0.008373   0.027371   0.008005
   5 C      -2.525931   0.862213  -0.079426   -0.001712  -0.001447  -0.008109
   6 C      -1.985376  -1.730981  -0.086302    0.002349   0.010482  -0.004052
   7 H       4.534270  -1.398389  -0.058917    0.003722   0.002648  -0.007547
   8 H       3.579140   3.090675   0.169795   -0.005767  -0.006800   0.005870
   9 H      -4.497078   1.592148  -0.010444   -0.009000   0.007792   0.003871
  10 H      -3.558686  -3.131334  -0.184429   -0.008845  -0.011545  -0.000536
  11 C      -1.170350   5.342578   0.085515   -0.098684  -0.044562   0.006986
  12 C       0.691173   7.173180  -0.060944   -0.010985   0.060433  -0.003212
  13 H      -3.047883   5.842773   0.281655    0.059592  -0.015415  -0.004396
  14 H       0.390404   9.146389   0.062886    0.013469  -0.033218  -0.000675
  15 H       2.783698   6.645105  -0.183246    0.034702  -0.006709   0.000345
  16 C       1.083421  -5.371449  -0.065081   -0.000226   0.056254   0.017419
  17 C      -0.706232  -7.244385   0.081284   -0.012267  -0.012280  -0.002359
  18 H       3.037455  -5.871738  -0.664221    0.006441  -0.000091  -0.011038
  19 H      -0.304299  -9.319033  -0.158838    0.002285  -0.022768  -0.001868
  20 H      -2.679682  -6.656564   0.481879   -0.008058   0.012003   0.000106



            QMD Run Information
            -------------------
  Time elapsed (fs) :                     7.861374
  Kin. energy (a.u.):       13            0.016833
  Pot. energy (a.u.):       13         -382.284393
  Tot. energy (a.u.):       13         -382.267560
  Target temp. (K)  :       13              298.00
  Current temp. (K) :       13              196.87
  Dipole (a.u.)     :       13  -4.248441E-03   1.925117E-02  -1.119210E-02



                                 NWChem DFT Module
                                 -----------------


                        Divinylbenzene in STO-3G basis set



  Caching 1-el integrals 
   Time after variat. SCF:    162.5
   Time prior to 1st pass:    162.5


         Total DFT energy =     -382.287631040780
      One electron energy =    -1404.211382067331
           Coulomb energy =      632.074416558902
    Exchange-Corr. energy =      -57.826050415596
 Nuclear repulsion energy =      447.675384883245

 Numeric. integr. density =       70.000000131000

     Total iterative time =      8.0s




                         DFT ENERGY GRADIENTS

    atom               coordinates                        gradient
                 x          y          z           x          y          z
   1 C       0.572692  -2.684534   0.056104    0.019685  -0.051448   0.002733
   2 C       2.541619  -0.812927   0.119354    0.003829   0.007042   0.019124
   3 C       2.009138   1.791554  -0.044979    0.005280   0.016112  -0.020876
   4 C      -0.523582   2.685139   0.026718    0.004169   0.035509   0.008435
   5 C      -2.527661   0.861709  -0.084367   -0.004633  -0.004712  -0.008376
   6 C      -1.986996  -1.728612  -0.092351   -0.001131   0.011593  -0.004426
   7 H       4.536661  -1.399215  -0.049050    0.003588   0.002475  -0.007509
   8 H       3.588406   3.098114   0.170805   -0.003040  -0.004064   0.006179
   9 H      -4.494388   1.591818  -0.018185   -0.007317   0.007443   0.003861
  10 H      -3.560334  -3.121155  -0.198323   -0.007725  -0.009862  -0.000521
  11 C      -1.166017   5.342449   0.091643   -0.081310  -0.047969   0.005827
  12 C       0.690016   7.167541  -0.064903   -0.003478   0.042961  -0.004275
  13 H      -3.065199   5.845266   0.304642    0.046724  -0.012285  -0.003319
  14 H       0.374952   9.164093   0.067082    0.010645  -0.020391   0.000089
  15 H       2.757031   6.639046  -0.199598    0.026697  -0.005601   0.000703
  16 C       1.081063  -5.374238  -0.072873    0.003295   0.053534   0.016187
  17 C      -0.704713  -7.245141   0.087919   -0.010391  -0.013418  -0.002823
  18 H       3.015969  -5.870171  -0.693886    0.001765   0.001224  -0.009721
  19 H      -0.306021  -9.307586  -0.170286    0.001271  -0.018945  -0.001637
  20 H      -2.675127  -6.675207   0.521688   -0.007924   0.010801   0.000345



            QMD Run Information
            -------------------
  Time elapsed (fs) :                     8.466095
  Kin. energy (a.u.):       14            0.019926
  Pot. energy (a.u.):       14         -382.287631
  Tot. energy (a.u.):       14         -382.267705
  Target temp. (K)  :       14              298.00
  Current temp. (K) :       14              233.04
  Dipole (a.u.)     :       14  -5.866789E-03   2.034242E-02  -1.171353E-02



                                 NWChem DFT Module
                                 -----------------


                        Divinylbenzene in STO-3G basis set



  Caching 1-el integrals 
   Time after variat. SCF:    173.4
   Time prior to 1st pass:    173.4


         Total DFT energy =     -382.291163197278
      One electron energy =    -1404.052865995569
           Coulomb energy =      631.994550741301
    Exchange-Corr. energy =      -57.826299858644
 Nuclear repulsion energy =      447.593451915634

 Numeric. integr. density =       69.999997249800

     Total iterative time =      9.5s




                         DFT ENERGY GRADIENTS

    atom               coordinates                        gradient
                 x          y          z           x          y          z
   1 C       0.573332  -2.687143   0.059761    0.020432  -0.053284   0.003143
   2 C       2.544781  -0.810086   0.124542    0.005207   0.010389   0.018967
   3 C       2.014374   1.789298  -0.044617    0.006432   0.009426  -0.021385
   4 C      -0.527058   2.692308   0.027324    0.000048   0.042857   0.008781
   5 C      -2.529259   0.861341  -0.089068   -0.008512  -0.007232  -0.008524
   6 C      -1.988583  -1.726575  -0.098274   -0.005653   0.011261  -0.004863
   7 H       4.537832  -1.400882  -0.036629    0.003063   0.002391  -0.007336
   8 H       3.598707   3.106935   0.169713    0.000197  -0.000871   0.006460
   9 H      -4.489210   1.588956  -0.027239   -0.004462   0.006527   0.003770
  10 H      -3.559354  -3.107620  -0.212039   -0.005368  -0.006958  -0.000416
  11 C      -1.159362   5.343691   0.097605   -0.054390  -0.051560   0.003408
  12 C       0.688958   7.160673  -0.068739    0.007502   0.020134  -0.005814
  13 H      -3.098411   5.851938   0.328757    0.025693  -0.007134  -0.001124
  14 H       0.355878   9.188733   0.071247    0.007069  -0.004594   0.001137
  15 H       2.721282   6.634893  -0.216188    0.014609  -0.003460   0.001413
  16 C       1.078611  -5.378557  -0.081128    0.007392   0.048782   0.014377
  17 C      -0.702897  -7.245514   0.094634   -0.008626  -0.015738  -0.003423
  18 H       2.993883  -5.869020  -0.720243   -0.003543   0.002753  -0.007928
  19 H      -0.308175  -9.289693  -0.181178   -0.000225  -0.012762  -0.001037
  20 H      -2.667875  -6.697526   0.561378   -0.006867   0.009074   0.000394



            QMD Run Information
            -------------------
  Time elapsed (fs) :                     9.070816
  Kin. energy (a.u.):       15            0.023323
  Pot. energy (a.u.):       15         -382.291163
  Tot. energy (a.u.):       15         -382.267840
  Target temp. (K)  :       15              298.00
  Current temp. (K) :       15              272.77
  Dipole (a.u.)     :       15  -7.272258E-03   2.049710E-02  -1.232913E-02



                                 NWChem DFT Module
                                 -----------------


                        Divinylbenzene in STO-3G basis set



  Caching 1-el integrals 
   Time after variat. SCF:    185.7
   Time prior to 1st pass:    185.7


         Total DFT energy =     -382.292888459089
      One electron energy =    -1403.947126135477
           Coulomb energy =      631.938415427404
    Exchange-Corr. energy =      -57.828009745634
 Nuclear repulsion energy =      447.543831994617

 Numeric. integr. density =       69.999995458281

     Total iterative time =      9.5s




                         DFT ENERGY GRADIENTS

    atom               coordinates                        gradient
                 x          y          z           x          y          z
   1 C       0.573389  -2.688230   0.063328    0.020811  -0.053419   0.003620
   2 C       2.547795  -0.807541   0.129188    0.006729   0.013374   0.018555
   3 C       2.019427   1.786771  -0.043645    0.007304   0.002851  -0.021651
   4 C      -0.530536   2.698253   0.027679   -0.003821   0.048969   0.009023
   5 C      -2.530613   0.861179  -0.093526   -0.012966  -0.009010  -0.008570
   6 C      -1.990009  -1.724859  -0.104058   -0.010847   0.009697  -0.005351
   7 H       4.537960  -1.403363  -0.021712    0.002214   0.002386  -0.007036
   8 H       3.608941   3.116053   0.166423    0.003391   0.002292   0.006627
   9 H      -4.482514   1.583874  -0.037576   -0.000817   0.005177   0.003619
  10 H      -3.556548  -3.091718  -0.225614   -0.002086  -0.003150  -0.000226
  11 C      -1.151153   5.346406   0.103470   -0.024458  -0.053560   0.000384
  12 C       0.687686   7.153231  -0.072410    0.020754  -0.004160  -0.007624
  13 H      -3.140364   5.861038   0.353255    0.002676  -0.001629   0.001551
  14 H       0.334400   9.214936   0.075026    0.003273   0.010732   0.002238
  15 H       2.680563   6.631917  -0.233260   -0.000665  -0.000502   0.002501
  16 C       1.075948  -5.384269  -0.089793    0.011271   0.042239   0.012215
  17 C      -0.700834  -7.245438   0.101448   -0.006912  -0.018693  -0.004135
  18 H       2.973002  -5.868807  -0.743904   -0.008759   0.004289  -0.005889
  19 H      -0.310253  -9.267459  -0.191717   -0.002068  -0.004821  -0.000094
  20 H      -2.658288  -6.722931   0.600935   -0.005026   0.006936   0.000243



            QMD Run Information
            -------------------
  Time elapsed (fs) :                     9.675537
  Kin. energy (a.u.):       16            0.025010
  Pot. energy (a.u.):       16         -382.292888
  Tot. energy (a.u.):       16         -382.267879
  Target temp. (K)  :       16              298.00
  Current temp. (K) :       16              292.50
  Dipole (a.u.)     :       16  -9.086854E-03   1.859289E-02  -1.311508E-02



                                 NWChem DFT Module
                                 -----------------


                        Divinylbenzene in STO-3G basis set



  Caching 1-el integrals 
   Time after variat. SCF:    198.1
   Time prior to 1st pass:    198.1


         Total DFT energy =     -382.292130112564
      One electron energy =    -1403.898205541204
           Coulomb energy =      631.907875438930
    Exchange-Corr. energy =      -57.831340197616
 Nuclear repulsion energy =      447.529540187327

 Numeric. integr. density =       69.999994687090

     Total iterative time =      9.4s




                         DFT ENERGY GRADIENTS

    atom               coordinates                        gradient
                 x          y          z           x          y          z
   1 C       0.572851  -2.687790   0.066791    0.020775  -0.051926   0.004168
   2 C       2.550617  -0.805378   0.133304    0.008285   0.015887   0.017915
   3 C       2.024271   1.784164  -0.042054    0.008307  -0.003043  -0.021621
   4 C      -0.533905   2.702798   0.027776   -0.007364   0.053450   0.009142
   5 C      -2.531597   0.861274  -0.097739   -0.017445  -0.010159  -0.008528
   6 C      -1.991125  -1.723420  -0.109689   -0.016174   0.007328  -0.005853
   7 H       4.537336  -1.406656  -0.004401    0.001177   0.002436  -0.006628
   8 H       3.618022   3.124391   0.160878    0.006084   0.005006   0.006616
   9 H      -4.475540   1.577030  -0.049144    0.003113   0.003579   0.003429
  10 H      -3.553033  -3.074744  -0.239112    0.001649   0.001104   0.000025
  11 C      -1.142244   5.350651   0.109323    0.003536  -0.052735  -0.002626
  12 C       0.685821   7.145908  -0.075863    0.034079  -0.026852  -0.009444
  13 H      -3.183228   5.870691   0.377225   -0.017708   0.003035   0.004101
  14 H       0.311808   9.237489   0.078044   -0.000294   0.023242   0.003203
  15 H       2.640071   6.629111  -0.251182   -0.017142   0.002782   0.003893
  16 C       1.072963  -5.391189  -0.098808    0.014024   0.034263   0.010023
  17 C      -0.698574  -7.244827   0.108380   -0.005179  -0.021423  -0.004902
  18 H       2.955100  -5.870052  -0.765561   -0.013033   0.005590  -0.003919
  19 H      -0.311627  -9.243585  -0.202224   -0.004047   0.003895   0.001089
  20 H      -2.646991  -6.750696   0.640409   -0.002643   0.004541  -0.000083



            QMD Run Information
            -------------------
  Time elapsed (fs) :                    10.280258
  Kin. energy (a.u.):       17            0.024314
  Pot. energy (a.u.):       17         -382.292130
  Tot. energy (a.u.):       17         -382.267816
  Target temp. (K)  :       17              298.00
  Current temp. (K) :       17              284.37
  Dipole (a.u.)     :       17  -1.042324E-02   1.501235E-02  -1.412413E-02



                                 NWChem DFT Module
                                 -----------------


                        Divinylbenzene in STO-3G basis set



  Caching 1-el integrals 
   Time after variat. SCF:    210.4
   Time prior to 1st pass:    210.4


         Total DFT energy =     -382.289799520944
      One electron energy =    -1403.894739101318
           Coulomb energy =      631.898791175965
    Exchange-Corr. energy =      -57.835793460939
 Nuclear repulsion energy =      447.541941865348

 Numeric. integr. density =       69.999994390259

     Total iterative time =      9.4s




                         DFT ENERGY GRADIENTS

    atom               coordinates                        gradient
                 x          y          z           x          y          z
   1 C       0.571719  -2.685867   0.070136    0.020290  -0.048947   0.004785
   2 C       2.553202  -0.803669   0.136908    0.009732   0.017856   0.017076
   3 C       2.028877   1.781643  -0.039845    0.009742  -0.007797  -0.021264
   4 C      -0.537063   2.705816   0.027612   -0.010546   0.056005   0.009123
   5 C      -2.532083   0.861660  -0.101708   -0.021292  -0.010850  -0.008416
   6 C      -1.991779  -1.722191  -0.115153   -0.020944   0.004724  -0.006315
   7 H       4.536311  -1.410777   0.015165    0.000115   0.002500  -0.006128
   8 H       3.625032   3.131026   0.153083    0.007931   0.006956   0.006382
   9 H      -4.469624   1.568969  -0.061879    0.006709   0.001970   0.003221
  10 H      -3.550079  -3.058146  -0.252619    0.005210   0.005210   0.000295
  11 C      -1.133437   5.356403   0.115252    0.027077  -0.048612  -0.005234
  12 C       0.682982   7.139351  -0.079045    0.044224  -0.045694  -0.010914
  13 H      -3.220067   5.879312   0.399800   -0.033239   0.006339   0.006154
  14 H       0.289316   9.252134   0.079972   -0.003313   0.031708   0.003912
  15 H       2.605410   6.625360  -0.270428   -0.031647   0.005590   0.005343
  16 C       1.069577  -5.399087  -0.108108    0.014786   0.025238   0.008146
  17 C      -0.696166  -7.243604   0.115451   -0.003336  -0.022743  -0.005613
  18 H       2.941633  -5.873200  -0.785884   -0.015574   0.006432  -0.002345
  19 H      -0.311625  -9.221035  -0.213101   -0.005872   0.012046   0.002309
  20 H      -2.634795  -6.780007   0.679911   -0.000055   0.002069  -0.000516



            QMD Run Information
            -------------------
  Time elapsed (fs) :                    10.884979
  Kin. energy (a.u.):       18            0.022101
  Pot. energy (a.u.):       18         -382.289800
  Tot. energy (a.u.):       18         -382.267699
  Target temp. (K)  :       18              298.00
  Current temp. (K) :       18              258.48
  Dipole (a.u.)     :       18  -1.111054E-02   1.083368E-02  -1.536010E-02



                                 NWChem DFT Module
                                 -----------------


                        Divinylbenzene in STO-3G basis set



  Caching 1-el integrals 
   Time after variat. SCF:    222.7
   Time prior to 1st pass:    222.7


         Total DFT energy =     -382.287668224899
      One electron energy =    -1403.914766730525
           Coulomb energy =      631.902289273088
    Exchange-Corr. energy =      -57.840448738941
 Nuclear repulsion energy =      447.565257971478

 Numeric. integr. density =       69.999994118079

     Total iterative time =      8.0s




                         DFT ENERGY GRADIENTS

    atom               coordinates                        gradient
                 x          y          z           x          y          z
   1 C       0.570008  -2.682545   0.073343    0.019339  -0.044665   0.005467
   2 C       2.555509  -0.802470   0.140024    0.010916   0.019256   0.016065
   3 C       2.033205   1.779345  -0.037029    0.011775  -0.011089  -0.020578
   4 C      -0.539920   2.707235   0.027187   -0.013356   0.056468   0.008956
   5 C      -2.531960   0.862356  -0.105437   -0.023830  -0.011253  -0.008241
   6 C      -1.991835  -1.721096  -0.120436   -0.024402   0.002511  -0.006664
   7 H       4.535247  -1.415748   0.036815   -0.000796   0.002531  -0.005554
   8 H       3.629345   3.135294   0.143117    0.008719   0.007939   0.005914
   9 H      -4.465991   1.560237  -0.075710    0.009332   0.000589   0.003007
  10 H      -3.548897  -3.043320  -0.266225    0.007894   0.008530   0.000517
  11 C      -1.125404   5.363544   0.121330    0.045320  -0.041301  -0.007256
  12 C       0.678880   7.134101  -0.081916    0.047558  -0.059021  -0.011556
  13 H      -3.245598   5.885776   0.420281   -0.043348   0.008213   0.007548
  14 H       0.267951   9.255992   0.080569   -0.005573   0.035638   0.004301
  15 H       2.581515   6.619707  -0.291492   -0.040499   0.006972   0.006421
  16 C       1.065769  -5.407707  -0.117642    0.012972   0.015523   0.006857
  17 C      -0.693662  -7.241731   0.122683   -0.001288  -0.021349  -0.006117
  18 H       2.933463  -5.878535  -0.805410   -0.015857   0.006664  -0.001419
  19 H      -0.309625  -9.202584  -0.224764   -0.007222   0.018141   0.003276
  20 H      -2.622580  -6.810021   0.719589    0.002347  -0.000299  -0.000946



            QMD Run Information
            -------------------
  Time elapsed (fs) :                    11.489701
  Kin. energy (a.u.):       19            0.020070
  Pot. energy (a.u.):       19         -382.287668
  Tot. energy (a.u.):       19         -382.267599
  Target temp. (K)  :       19              298.00
  Current temp. (K) :       19              234.72
  Dipole (a.u.)     :       19  -1.130383E-02   7.269509E-03  -1.680412E-02



                                 NWChem DFT Module
                                 -----------------


                        Divinylbenzene in STO-3G basis set



  Caching 1-el integrals 
   Time after variat. SCF:    233.5
   Time prior to 1st pass:    233.5


         Total DFT energy =     -382.287269914390
      One electron energy =    -1403.937455088290
           Coulomb energy =      631.910097832791
    Exchange-Corr. energy =      -57.844492418750
 Nuclear repulsion energy =      447.584579759859

 Numeric. integr. density =       69.999994061417

     Total iterative time =      8.0s




                         DFT ENERGY GRADIENTS

    atom               coordinates                        gradient
                 x          y          z           x          y          z
   1 C       0.567745  -2.677947   0.076395    0.017891  -0.039266   0.006204
   2 C       2.557504  -0.801822   0.142681    0.011689   0.020025   0.014911
   3 C       2.037197   1.777364  -0.033625    0.014456  -0.012726  -0.019597
   4 C      -0.542395   2.707039   0.026507   -0.015837   0.054839   0.008636
   5 C      -2.531156   0.863373  -0.108931   -0.024522  -0.011543  -0.008001
   6 C      -1.991193  -1.720073  -0.125529   -0.025885   0.001234  -0.006822
   7 H       4.534453  -1.421581   0.060355   -0.001394   0.002484  -0.004918
   8 H       3.630691   3.136862   0.131138    0.008383   0.007883   0.005230
   9 H      -4.465533   1.551305  -0.090564    0.010471  -0.000374   0.002784
  10 H      -3.550400  -3.031396  -0.280008    0.009100   0.010537   0.000623
  11 C      -1.118665   5.371865   0.127616    0.058098  -0.031235  -0.008604
  12 C       0.673419   7.130536  -0.084457    0.041641  -0.065711  -0.010891
  13 H      -3.256383   5.889445   0.438194   -0.048160   0.008766   0.008228
  14 H       0.248482   9.247726   0.079702   -0.006934   0.034866   0.004337
  15 H       2.571399   6.611682  -0.314741   -0.041097   0.006234   0.006659
  16 C       1.061590  -5.416770  -0.127372    0.008515   0.005472   0.006277
  17 C      -0.691122  -7.239248   0.130090    0.001030  -0.016267  -0.006269
  18 H       2.930689  -5.886137  -0.824453   -0.013799   0.006247  -0.001238
  19 H      -0.305168  -9.190305  -0.237542   -0.007812   0.020940   0.003685
  20 H      -2.611163  -6.839933   0.759589    0.004166  -0.002407  -0.001234



            QMD Run Information
            -------------------
  Time elapsed (fs) :                    12.094422
  Kin. energy (a.u.):       20            0.019697
  Pot. energy (a.u.):       20         -382.287270
  Tot. energy (a.u.):       20         -382.267573
  Target temp. (K)  :       20              298.00
  Current temp. (K) :       20              230.36
  Dipole (a.u.)     :       20  -1.080016E-02   5.091956E-03  -1.840020E-02



                                 NWChem DFT Module
                                 -----------------


                        Divinylbenzene in STO-3G basis set



  Caching 1-el integrals 
   Time after variat. SCF:    244.4
   Time prior to 1st pass:    244.4


         Total DFT energy =     -382.289005628340
      One electron energy =    -1403.951087967024
           Coulomb energy =      631.916839772592
    Exchange-Corr. energy =      -57.847540609004
 Nuclear repulsion energy =      447.592783175096

 Numeric. integr. density =       69.999994443389

     Total iterative time =      8.0s




                         DFT ENERGY GRADIENTS

    atom               coordinates                        gradient
                 x          y          z           x          y          z
   1 C       0.564970  -2.672228   0.079269    0.015960  -0.032972   0.006986
   2 C       2.559165  -0.801745   0.144913    0.011952   0.020188   0.013627
   3 C       2.040776   1.775747  -0.029661    0.017690  -0.012686  -0.018366
   4 C      -0.544418   2.705277   0.025580   -0.017985   0.051227   0.008158
   5 C      -2.529652   0.864720  -0.112196   -0.023086  -0.011739  -0.007677
   6 C      -1.989812  -1.719086  -0.130427   -0.025009   0.001171  -0.006730
   7 H       4.534134  -1.428259   0.085568   -0.001571   0.002323  -0.004222
   8 H       3.629186   3.135748   0.117381    0.006967   0.006807   0.004369
   9 H      -4.468638   1.542500  -0.106365    0.009857  -0.000830   0.002534
  10 H      -3.554999  -3.023057  -0.294003    0.008476   0.010938   0.000554
  11 C      -1.113587   5.381078   0.134147    0.065229  -0.019056  -0.009198
  12 C       0.666768   7.128849  -0.086687    0.026709  -0.065316  -0.008682
  13 H      -3.250783   5.890133   0.453308   -0.047868   0.008124   0.008165
  14 H       0.231372   9.227598   0.077361   -0.007298   0.029345   0.004002
  15 H       2.575263   6.601536  -0.340255   -0.033379   0.003338   0.005787
  16 C       1.057167  -5.425989  -0.137281    0.001869  -0.004643   0.006334
  17 C      -0.688611  -7.236301   0.137676    0.003687  -0.007254  -0.006005
  18 H       2.932608  -5.895865  -0.843076   -0.009793   0.005267  -0.001713
  19 H      -0.298054  -9.185149  -0.251573   -0.007496   0.019920   0.003316
  20 H      -2.601164  -6.869027   0.800008    0.005089  -0.004153  -0.001240



            QMD Run Information
            -------------------
  Time elapsed (fs) :                    12.699143
  Kin. energy (a.u.):       21            0.021373
  Pot. energy (a.u.):       21         -382.289006
  Tot. energy (a.u.):       21         -382.267632
  Target temp. (K)  :       21              298.00
  Current temp. (K) :       21              249.97
  Dipole (a.u.)     :       21  -1.031174E-02   4.268278E-03  -2.006232E-02



                                 NWChem DFT Module
                                 -----------------


                        Divinylbenzene in STO-3G basis set



  Caching 1-el integrals 
   Time after variat. SCF:    255.2
   Time prior to 1st pass:    255.2


         Total DFT energy =     -382.291974095909
      One electron energy =    -1403.957080190202
           Coulomb energy =      631.922475440949
    Exchange-Corr. energy =      -57.849824606705
 Nuclear repulsion energy =      447.592455260049

 Numeric. integr. density =       69.999995174498

     Total iterative time =      8.0s




                         DFT ENERGY GRADIENTS

    atom               coordinates                        gradient
                 x          y          z           x          y          z
   1 C       0.561739  -2.665566   0.081944    0.013572  -0.025985   0.007800
   2 C       2.560484  -0.802246   0.146754    0.011669   0.019768   0.012223
   3 C       2.043849   1.774492  -0.025172    0.021264  -0.011115  -0.016949
   4 C      -0.545926   2.702051   0.024419   -0.019788   0.045858   0.007523
   5 C      -2.527488   0.866402  -0.115241   -0.019603  -0.011763  -0.007245
   6 C      -1.987716  -1.718132  -0.135133   -0.021794   0.002274  -0.006364
   7 H       4.534349  -1.435727   0.112217   -0.001285   0.002026  -0.003465
   8 H       3.625310   3.132318   0.102137    0.004648   0.004849   0.003390
   9 H      -4.475096   1.533977  -0.123028    0.007564  -0.000816   0.002231
  10 H      -3.562482  -3.018439  -0.308185    0.006063   0.009775   0.000286
  11 C      -1.110372   5.390836   0.140941    0.066243  -0.005472  -0.008914
  12 C       0.659354   7.129029  -0.088668    0.005664  -0.058131  -0.005081
  13 H      -3.228899   5.888057   0.465645   -0.042426   0.006350   0.007302
  14 H       0.216745   9.197487   0.073657   -0.006611   0.019151   0.003299
  15 H       2.590484   6.590254  -0.367738   -0.019864  -0.001060   0.003892
  16 C       1.052692  -5.435076  -0.147370   -0.006053  -0.014546   0.006796
  17 C      -0.686206  -7.233146   0.145434    0.006688   0.004957  -0.005381
  18 H       2.937859  -5.907385  -0.861115   -0.004586   0.003892  -0.002610
  19 H      -0.288389  -9.186770  -0.266733   -0.006316   0.015482   0.002124
  20 H      -2.592896  -6.896707   0.840850    0.004956  -0.005495  -0.000856



            QMD Run Information
            -------------------
  Time elapsed (fs) :                    13.303864
  Kin. energy (a.u.):       22            0.024237
  Pot. energy (a.u.):       22         -382.291974
  Tot. energy (a.u.):       22         -382.267737
  Target temp. (K)  :       22              298.00
  Current temp. (K) :       22              283.46
  Dipole (a.u.)     :       22  -1.026916E-02   4.187276E-03  -2.167390E-02



                                 NWChem DFT Module
                                 -----------------


                        Divinylbenzene in STO-3G basis set



  Caching 1-el integrals 
   Time after variat. SCF:    266.1
   Time prior to 1st pass:    266.1


         Total DFT energy =     -382.294558312906
      One electron energy =    -1403.964477633258
           Coulomb energy =      631.929752657886
    Exchange-Corr. energy =      -57.851951203415
 Nuclear repulsion energy =      447.592117865881

 Numeric. integr. density =       69.999996077810

     Total iterative time =      8.0s




                         DFT ENERGY GRADIENTS

    atom               coordinates                        gradient
                 x          y          z           x          y          z
   1 C       0.558120  -2.658161   0.084395    0.010776  -0.018510   0.008637
   2 C       2.561470  -0.803311   0.148247    0.010879   0.018814   0.010706
   3 C       2.046315   1.773554  -0.020198    0.024835  -0.008318  -0.015416
   4 C      -0.546870   2.697515   0.023044   -0.021203   0.039040   0.006733
   5 C      -2.524764   0.868421  -0.118080   -0.014493  -0.011429  -0.006684
   6 C      -1.984998  -1.717243  -0.139657   -0.016663   0.004171  -0.005753
   7 H       4.535002  -1.443885   0.140045   -0.000573   0.001599  -0.002642
   8 H       3.619853   3.127239   0.085740    0.001727   0.002261   0.002359
   9 H      -4.484126   1.525732  -0.140451    0.003981  -0.000476   0.001851
  10 H      -3.572027  -3.017146  -0.322466    0.002274   0.007405  -0.000160
  11 C      -1.109049   5.400750   0.147990    0.060447   0.008799  -0.007590
[...]

    atom               coordinates                        gradient
                 x          y          z           x          y          z
   1 C       0.529585  -2.603824   0.093309   -0.013527   0.031464   0.014271
   2 C       2.561703  -0.822801   0.152862    0.004160   0.002711  -0.001418
   3 C       2.041415   1.768275   0.024442    0.014553   0.007106  -0.004495
   4 C      -0.536138   2.647931   0.009745   -0.015339  -0.017743  -0.001510
   5 C      -2.503271   0.888613  -0.133906    0.013336   0.011261  -0.000638
   6 C      -1.962632  -1.716425  -0.168011    0.016778   0.000727  -0.001372
   7 H       4.525015  -1.505624   0.341913    0.004113  -0.001610   0.004109
   8 H       3.608363   3.112093  -0.033576   -0.001496  -0.002539  -0.003818
   9 H      -4.513771   1.468411  -0.269844   -0.010027  -0.002783  -0.001848
  10 H      -3.586131  -3.027445  -0.410707   -0.011899  -0.002455  -0.002438
  11 C      -1.119569   5.443057   0.197948   -0.026311   0.059792   0.010242
  12 C       0.635634   7.157416  -0.108842   -0.036794  -0.020242   0.009141
  13 H      -3.003026   5.904822   0.555452    0.048158  -0.012855  -0.009525
  14 H       0.124278   9.123382   0.033070   -0.004509  -0.017894   0.000152
  15 H       2.617383   6.617477  -0.570659    0.013645  -0.010967  -0.004399
  16 C       1.035835  -5.474677  -0.234660   -0.006820  -0.049365  -0.006160
  17 C      -0.679697  -7.240479   0.211219    0.007815   0.044977   0.000010
  18 H       2.921292  -6.007907  -0.958890    0.004400  -0.002889   0.001063
  19 H      -0.190594  -9.211035  -0.356503    0.005711  -0.009464  -0.009215
  20 H      -2.536911  -7.034806   1.144598   -0.005947  -0.007233   0.007850



            QMD Run Information
            -------------------
  Time elapsed (fs) :                    18.141632
  Kin. energy (a.u.):       30            0.022176
  Pot. energy (a.u.):       30         -382.289951
  Tot. energy (a.u.):       30         -382.267774
  Target temp. (K)  :       30              298.00
  Current temp. (K) :       30              259.36
  Dipole (a.u.)     :       30  -6.321125E-03   3.475646E-03  -3.403586E-02



                                 NWChem DFT Module
                                 -----------------


                        Divinylbenzene in STO-3G basis set



  Caching 1-el integrals 
   Time after variat. SCF:    352.6
   Time prior to 1st pass:    352.6


         Total DFT energy =     -382.292422583279
      One electron energy =    -1403.313859221088
           Coulomb energy =      631.628577971048
    Exchange-Corr. energy =      -57.853994037781
 Nuclear repulsion energy =      447.246852704541

 Numeric. integr. density =       70.000000191123

     Total iterative time =      8.0s




                         DFT ENERGY GRADIENTS

    atom               coordinates                        gradient
                 x          y          z           x          y          z
   1 C       0.526258  -2.598180   0.093127   -0.016473   0.036267   0.014950
   2 C       2.561138  -0.826501   0.153288    0.004624   0.000053  -0.002930
   3 C       2.038038   1.766910   0.031691    0.007411   0.006349  -0.002867
   4 C      -0.532416   2.641137   0.007730   -0.012235  -0.023414  -0.002708
   5 C      -2.501285   0.891237  -0.135894    0.011680   0.016387   0.000012
   6 C      -1.960670  -1.716937  -0.171814    0.016302  -0.003914  -0.001490
   7 H       4.518491  -1.513142   0.367763    0.003248  -0.001620   0.004895
   8 H       3.612679   3.115917  -0.047720    0.001706  -0.000025  -0.004741
   9 H      -4.504410   1.461528  -0.287151   -0.006907  -0.004372  -0.002095
  10 H      -3.571717  -3.025455  -0.420197   -0.008517  -0.000129  -0.002024
  11 C      -1.118846   5.442554   0.204151   -0.008862   0.051142   0.007197
  12 C       0.639606   7.161695  -0.112760   -0.015050  -0.037344   0.004844
  13 H      -3.040737   5.926635   0.578937    0.025615  -0.006539  -0.005437
  14 H       0.112841   9.165055   0.029057   -0.008575  -0.000523   0.001115
  15 H       2.586041   6.642287  -0.587911   -0.000104  -0.006763  -0.001497
  16 C       1.036204  -5.473581  -0.245721    0.003872  -0.046129  -0.010825
  17 C      -0.680618  -7.247797   0.219627    0.001908   0.033480   0.000789
  18 H       2.905757  -6.017009  -0.967517   -0.000311  -0.002477   0.003388
  19 H      -0.184053  -9.197785  -0.355886    0.005168  -0.003490  -0.008204
  20 H      -2.523113  -7.040693   1.173574   -0.004501  -0.006939   0.007627



            QMD Run Information
            -------------------
  Time elapsed (fs) :                    18.746354
  Kin. energy (a.u.):       31            0.024540
  Pot. energy (a.u.):       31         -382.292423
  Tot. energy (a.u.):       31         -382.267883
  Target temp. (K)  :       31              298.00
  Current temp. (K) :       31              287.00
  Dipole (a.u.)     :       31  -7.234953E-03   2.932324E-03  -3.558702E-02



                                 NWChem DFT Module
                                 -----------------


                        Divinylbenzene in STO-3G basis set



  Caching 1-el integrals 
   Time after variat. SCF:    363.4
   Time prior to 1st pass:    363.4


         Total DFT energy =     -382.292511423492
      One electron energy =    -1403.053612578930
           Coulomb energy =      631.500644301550
    Exchange-Corr. energy =      -57.849925480934
 Nuclear repulsion energy =      447.110382334822

 Numeric. integr. density =       69.999996014209

     Total iterative time =      8.0s




                         DFT ENERGY GRADIENTS

    atom               coordinates                        gradient
                 x          y          z           x          y          z
   1 C       0.523403  -2.593573   0.092517   -0.018969   0.040084   0.015567
   2 C       2.560441  -0.830203   0.153799    0.005462  -0.002415  -0.004279
   3 C       2.034450   1.765364   0.039021    0.000264   0.005462  -0.001253
   4 C      -0.528344   2.635013   0.005793   -0.008765  -0.028044  -0.003839
   5 C      -2.499633   0.893393  -0.137883    0.008850   0.021173   0.000509
   6 C      -1.959174  -1.717338  -0.175575    0.014527  -0.008904  -0.001810
   7 H       4.510861  -1.520109   0.391948    0.001984  -0.001504   0.005561
   8 H       3.616415   3.119749  -0.060252    0.004768   0.002428  -0.005681
   9 H      -4.492699   1.456132  -0.303744   -0.002871  -0.006047  -0.002203
  10 H      -3.554407  -3.023422  -0.428998   -0.004133   0.002851  -0.001430
  11 C      -1.117869   5.440589   0.210149    0.008989   0.040234   0.003839
  12 C       0.644008   7.167040  -0.116817    0.008517  -0.051497  -0.000149
  13 H      -3.087162   5.950674   0.604272    0.001787   0.000398  -0.000851
  14 H       0.104321   9.206906   0.024664   -0.011895   0.014566   0.001842
  15 H       2.554735   6.669398  -0.604653   -0.015463  -0.002156   0.002109
  16 C       1.036462  -5.471166  -0.256473    0.014651  -0.041551  -0.015435
  17 C      -0.681595  -7.256071   0.228014   -0.004611   0.019775   0.001638
  18 H       2.890327  -6.025269  -0.977296   -0.004875  -0.002063   0.005570
  19 H      -0.179269  -9.183347  -0.352478    0.004139   0.003791  -0.006653
  20 H      -2.507784  -7.044219   1.199955   -0.002356  -0.006581   0.006947



            QMD Run Information
            -------------------
  Time elapsed (fs) :                    19.351075
  Kin. energy (a.u.):       32            0.024633
  Pot. energy (a.u.):       32         -382.292511
  Tot. energy (a.u.):       32         -382.267878
  Target temp. (K)  :       32              298.00
  Current temp. (K) :       32              288.10
  Dipole (a.u.)     :       32  -7.895365E-03   8.954788E-04  -3.726771E-02



                                 NWChem DFT Module
                                 -----------------


                        Divinylbenzene in STO-3G basis set



  Caching 1-el integrals 
   Time after variat. SCF:    374.2
   Time prior to 1st pass:    374.2


         Total DFT energy =     -382.290206119667
      One electron energy =    -1402.791110136109
           Coulomb energy =      631.369322036713
    Exchange-Corr. energy =      -57.846151864167
 Nuclear repulsion energy =      446.977733843896

 Numeric. integr. density =       69.999992122295

     Total iterative time =      7.9s




                         DFT ENERGY GRADIENTS

    atom               coordinates                        gradient
                 x          y          z           x          y          z
   1 C       0.521089  -2.590110   0.091463   -0.020922   0.042833   0.016105
   2 C       2.559587  -0.833836   0.154431    0.006519  -0.004588  -0.005452
   3 C       2.030855   1.763662   0.046388   -0.006250   0.004765   0.000286
   4 C      -0.524021   2.629690   0.003965   -0.005060  -0.031652  -0.004896
   5 C      -2.498234   0.894943  -0.139885    0.005421   0.025259   0.000872
   6 C      -1.958093  -1.717483  -0.179284    0.011946  -0.013661  -0.002252
   7 H       4.502557  -1.526565   0.414242    0.000461  -0.001305   0.006103
   8 H       3.618528   3.122756  -0.070852    0.007220   0.004437  -0.006592
   9 H      -4.480012   1.452794  -0.319588    0.001512  -0.007625  -0.002199
  10 H      -3.535690  -3.022358  -0.437313    0.000684   0.006045  -0.000736
  11 C      -1.117149   5.437475   0.216037    0.022790   0.028500   0.001089
  12 C       0.648167   7.173857  -0.120869    0.030464  -0.060439  -0.005040
  13 H      -3.134196   5.974576   0.629897   -0.018790   0.006771   0.003315
  14 H       0.099847   9.243802   0.019645   -0.014025   0.025757   0.002236
  15 H       2.528689   6.697243  -0.622112   -0.029525   0.002079   0.005718
  16 C       1.036302  -5.467565  -0.266784    0.024232  -0.035792  -0.019530
  17 C      -0.682439  -7.264910   0.236353   -0.011256   0.005243   0.002587
  18 H       2.876555  -6.032827  -0.988970   -0.008456  -0.001873   0.007282
  19 H      -0.175894  -9.170199  -0.346806    0.002830   0.011404  -0.004824
  20 H      -2.491653  -7.045507   1.223973    0.000205  -0.006159   0.005928



            QMD Run Information
            -------------------
  Time elapsed (fs) :                    19.955796
  Kin. energy (a.u.):       33            0.022426
  Pot. energy (a.u.):       33         -382.290206
  Tot. energy (a.u.):       33         -382.267780
  Target temp. (K)  :       33              298.00
  Current temp. (K) :       33              262.28
  Dipole (a.u.)     :       33  -7.681205E-03  -1.603329E-03  -3.917821E-02



                                 NWChem DFT Module
                                 -----------------


                        Divinylbenzene in STO-3G basis set



  Caching 1-el integrals 
   Time after variat. SCF:    385.0
   Time prior to 1st pass:    385.0


         Total DFT energy =     -382.286952955795
      One electron energy =    -1402.524938517700
           Coulomb energy =      631.235292876685
    Exchange-Corr. energy =      -57.842378421764
 Nuclear repulsion energy =      446.845071106985

 Numeric. integr. density =       69.999989569567

     Total iterative time =      7.9s




                         DFT ENERGY GRADIENTS

    atom               coordinates                        gradient
                 x          y          z           x          y          z
   1 C       0.519373  -2.587871   0.089949   -0.022262   0.044462   0.016543
   2 C       2.558548  -0.837337   0.155219    0.007598  -0.006359  -0.006452
   3 C       2.027438   1.761824   0.053746   -0.011614   0.004486   0.001690
   4 C      -0.519554   2.625271   0.002277   -0.001274  -0.034284  -0.005877
   5 C      -2.496990   0.895772  -0.141913    0.002108   0.028290   0.001150
   6 C      -1.957353  -1.717239  -0.182928    0.009221  -0.017489  -0.002701
   7 H       4.494096  -1.532577   0.434459   -0.001139  -0.001080   0.006534
   8 H       3.618186   3.124253  -0.079209    0.008711   0.005718  -0.007417
   9 H      -4.467838   1.452049  -0.334685    0.005547  -0.008902  -0.002141
  10 H      -3.517206  -3.023351  -0.445377    0.005219   0.008887  -0.000057
  11 C      -1.117080   5.433547   0.221894    0.030804   0.016901  -0.000616
  12 C       0.651455   7.182401  -0.124777    0.046819  -0.062929  -0.008756
  13 H      -3.174836   5.996176   0.654394   -0.034146   0.011961   0.006598
  14 H       0.100145   9.271935   0.013865   -0.014783   0.032431   0.002270
  15 H       2.512687   6.724381  -0.641517   -0.038727   0.005090   0.008312
  16 C       1.035449  -5.462941  -0.276537    0.031503  -0.028995  -0.022689
  17 C      -0.682962  -7.273899   0.244619   -0.017621  -0.008507   0.003717
  18 H       2.865661  -6.039748  -1.003122   -0.010340  -0.002119   0.008235
  19 H      -0.173482  -9.160930  -0.339494    0.001546   0.018106  -0.003087
  20 H      -2.475592  -7.044699   1.245975    0.002830  -0.005666   0.004744



            QMD Run Information
            -------------------
  Time elapsed (fs) :                    20.560517
  Kin. energy (a.u.):       34            0.019294
  Pot. energy (a.u.):       34         -382.286953
  Tot. energy (a.u.):       34         -382.267659
  Target temp. (K)  :       34              298.00
  Current temp. (K) :       34              225.65
  Dipole (a.u.)     :       34  -6.375644E-03  -3.179620E-03  -4.133958E-02



                                 NWChem DFT Module
                                 -----------------


                        Divinylbenzene in STO-3G basis set



  Caching 1-el integrals 
   Time after variat. SCF:    395.7
   Time prior to 1st pass:    395.7


         Total DFT energy =     -382.284590954193
      One electron energy =    -1402.248520535202
           Coulomb energy =      631.096967646429
    Exchange-Corr. energy =      -57.838099685030
 Nuclear repulsion energy =      446.705061619611

 Numeric. integr. density =       69.999988245137

     Total iterative time =      7.9s




                         DFT ENERGY GRADIENTS

    atom               coordinates                        gradient
                 x          y          z           x          y          z
   1 C       0.518293  -2.586903   0.087962   -0.022936   0.044950   0.016863
   2 C       2.557291  -0.840657   0.156192    0.008480  -0.007631  -0.007291
   3 C       2.024352   1.759857   0.061056   -0.015464   0.004745   0.002906
   4 C      -0.515050   2.621832   0.000757    0.002429  -0.035999  -0.006781
   5 C      -2.495805   0.895792  -0.143974   -0.000353   0.029945   0.001411
   6 C      -1.956877  -1.716495  -0.186496    0.007060  -0.019677  -0.003019
   7 H       4.486023  -1.538221   0.452453   -0.002618  -0.000894   0.006878
   8 H       3.614879   3.123804  -0.085042    0.009030   0.006104  -0.008107
   9 H      -4.457552   1.454333  -0.349052    0.008531  -0.009670  -0.002108
  10 H      -3.500497  -3.027367  -0.453422    0.008728   0.010768   0.000474
  11 C      -1.117891   5.429136   0.227769    0.033018   0.006015  -0.001180
  12 C       0.653406   7.192742  -0.128435    0.054429  -0.058527  -0.010291
  13 H      -3.203861   6.013706   0.676646   -0.043951   0.015755   0.008850
  14 H       0.105472   9.289036   0.007312   -0.014136   0.034457   0.001951
  15 H       2.509860   6.749787  -0.663749   -0.040254   0.006298   0.008929
  16 C       1.033696  -5.457488  -0.285642    0.035764  -0.021332  -0.024624
  17 C      -0.682982  -7.282645   0.252778   -0.023399  -0.019885   0.005127
  18 H       2.858283  -6.045948  -1.020075   -0.010133  -0.002931   0.008254
  19 H      -0.171596  -9.157821  -0.331131    0.000638   0.022597  -0.001850
  20 H      -2.460494  -7.041963   1.266362    0.005136  -0.005088   0.003608



            QMD Run Information
            -------------------
  Time elapsed (fs) :                    21.165238
  Kin. energy (a.u.):       35            0.017004
  Pot. energy (a.u.):       35         -382.284591
  Tot. energy (a.u.):       35         -382.267586
  Target temp. (K)  :       35              298.00
  Current temp. (K) :       35              198.87
  Dipole (a.u.)     :       35  -4.183250E-03  -2.816511E-03  -4.367215E-02




                                NWChem Input Module
                                -------------------




                                     CITATION
                                     --------
                Please cite the following reference when publishing
                           results obtained with NWChem:

          E. Apr, E. J. Bylaska, W. A. de Jong, N. Govind, K. Kowalski,
       T. P. Straatsma, M. Valiev, H. J. J. van Dam, Y. Alexeev, J. Anchell,
       V. Anisimov, F. W. Aquino, R. Atta-Fynn, J. Autschbach, N. P. Bauman,
     J. C. Becca, D. E. Bernholdt, K. Bhaskaran-Nair, S. Bogatko, P. Borowski,
        J. Boschen, J. Brabec, A. Bruner, E. Caut, Y. Chen, G. N. Chuev,
      C. J. Cramer, J. Daily, M. J. O. Deegan, T. H. Dunning Jr., M. Dupuis,
   K. G. Dyall, G. I. Fann, S. A. Fischer, A. Fonari, H. Frchtl, L. Gagliardi,
      J. Garza, N. Gawande, S. Ghosh, K. Glaesemann, A. W. Gtz, J. Hammond,
       V. Helms, E. D. Hermes, K. Hirao, S. Hirata, M. Jacquelin, L. Jensen,
   B. G. Johnson, H. Jnsson, R. A. Kendall, M. Klemm, R. Kobayashi, V. Konkov,
      S. Krishnamoorthy, M. Krishnan, Z. Lin, R. D. Lins, R. J. Littlefield,
      A. J. Logsdail, K. Lopata, W. Ma, A. V. Marenich, J. Martin del Campo,
   D. Mejia-Rodriguez, J. E. Moore, J. M. Mullin, T. Nakajima, D. R. Nascimento,
    J. A. Nichols, P. J. Nichols, J. Nieplocha, A. Otero-de-la-Roza, B. Palmer,
    A. Panyala, T. Pirojsirikul, B. Peng, R. Peverati, J. Pittner, L. Pollack,
   R. M. Richard, P. Sadayappan, G. C. Schatz, W. A. Shelton, D. W. Silverstein,
   D. M. A. Smith, T. A. Soares, D. Song, M. Swart, H. L. Taylor, G. S. Thomas,
            V. Tipparaju, D. G. Truhlar, K. Tsemekhman, T. Van Voorhis,
     . Vzquez-Mayagoitia, P. Verma, O. Villa, A. Vishnu, K. D. Vogiatzis,
        D. Wang, J. H. Weare, M. J. Williamson, T. L. Windus, K. Woliski,
        A. T. Wong, Q. Wu, C. Yang, Q. Yu, M. Zacharias, Z. Zhang, Y. Zhao,
                                and R. J. Harrison
                        "NWChem: Past, present, and future
                         J. Chem. Phys. 152, 184102 (2020)
                               doi:10.1063/5.0004997

                                      AUTHORS
                                      -------
     E. Apra, E. J. Bylaska, N. Govind, K. Kowalski, M. Valiev, W. A. de Jong,
      T. P. Straatsma, H. J. J. van Dam, D. Wang, T. L. Windus, N. P. Bauman,
       A. Panyala, J. Hammond, J. Autschbach, K. Bhaskaran-Nair, J. Brabec,
    K. Lopata, S. A. Fischer, S. Krishnamoorthy, M. Jacquelin, W. Ma, M. Klemm,
       O. Villa, Y. Chen, V. Anisimov, F. Aquino, S. Hirata, M. T. Hackler,
           Eric Hermes, L. Jensen, J. E. Moore, J. C. Becca, V. Konjkov,
            D. Mejia-Rodriguez, T. Risthaus, M. Malagoli, A. Marenich,
   A. Otero-de-la-Roza, J. Mullin, P. Nichols, R. Peverati, J. Pittner, Y. Zhao,
        P.-D. Fan, A. Fonari, M. J. Williamson, R. J. Harrison, J. R. Rehr,
      M. Dupuis, D. Silverstein, D. M. A. Smith, J. Nieplocha, V. Tipparaju,
      M. Krishnan, B. E. Van Kuiken, A. Vazquez-Mayagoitia, M. Swart, Q. Wu,
   T. Van Voorhis, A. A. Auer, M. Nooijen, L. D. Crosby, E. Brown, G. Cisneros,
     G. I. Fann, H. Fruchtl, J. Garza, K. Hirao, R. A. Kendall, J. A. Nichols,
       K. Tsemekhman, K. Wolinski, J. Anchell, D. E. Bernholdt, P. Borowski,
       T. Clark, D. Clerc, H. Dachsel, M. J. O. Deegan, K. Dyall, D. Elwood,
      E. Glendening, M. Gutowski, A. C. Hess, J. Jaffe, B. G. Johnson, J. Ju,
        R. Kobayashi, R. Kutteh, Z. Lin, R. Littlefield, X. Long, B. Meng,
      T. Nakajima, S. Niu, L. Pollack, M. Rosing, K. Glaesemann, G. Sandrone,
      M. Stave, H. Taylor, G. Thomas, J. H. van Lenthe, A. T. Wong, Z. Zhang.

 Total times  cpu:      405.9s     wall:      406.5s
