 argument  1 = dvb_dispersion_bp86_d3zero.in
                                         
                                         
 
 
             Northwest Computational Chemistry Package (NWChem) 7.0.0
             --------------------------------------------------------
 
 
                    Environmental Molecular Sciences Laboratory
                       Pacific Northwest National Laboratory
                                Richland, WA 99352
 
                              Copyright (c) 1994-2019
                       Pacific Northwest National Laboratory
                            Battelle Memorial Institute
 
             NWChem is an open-source computational chemistry package
                        distributed under the terms of the
                      Educational Community License (ECL) 2.0
             A copy of the license is included with this distribution
                              in the LICENSE.TXT file
 
                                  ACKNOWLEDGMENT
                                  --------------

            This software and its documentation were developed at the
            EMSL at Pacific Northwest National Laboratory, a multiprogram
            national laboratory, operated for the U.S. Department of Energy
            by Battelle under Contract Number DE-AC05-76RL01830. Support
            for this work was provided by the Department of Energy Office
            of Biological and Environmental Research, Office of Basic
            Energy Sciences, and the Office of Advanced Scientific Computing.


           Job information
           ---------------

    hostname        = smp-n17.sam.pitt.edu
    program         = /ihome/kjordan/shu8/software/source/nwchem/nwchem-7.0.0/bin/LINUX64/nwchem
    date            = Tue Sep 20 18:21:00 2022

    compiled        = Wed_May_13_13:33:26_2020
    source          = /ihome/kjordan/shu8/software/source/nwchem/nwchem-7.0.0
    nwchem branch   = 7.0.0
    nwchem revision = N/A
    ga revision     = 5.7.1
    use scalapack   = F
    input           = dvb_dispersion_bp86_d3zero.in
    prefix          = dvb_dispersion_bp86_d3zero.
    data base       = ./dvb_dispersion_bp86_d3zero.db
    status          = startup
    nproc           =        4
    time left       =     -1s



           Memory information
           ------------------

    heap     =   13107194 doubles =    100.0 Mbytes
    stack    =   13107199 doubles =    100.0 Mbytes
    global   =   26214400 doubles =    200.0 Mbytes (distinct from heap & stack)
    total    =   52428793 doubles =    400.0 Mbytes
    verify   = yes
    hardfail = no 


           Directory information
           ---------------------
 
  0 permanent = .
  0 scratch   = .
 
 
 
 
                                NWChem Input Module
                                -------------------
 
 

 Scaling coordinates for geometry "geometry" by  1.889725989
 (inverse scale =  0.529177249)

 C2H symmetry detected

          ------
          auto-z
          ------
  no constraints, skipping   0.000000000000000E+000
  no constraints, skipping   0.000000000000000E+000
 
 
                             Geometry "geometry" -> ""
                             -------------------------
 
 Output coordinates in angstroms (scale by  1.889725989 to convert to a.u.)
 
  No.       Tag          Charge          X              Y              Z
 ---- ---------------- ---------- -------------- -------------- --------------
    1 C                    6.0000     0.27053273    -1.36846738     0.00000000
    2 C                    6.0000     1.32037565    -0.44960880     0.00000000
    3 C                    6.0000     1.04983558     0.91861252     0.00000000
    4 C                    6.0000    -0.27053273     1.36846738     0.00000000
    5 C                    6.0000    -1.32037565     0.44960880     0.00000000
    6 C                    6.0000    -1.04983558    -0.91861252     0.00000000
    7 H                    1.0000     2.36120442    -0.80445651     0.00000000
    8 H                    1.0000     1.87728066     1.64292672     0.00000000
    9 H                    1.0000    -2.36120442     0.80445651     0.00000000
   10 H                    1.0000    -1.87728066    -1.64292672     0.00000000
   11 C                    6.0000    -0.56945042     2.87934244     0.00000000
   12 C                    6.0000     0.38613543     3.79853150     0.00000000
   13 H                    1.0000    -1.63783991     3.13375483     0.00000000
   14 H                    1.0000     0.17334345     4.87598630     0.00000000
   15 H                    1.0000     1.45452493     3.54411910     0.00000000
   16 C                    6.0000     0.56945042    -2.87934244     0.00000000
   17 C                    6.0000    -0.38613543    -3.79853150     0.00000000
   18 H                    1.0000     1.63783991    -3.13375483     0.00000000
   19 H                    1.0000    -0.17334345    -4.87598630     0.00000000
   20 H                    1.0000    -1.45452493    -3.54411910     0.00000000
 
      Atomic Mass 
      ----------- 
 
      C                 12.000000
      H                  1.007825
 

 Effective nuclear repulsion energy (a.u.)     450.0061706802

            Nuclear Dipole moment (a.u.) 
            ----------------------------
        X                 Y               Z
 ---------------- ---------------- ----------------
    -0.0000000000     0.0000000000     0.0000000000
 
      Symmetry information
      --------------------
 
 Group name             C2h       
 Group number             21
 Group order               4
 No. of unique centers    10
 
      Symmetry unique atoms
 
     1    2    3    7    8   11   12   13   14   15
 


                                Z-matrix (autoz)
                                -------- 

 Units are Angstrom for bonds and degrees for angles
 
      Type          Name      I     J     K     L     M      Value
      ----------- --------  ----- ----- ----- ----- ----- ----------
    1 Stretch                  1     2                       1.39516
    2 Stretch                  1     6                       1.39490
    3 Stretch                  1    16                       1.54016
    4 Stretch                  2     3                       1.39471
    5 Stretch                  2     7                       1.09966
    6 Stretch                  3     4                       1.39490
    7 Stretch                  3     8                       1.09968
    8 Stretch                  4     5                       1.39516
    9 Stretch                  4    11                       1.54016
   10 Stretch                  5     6                       1.39471
   11 Stretch                  5     9                       1.09966
   12 Stretch                  6    10                       1.09968
   13 Stretch                 11    12                       1.32592
   14 Stretch                 11    13                       1.09826
   15 Stretch                 12    14                       1.09827
   16 Stretch                 12    15                       1.09826
   17 Stretch                 16    17                       1.32592
   18 Stretch                 16    18                       1.09826
   19 Stretch                 17    19                       1.09827
   20 Stretch                 17    20                       1.09826
   21 Bend                     1     2     3               120.00864
   22 Bend                     1     2     7               119.98079
   23 Bend                     1     6     5               119.99907
   24 Bend                     1     6    10               119.98814
   25 Bend                     1    16    17               122.69669
   26 Bend                     1    16    18               114.58533
   27 Bend                     2     1     6               119.99229
   28 Bend                     2     1    16               120.00242
   29 Bend                     2     3     4               119.99907
   30 Bend                     2     3     8               120.01279
   31 Bend                     3     2     7               120.01057
   32 Bend                     3     4     5               119.99229
   33 Bend                     3     4    11               120.00529
   34 Bend                     4     3     8               119.98814
   35 Bend                     4     5     6               120.00864
   36 Bend                     4     5     9               119.98079
   37 Bend                     4    11    12               122.69669
   38 Bend                     4    11    13               114.58533
   39 Bend                     5     4    11               120.00242
   40 Bend                     5     6    10               120.01279
   41 Bend                     6     1    16               120.00529
   42 Bend                     6     5     9               120.01057
   43 Bend                    11    12    14               122.71594
   44 Bend                    11    12    15               122.71798
   45 Bend                    12    11    13               122.71798
   46 Bend                    14    12    15               114.56608
   47 Bend                    16    17    19               122.71594
   48 Bend                    16    17    20               122.71798
   49 Bend                    17    16    18               122.71798
   50 Bend                    19    17    20               114.56608
   51 Torsion                  1     2     3     4           0.00000
   52 Torsion                  1     2     3     8         180.00000
   53 Torsion                  1     6     5     4           0.00000
   54 Torsion                  1     6     5     9         180.00000
   55 Torsion                  1    16    17    19         180.00000
   56 Torsion                  1    16    17    20           0.00000
   57 Torsion                  2     1     6     5           0.00000
   58 Torsion                  2     1     6    10         180.00000
   59 Torsion                  2     1    16    17         180.00000
   60 Torsion                  2     1    16    18           0.00000
   61 Torsion                  2     3     4     5           0.00000
   62 Torsion                  2     3     4    11         180.00000
   63 Torsion                  3     2     1     6           0.00000
   64 Torsion                  3     2     1    16         180.00000
   65 Torsion                  3     4     5     6           0.00000
   66 Torsion                  3     4     5     9         180.00000
   67 Torsion                  3     4    11    12           0.00000
   68 Torsion                  3     4    11    13         180.00000
   69 Torsion                  4     3     2     7         180.00000
   70 Torsion                  4     5     6    10         180.00000
   71 Torsion                  4    11    12    14         180.00000
   72 Torsion                  4    11    12    15           0.00000
   73 Torsion                  5     4     3     8         180.00000
   74 Torsion                  5     4    11    12         180.00000
   75 Torsion                  5     4    11    13           0.00000
   76 Torsion                  5     6     1    16         180.00000
   77 Torsion                  6     1     2     7         180.00000
   78 Torsion                  6     1    16    17           0.00000
   79 Torsion                  6     1    16    18         180.00000
   80 Torsion                  6     5     4    11         180.00000
   81 Torsion                  7     2     1    16           0.00000
   82 Torsion                  7     2     3     8           0.00000
   83 Torsion                  8     3     4    11           0.00000
   84 Torsion                  9     5     4    11           0.00000
   85 Torsion                  9     5     6    10           0.00000
   86 Torsion                 10     6     1    16           0.00000
   87 Torsion                 13    11    12    14           0.00000
   88 Torsion                 13    11    12    15         180.00000
   89 Torsion                 18    16    17    19           0.00000
   90 Torsion                 18    16    17    20         180.00000
 
 
            XYZ format geometry
            -------------------
    20
 geometry
 C                     0.27053273    -1.36846738     0.00000000
 C                     1.32037565    -0.44960880     0.00000000
 C                     1.04983558     0.91861252     0.00000000
 C                    -0.27053273     1.36846738     0.00000000
 C                    -1.32037565     0.44960880     0.00000000
 C                    -1.04983558    -0.91861252     0.00000000
 H                     2.36120442    -0.80445651     0.00000000
 H                     1.87728066     1.64292672     0.00000000
 H                    -2.36120442     0.80445651     0.00000000
 H                    -1.87728066    -1.64292672     0.00000000
 C                    -0.56945042     2.87934244     0.00000000
 C                     0.38613543     3.79853150     0.00000000
 H                    -1.63783991     3.13375483     0.00000000
 H                     0.17334345     4.87598630     0.00000000
 H                     1.45452493     3.54411910     0.00000000
 C                     0.56945042    -2.87934244     0.00000000
 C                    -0.38613543    -3.79853150     0.00000000
 H                     1.63783991    -3.13375483     0.00000000
 H                    -0.17334345    -4.87598630     0.00000000
 H                    -1.45452493    -3.54411910     0.00000000
 
 ==============================================================================
                                internuclear distances
 ------------------------------------------------------------------------------
       center one      |      center two      | atomic units |  angstroms
 ------------------------------------------------------------------------------
    2 C                |   1 C                |     2.63647  |     1.39516
    3 C                |   2 C                |     2.63562  |     1.39471
    4 C                |   3 C                |     2.63598  |     1.39490
    5 C                |   4 C                |     2.63647  |     1.39516
    6 C                |   1 C                |     2.63598  |     1.39490
    6 C                |   5 C                |     2.63562  |     1.39471
    7 H                |   2 C                |     2.07805  |     1.09966
    8 H                |   3 C                |     2.07809  |     1.09968
    9 H                |   5 C                |     2.07805  |     1.09966
   10 H                |   6 C                |     2.07809  |     1.09968
   11 C                |   4 C                |     2.91048  |     1.54016
   12 C                |  11 C                |     2.50562  |     1.32592
   13 H                |  11 C                |     2.07542  |     1.09826
   14 H                |  12 C                |     2.07542  |     1.09827
   15 H                |  12 C                |     2.07542  |     1.09826
   16 C                |   1 C                |     2.91048  |     1.54016
   17 C                |  16 C                |     2.50562  |     1.32592
   18 H                |  16 C                |     2.07542  |     1.09826
   19 H                |  17 C                |     2.07542  |     1.09827
   20 H                |  17 C                |     2.07542  |     1.09826
 ------------------------------------------------------------------------------
                         number of included internuclear distances:         20
 ==============================================================================



 ==============================================================================
                                 internuclear angles
 ------------------------------------------------------------------------------
        center 1       |       center 2       |       center 3       |  degrees
 ------------------------------------------------------------------------------
    2 C                |   1 C                |   6 C                |   119.99
    2 C                |   1 C                |  16 C                |   120.00
    6 C                |   1 C                |  16 C                |   120.01
    1 C                |   2 C                |   3 C                |   120.01
    1 C                |   2 C                |   7 H                |   119.98
    3 C                |   2 C                |   7 H                |   120.01
    2 C                |   3 C                |   4 C                |   120.00
    2 C                |   3 C                |   8 H                |   120.01
    4 C                |   3 C                |   8 H                |   119.99
    3 C                |   4 C                |   5 C                |   119.99
    3 C                |   4 C                |  11 C                |   120.01
    5 C                |   4 C                |  11 C                |   120.00
    4 C                |   5 C                |   6 C                |   120.01
    4 C                |   5 C                |   9 H                |   119.98
    6 C                |   5 C                |   9 H                |   120.01
    1 C                |   6 C                |   5 C                |   120.00
    1 C                |   6 C                |  10 H                |   119.99
    5 C                |   6 C                |  10 H                |   120.01
    4 C                |  11 C                |  12 C                |   122.70
    4 C                |  11 C                |  13 H                |   114.59
   12 C                |  11 C                |  13 H                |   122.72
   11 C                |  12 C                |  14 H                |   122.72
   11 C                |  12 C                |  15 H                |   122.72
   14 H                |  12 C                |  15 H                |   114.57
    1 C                |  16 C                |  17 C                |   122.70
    1 C                |  16 C                |  18 H                |   114.59
   17 C                |  16 C                |  18 H                |   122.72
   16 C                |  17 C                |  19 H                |   122.72
   16 C                |  17 C                |  20 H                |   122.72
   19 H                |  17 C                |  20 H                |   114.57
 ------------------------------------------------------------------------------
                            number of included internuclear angles:         30
 ==============================================================================





 Summary of "ao basis" -> "" (cartesian)
 ------------------------------------------------------------------------------
       Tag                 Description            Shells   Functions and Types
 ---------------- ------------------------------  ------  ---------------------
 *                           sto-3g                   on all atoms 


  perdew86 is a nonlocal functional; adding perdew81 local functional. 
                              NWChem Property Module
                              ----------------------
 
 
 
                                 NWChem DFT Module
                                 -----------------
 
 
                      Basis "ao basis" -> "ao basis" (cartesian)
                      -----
  C (Carbon)
  ----------
            Exponent  Coefficients 
       -------------- ---------------------------------------------------------
  1 S  7.16168370E+01  0.154329
  1 S  1.30450960E+01  0.535328
  1 S  3.53051220E+00  0.444635
 
  2 S  2.94124940E+00 -0.099967
  2 S  6.83483100E-01  0.399513
  2 S  2.22289900E-01  0.700115
 
  3 P  2.94124940E+00  0.155916
  3 P  6.83483100E-01  0.607684
  3 P  2.22289900E-01  0.391957
 
  H (Hydrogen)
  ------------
            Exponent  Coefficients 
       -------------- ---------------------------------------------------------
  1 S  3.42525091E+00  0.154329
  1 S  6.23913730E-01  0.535328
  1 S  1.68855400E-01  0.444635
 


 Summary of "ao basis" -> "ao basis" (cartesian)
 ------------------------------------------------------------------------------
       Tag                 Description            Shells   Functions and Types
 ---------------- ------------------------------  ------  ---------------------
 C                           sto-3g                  3        5   2s1p
 H                           sto-3g                  1        1   1s




 Summary of "ao basis" -> "ao basis" (cartesian)
 ------------------------------------------------------------------------------
       Tag                 Description            Shells   Functions and Types
 ---------------- ------------------------------  ------  ---------------------
 C                           sto-3g                  3        5   2s1p
 H                           sto-3g                  1        1   1s


      Symmetry analysis of basis
      --------------------------
 
        ag         25
        au          5
        bg          5
        bu         25
 
  Caching 1-el integrals 
 
            General Information
            -------------------
          SCF calculation type: DFT
          Wavefunction type:  closed shell.
          No. of atoms     :    20
          No. of electrons :    70
           Alpha electrons :    35
            Beta electrons :    35
          Charge           :     0
          Spin multiplicity:     1
          Use of symmetry is: on ; symmetry adaption is: on 
          Maximum number of iterations:  30
          This is a Direct SCF calculation.
          AO basis - number of functions:    60
                     number of shells:    40
          Convergence on energy requested:  1.00D-07
          Convergence on density requested:  1.00D-05
          Convergence on gradient requested:  5.00D-04
 
              XC Information
              --------------
                    Becke 1988 Exchange Functional  1.000          
                Perdew 1981 Correlation Functional  1.000 local    
                Perdew 1986 Correlation Functional  1.000 non-local
 
             Grid Information
             ----------------
          Grid used for XC integration:  fine      
          Radial quadrature: Mura-Knowles        
          Angular quadrature: Lebedev. 
          Tag              B.-S. Rad. Rad. Pts. Rad. Cut. Ang. Pts.
          ---              ---------- --------- --------- ---------
          C                   0.70       70          13.0       590
          H                   0.35       60          13.0       590
          Grid pruning is: on 
          Number of quadrature shells:   650
          Spatial weights used:  Erf1
 
          Convergence Information
          -----------------------
          Convergence aids based upon iterative change in 
          total energy or number of iterations. 
          Levelshifting, if invoked, occurs when the 
          HOMO/LUMO gap drops below (HL_TOL):  1.00D-02
          DIIS, if invoked, will attempt to extrapolate 
          using up to (NFOCK): 10 stored Fock matrices.

                    Damping( 0%)  Levelshifting(0.5)       DIIS
                  --------------- ------------------- ---------------
          dE  on:    start            ASAP                start   
          dE off:    2 iters         30 iters            30 iters 

 
      Screening Tolerance Information
      -------------------------------
          Density screening/tol_rho:  1.00D-11
          AO Gaussian exp screening on grid/accAOfunc:  16
          CD Gaussian exp screening on grid/accCDfunc:  20
          XC Gaussian exp screening on grid/accXCfunc:  20
          Schwarz screening/accCoul:  1.00D-08

      Dispersion Parameters
      ---------------------

             DFT-D3 Model   
          s8 scale factor  :        1.000000000000
          sr6 scale factor :        1.683000000000
          sr8 scale factor :        1.139000000000
              vdW contrib  :        1.000000000000


             DFT-D3 Model   
          s8 scale factor  :       -0.014719930985
          sr6 scale factor :

 global array: Temp Over[1:60,1:60],  handle: -989 

            1           2           3           4           5           6  
       ----------- ----------- ----------- ----------- ----------- -----------
   1       1.00000     0.24836    -0.00000    -0.00000     0.00000     0.00000
   2       0.24836     1.00000    -0.00000     0.00000     0.00000     0.03795
   3      -0.00000    -0.00000     1.00000    -0.00000     0.00000     0.04734
   4      -0.00000     0.00000    -0.00000     1.00000     0.00000     0.04144
   5       0.00000     0.00000     0.00000     0.00000     1.00000     0.00000
   6       0.00000     0.03795     0.04734     0.04144     0.00000     1.00000
   7       0.03795     0.36707     0.29320     0.25662     0.00000     0.24836
   8      -0.04734    -0.29320    -0.09256    -0.26910     0.00000     0.00000
   9      -0.04144    -0.25662    -0.26910    -0.02063     0.00000    -0.00000
  10       0.00000     0.00000     0.00000     0.00000     0.21490     0.00000
  11       0.00000     0.00184     0.00137     0.00402     0.00000     0.00000
  12       0.00184     0.06128     0.02907     0.08533     0.00000     0.03799
  13      -0.00137    -0.02907     0.01043    -0.04470     0.00000     0.01222
  14      -0.00402    -0.08533    -0.04470    -0.10553     0.00000    -0.06179
  15       0.00000     0.00000     0.00000     0.00000     0.02566     0.00000
  16       0.00000     0.00042    -0.00022     0.00110     0.00000     0.00000
  17       0.00042     0.02638    -0.00822     0.04158     0.00000     0.00184
  18       0.00022     0.00822     0.00743     0.01397     0.00000     0.00280
  19      -0.00110    -0.04158     0.01397    -0.06047     0.00000    -0.00320
  20       0.00000     0.00000     0.00000     0.00000     0.01019     0.00000
  21       0.00000     0.00184    -0.00280     0.00320     0.00000     0.00000
  22       0.00184     0.06132    -0.05940     0.06788     0.00000     0.00042
  23       0.00280     0.05940    -0.03785     0.07261     0.00000     0.00106
  24      -0.00320    -0.06788     0.07261    -0.05729     0.00000    -0.00036
  25       0.00000     0.00000     0.00000     0.00000     0.02568     0.00000
  26       0.00000     0.03797    -0.05959     0.02030     0.00000     0.00000
  27       0.03797     0.36720    -0.36891     0.12569     0.00000     0.00184
  28       0.05959     0.36891    -0.27161     0.16579     0.00000     0.00416
  29      -0.02030    -0.12569     0.16579     0.15852     0.00000     0.00082
  30       0.00000     0.00000     0.00000     0.00000     0.21500     0.00000
  31       0.00529     0.09559     0.11933     0.03219     0.00000     0.06089
  32       0.00009     0.00644     0.00503     0.00943     0.00000     0.00529
  33       0.00009     0.00645    -0.00825     0.00681     0.00000     0.00001
  34       0.00529     0.09561    -0.12263    -0.01567     0.00000     0.00009
  35       0.00000     0.00000    -0.00000     0.00000     0.00000     0.00000
  36       0.00000     0.00029    -0.00013     0.00063     0.00000     0.00000
  37       0.00000     0.00013     0.00004     0.00027     0.00000     0.00000
  38      -0.00000    -0.00063     0.00027    -0.00129     0.00000    -0.00001
  39       0.00000     0.00000     0.00000     0.00000     0.00009     0.00000
  40       0.00000     0.00000     0.00000     0.00000     0.00000     0.00000
  41       0.00000     0.00001     0.00000     0.00003     0.00000     0.00000
  42      -0.00000    -0.00000     0.00000    -0.00000     0.00000     0.00000
  43      -0.00000    -0.00003    -0.00000    -0.00008     0.00000    -0.00000
  44       0.00000     0.00000     0.00000     0.00000     0.00000     0.00000
  45       0.00000     0.00009    -0.00007     0.00017     0.00000     0.00000
  46       0.00000     0.00000    -0.00000     0.00000     0.00000     0.00000
  47       0.00000     0.00005     0.00003     0.00011     0.00000     0.00001
  48       0.00000     0.02659     0.00865    -0.04374     0.00000     0.00000
  49       0.02659     0.29849     0.06528    -0.32997     0.00000     0.00114
  50      -0.00865    -0.06528     0.14628     0.09109     0.00000     0.00082
  51       0.04374     0.32997     0.09109    -0.29609     0.00000     0.00265
  52       0.00000     0.00000     0.00000     0.00000     0.16431     0.00000
  53       0.00000     0.00126    -0.00079    -0.00292     0.00000     0.00000
  54       0.00126     0.04927    -0.01938    -0.07173     0.00000     0.00000
  55       0.00079     0.01938     0.01180    -0.03093     0.00000     0.00001
  56       0.00292     0.07173    -0.03093    -0.09432     0.00000     0.00001
  57       0.00000     0.00000     0.00000     0.00000     0.02015     0.00000
  58       0.00444     0.08438     0.06788    -0.08763     0.00000     0.00115
  59       0.00006     0.00473    -0.00101    -0.00795     0.00000     0.00000
  60       0.00091     0.02827    -0.02594    -0.03271     0.00000     0.00000

            7           8           9          10          11          12  
       ----------- ----------- ----------- ----------- ----------- -----------
   1       0.03795    -0.04734    -0.04144     0.00000     0.00000     0.00184
   2       0.36707    -0.29320    -0.25662     0.00000     0.00184     0.06128
   3       0.29320    -0.09256    -0.26910     0.00000     0.00137     0.02907
   4       0.25662    -0.26910    -0.02063     0.00000     0.00402     0.08533
   5       0.00000     0.00000     0.00000     0.21490     0.00000     0.00000
   6       0.24836     0.00000    -0.00000     0.00000     0.00000     0.03799
   7       1.00000     0.00000    -0.00000     0.00000     0.03799     0.36730
   8       0.00000     1.00000    -0.00000     0.00000    -0.01222    -0.07561
   9      -0.00000    -0.00000     1.00000     0.00000     0.06179     0.38240
  10       0.00000     0.00000     0.00000     1.00000     0.00000     0.00000
  11       0.03799    -0.01222     0.06179     0.00000     1.00000     0.24836
  12       0.36730    -0.07561     0.38240     0.00000     0.24836     1.00000
  13       0.07561     0.19464     0.10336     0.00000    -0.00000     0.00000
  14      -0.38240     0.10336    -0.30767     0.00000     0.00000     0.00000
  15       0.00000     0.00000     0.00000     0.21508     0.00000     0.00000
  16       0.00184    -0.00280     0.00320     0.00000     0.00000     0.03797
  17       0.06132    -0.05940     0.06788     0.00000     0.03797     0.36720
  18       0.05940    -0.03785     0.07261     0.00000     0.05959     0.36891
  19      -0.06788     0.07261    -0.05729     0.00000    -0.02030    -0.12569
  20       0.00000     0.00000     0.00000     0.02568     0.00000     0.00000
  21       0.00042    -0.00106     0.00036     0.00000     0.00000     0.00184
  22       0.02640    -0.04014     0.01367     0.00000     0.00184     0.06128
  23       0.04014    -0.05563     0.02241     0.00000     0.00416     0.08844
  24      -0.01367     0.02241     0.00256     0.00000     0.00082     0.01750
  25       0.00000     0.00000     0.00000     0.01019     0.00000     0.00000
  26       0.00184    -0.00416    -0.00082     0.00000     0.00000     0.00042
  27       0.06128    -0.08844    -0.01750     0.00000     0.00042     0.02638
  28       0.08844    -0.11525    -0.02788     0.00000     0.00084     0.03189
  29       0.01750    -0.02788     0.02015     0.00000     0.00074     0.02790
  30       0.00000     0.00000     0.00000     0.02566     0.00000     0.00000
  31       0.48521     0.43912    -0.14971     0.00000     0.00529     0.09560
  32       0.09560     0.03179     0.11945     0.00000     0.06088     0.48520
  33       0.00185    -0.00315     0.00107     0.00000     0.00009     0.00645
  34       0.00645    -0.01001    -0.00374     0.00000     0.00001     0.00185
  35       0.00000    -0.00000     0.00001     0.00000     0.00000     0.00114
  36       0.00153    -0.00150     0.00264     0.00000     0.00114     0.04655
  37       0.00150    -0.00101     0.00267     0.00000     0.00176     0.04498
  38      -0.00264     0.00267    -0.00420     0.00000    -0.00214    -0.05447
  39       0.00000     0.00000     0.00000     0.00051     0.00000     0.00000
  40       0.00000    -0.00000     0.00000     0.00000     0.00000     0.00021
  41       0.00027    -0.00013     0.00059     0.00000     0.00021     0.01761
  42       0.00013     0.00003     0.00028     0.00000     0.00013     0.00659
  43      -0.00059     0.00028    -0.00120     0.00000    -0.00056    -0.02858
  44       0.00000     0.00000     0.00000     0.00009     0.00000     0.00000
  45       0.00019    -0.00025     0.00031     0.00000     0.00007     0.00541
  46       0.00001    -0.00001     0.00003     0.00000     0.00001     0.00117
  47       0.00137     0.00008     0.00251     0.00000     0.00133     0.03648
  48       0.00114    -0.00082    -0.00265     0.00000     0.00000     0.00000
  49       0.04653    -0.02085    -0.06747     0.00000     0.00000     0.00153
  50       0.02085     0.00870    -0.03308     0.00000     0.00000     0.00038
  51       0.06747    -0.03308    -0.08812     0.00000     0.00001     0.00301
  52       0.00000     0.00000     0.00000     0.01893     0.00000     0.00000
  53       0.00000    -0.00001    -0.00001     0.00000     0.00000     0.00000
  54       0.00189    -0.00169    -0.00331     0.00000     0.00000     0.00003
  55       0.00169    -0.00091    -0.00304     0.00000     0.00000     0.00002
  56       0.00331    -0.00304    -0.00533     0.00000     0.00000     0.00008
  57       0.00000     0.00000     0.00000     0.00063     0.00000     0.00000
  58       0.03309     0.00566    -0.04782     0.00000     0.00000     0.00104
  59       0.00018    -0.00012    -0.00035     0.00000     0.00000     0.00000
  60       0.00087    -0.00109    -0.00121     0.00000     0.00000     0.00004

           13          14          15          16          17          18  
       ----------- ----------- ----------- ----------- ----------- -----------
   1      -0.00137    -0.00402     0.00000     0.00000     0.00042     0.00022
   2      -0.02907    -0.08533     0.00000     0.00042     0.02638     0.00822
   3       0.01043    -0.04470     0.00000    -0.00022    -0.00822     0.00743
   4      -0.04470    -0.10553     0.00000     0.00110     0.04158     0.01397
   5       0.00000     0.00000     0.02566     0.00000     0.00000     0.00000
   6       0.01222    -0.06179     0.00000     0.00000     0.00184     0.00280
   7       0.07561    -0.38240     0.00000     0.00184     0.06132     0.05940
   8       0.19464     0.10336     0.00000    -0.00280    -0.05940    -0.03785
   9       0.10336    -0.30767     0.00000     0.00320     0.06788     0.07261
  10       0.00000     0.00000     0.21508     0.00000     0.00000     0.00000
  11      -0.00000     0.00000     0.00000     0.00000     0.03797     0.05959
  12       0.00000     0.00000     0.00000     0.03797     0.36720     0.36891
  13       1.00000     0.00000     0.00000    -0.05959    -0.36891    -0.27161
  14       0.00000     1.00000     0.00000     0.02030     0.12569     0.16579
  15       0.00000     0.00000     1.00000     0.00000     0.00000     0.00000
  16      -0.05959     0.02030     0.00000     1.00000     0.24836     0.00000
  17      -0.36891     0.12569     0.00000     0.24836     1.00000     0.00000
  18      -0.27161     0.16579     0.00000     0.00000     0.00000     1.00000
  19       0.16579     0.15852     0.00000     0.00000    -0.00000    -0.00000
  20       0.00000     0.00000     0.21500     0.00000     0.00000     0.00000
  21      -0.00416    -0.00082     0.00000     0.00000     0.03795    -0.04734
  22      -0.08844    -0.01750     0.00000     0.03795     0.36707    -0.29320
  23      -0.11525    -0.02788     0.00000     0.04734     0.29320    -0.09256
  24      -0.02788     0.02015     0.00000     0.04144     0.25662    -0.26910
  25       0.00000     0.00000     0.02566     0.00000     0.00000     0.00000
  26      -0.00084    -0.00074     0.00000     0.00000     0.00184    -0.00137
  27      -0.03189    -0.02790     0.00000     0.00184     0.06128    -0.02907
  28      -0.03139    -0.03638     0.00000     0.00137     0.02907     0.01043
  29      -0.03638    -0.02164     0.00000     0.00402     0.08533    -0.04470
  30       0.00000     0.00000     0.01019     0.00000     0.00000     0.00000
  31       0.07487    -0.09837     0.00000     0.00009     0.00645     0.00825
  32       0.34908     0.30557     0.00000     0.00529     0.09561     0.12263
  33      -0.01069    -0.00036     0.00000     0.00529     0.09559    -0.11933
  34      -0.00250    -0.00219     0.00000     0.00009     0.00644    -0.00503
  35      -0.00176     0.00214     0.00000     0.00000     0.02659    -0.00865
  36      -0.04498     0.05447     0.00000     0.02659     0.29849    -0.06528
  37      -0.02863     0.05760     0.00000     0.00865     0.06528     0.14628
  38       0.05760    -0.05081     0.00000    -0.04374    -0.32997     0.09109
  39       0.00000     0.00000     0.01893     0.00000     0.00000     0.00000
  40      -0.00013     0.00056     0.00000     0.00000     0.00126     0.00079
  41      -0.00659     0.02858     0.00000     0.00126     0.04927     0.01938
  42       0.00396     0.01143     0.00000    -0.00079    -0.01938     0.01180
  43       0.01143    -0.04299     0.00000    -0.00292    -0.07173    -0.03093
  44       0.00000     0.00000     0.00659     0.00000     0.00000     0.00000
  45      -0.00701     0.00577     0.00000     0.00444     0.08438    -0.06788
  46      -0.00047     0.00211     0.00000     0.00006     0.00473     0.00101
  47       0.00801     0.05197     0.00000     0.00091     0.02827     0.02594
  48      -0.00000    -0.00001     0.00000     0.00000     0.00000     0.00000
  49      -0.00038    -0.00301     0.00000     0.00000     0.00029     0.00013
  50       0.00041    -0.00077     0.00000    -0.00000    -0.00013     0.00004
  51      -0.00077    -0.00561     0.00000     0.00000     0.00063     0.00027
  52       0.00000     0.00000     0.00051     0.00000     0.00000     0.00000
  53      -0.00000    -0.00000     0.00000     0.00000     0.00000    -0.00000
  54      -0.00002    -0.00008     0.00000     0.00000     0.00001    -0.00000
  55      -0.00001    -0.00005     0.00000     0.00000     0.00000     0.00000
  56      -0.00005    -0.00017     0.00000     0.00000     0.00003    -0.00000
  57       0.00000     0.00000     0.00001     0.00000     0.00000     0.00000
  58       0.00028    -0.00191     0.00000     0.00000     0.00009     0.00007
  59      -0.00000    -0.00000     0.00000     0.00000     0.00000     0.00000
  60      -0.00004    -0.00008     0.00000     0.00000     0.00005    -0.00003

           19          20          21          22          23          24  
       ----------- ----------- ----------- ----------- ----------- -----------
   1      -0.00110     0.00000     0.00000     0.00184     0.00280    -0.00320
   2      -0.04158     0.00000     0.00184     0.06132     0.05940    -0.06788
   3       0.01397     0.00000    -0.00280    -0.05940    -0.03785     0.07261
   4      -0.06047     0.00000     0.00320     0.06788     0.07261    -0.05729
   5       0.00000     0.01019     0.00000     0.00000     0.00000     0.00000
   6      -0.00320     0.00000     0.00000     0.00042     0.00106    -0.00036
   7      -0.06788     0.00000     0.00042     0.02640     0.04014    -0.01367
   8       0.07261     0.00000    -0.00106    -0.04014    -0.05563     0.02241
   9      -0.05729     0.00000     0.00036     0.01367     0.02241     0.00256
  10       0.00000     0.02568     0.00000     0.00000     0.00000     0.00000
  11      -0.02030     0.00000     0.00000     0.00184     0.00416     0.00082
  12      -0.12569     0.00000     0.00184     0.06128     0.08844     0.01750
  13       0.16579     0.00000    -0.00416    -0.08844    -0.11525    -0.02788
  14       0.15852     0.00000    -0.00082    -0.01750    -0.02788     0.02015
  15       0.00000     0.21500     0.00000     0.00000     0.00000     0.00000
  16       0.00000     0.00000     0.00000     0.03795     0.04734     0.04144
  17      -0.00000     0.00000     0.03795     0.36707     0.29320     0.25662
  18      -0.00000     0.00000    -0.04734    -0.29320    -0.09256    -0.26910
  19       1.00000     0.00000    -0.04144    -0.25662    -0.26910    -0.02063
  20       0.00000     1.00000     0.00000     0.00000     0.00000     0.00000
  21      -0.04144     0.00000     1.00000     0.24836    -0.00000     0.00000
  22      -0.25662     0.00000     0.24836     1.00000    -0.00000     0.00000
  23      -0.26910     0.00000    -0.00000    -0.00000     1.00000    -0.00000
  24      -0.02063     0.00000     0.00000     0.00000    -0.00000     1.00000
  25       0.00000     0.21490     0.00000     0.00000     0.00000     0.00000
  26      -0.00402     0.00000     0.00000     0.03799     0.01222    -0.06179
  27      -0.08533     0.00000     0.03799     0.36730     0.07561    -0.38240
  28      -0.04470     0.00000    -0.01222    -0.07561     0.19464     0.10336
  29      -0.10553     0.00000     0.06179     0.38240     0.10336    -0.30767
  30       0.00000     0.02566     0.00000     0.00000     0.00000     0.00000
  31      -0.00681     0.00000     0.00001     0.00185     0.00315    -0.00107
  32       0.01567     0.00000     0.00009     0.00645     0.01001     0.00374
  33      -0.03219     0.00000     0.06089     0.48521    -0.43912     0.14971
  34      -0.00943     0.00000     0.00529     0.09560    -0.03179    -0.11945
  35       0.04374     0.00000     0.00000     0.00114     0.00082     0.00265
  36       0.32997     0.00000     0.00114     0.04653     0.02085     0.06747
  37       0.09109     0.00000    -0.00082    -0.02085     0.00870    -0.03308
  38      -0.29609     0.00000    -0.00265    -0.06747    -0.03308    -0.08812
  39       0.00000     0.16431     0.00000     0.00000     0.00000     0.00000
  40       0.00292     0.00000     0.00000     0.00000     0.00001     0.00001
  41       0.07173     0.00000     0.00000     0.00189     0.00169     0.00331
  42      -0.03093     0.00000    -0.00001    -0.00169    -0.00091    -0.00304
  43      -0.09432     0.00000    -0.00001    -0.00331    -0.00304    -0.00533
  44       0.00000     0.02015     0.00000     0.00000     0.00000     0.00000
  45       0.08763     0.00000     0.00115     0.03309    -0.00566     0.04782
  46       0.00795     0.00000     0.00000     0.00018     0.00012     0.00035
  47       0.03271     0.00000     0.00000     0.00087     0.00109     0.00121
  48      -0.00000     0.00000     0.00000     0.00000     0.00000    -0.00001
  49      -0.00063     0.00000     0.00000     0.00153     0.00150    -0.00264
  50       0.00027     0.00000    -0.00000    -0.00150    -0.00101     0.00267
  51      -0.00129     0.00000     0.00001     0.00264     0.00267    -0.00420
  52       0.00000     0.00009     0.00000     0.00000     0.00000     0.00000
  53      -0.00000     0.00000     0.00000     0.00000     0.00000    -0.00000
  54      -0.00003     0.00000     0.00000     0.00027     0.00013    -0.00059
  55      -0.00000     0.00000    -0.00000    -0.00013     0.00003     0.00028
  56      -0.00008     0.00000     0.00000     0.00059     0.00028    -0.00120
  57       0.00000     0.00000     0.00000     0.00000     0.00000     0.00000
  58      -0.00017     0.00000     0.00000     0.00019     0.00025    -0.00031
  59      -0.00000     0.00000     0.00000     0.00001     0.00001    -0.00003
  60      -0.00011     0.00000     0.00001     0.00137    -0.00008    -0.00251

           25          26          27          28          29          30  
       ----------- ----------- ----------- ----------- ----------- -----------
   1       0.00000     0.00000     0.03797     0.05959    -0.02030     0.00000
   2       0.00000     0.03797     0.36720     0.36891    -0.12569     0.00000
   3       0.00000    -0.05959    -0.36891    -0.27161     0.16579     0.00000
   4       0.00000     0.02030     0.12569     0.16579     0.15852     0.00000
   5       0.02568     0.00000     0.00000     0.00000     0.00000     0.21500
   6       0.00000     0.00000     0.00184     0.00416     0.00082     0.00000
   7       0.00000     0.00184     0.06128     0.08844     0.01750     0.00000
   8       0.00000    -0.00416    -0.08844    -0.11525    -0.02788     0.00000
   9       0.00000    -0.00082    -0.01750    -0.02788     0.02015     0.00000
  10       0.01019     0.00000     0.00000     0.00000     0.00000     0.02566
  11       0.00000     0.00000     0.00042     0.00084     0.00074     0.00000
  12       0.00000     0.00042     0.02638     0.03189     0.02790     0.00000
  13       0.00000    -0.00084    -0.03189    -0.03139    -0.03638     0.00000
  14       0.00000    -0.00074    -0.02790    -0.03638    -0.02164     0.00000
  15       0.02566     0.00000     0.00000     0.00000     0.00000     0.01019
  16       0.00000     0.00000     0.00184     0.00137     0.00402     0.00000
  17       0.00000     0.00184     0.06128     0.02907     0.08533     0.00000
  18       0.00000    -0.00137    -0.02907     0.01043    -0.04470     0.00000
  19       0.00000    -0.00402    -0.08533    -0.04470    -0.10553     0.00000
  20       0.21490     0.00000     0.00000     0.00000     0.00000     0.02566
  21       0.00000     0.00000     0.03799    -0.01222     0.06179     0.00000
  22       0.00000     0.03799     0.36730    -0.07561     0.38240     0.00000
  23       0.00000     0.01222     0.07561     0.19464     0.10336     0.00000
  24       0.00000    -0.06179    -0.38240     0.10336    -0.30767     0.00000
  25       1.00000     0.00000     0.00000     0.00000     0.00000     0.21508
  26       0.00000     1.00000     0.24836     0.00000    -0.00000     0.00000
  27       0.00000     0.24836     1.00000    -0.00000    -0.00000     0.00000
  28       0.00000     0.00000    -0.00000     1.00000     0.00000     0.00000
  29       0.00000    -0.00000    -0.00000     0.00000     1.00000     0.00000
  30       0.21508     0.00000     0.00000     0.00000     0.00000     1.00000
  31       0.00000     0.00009     0.00645     0.01069     0.00036     0.00000
  32       0.00000     0.00001     0.00185     0.00250     0.00219     0.00000
  33       0.00000     0.00529     0.09560    -0.07487     0.09837     0.00000
  34       0.00000     0.06088     0.48520    -0.34908    -0.30557     0.00000
  35       0.00000     0.00000     0.00000     0.00000     0.00001     0.00000
  36       0.00000     0.00000     0.00153     0.00038     0.00301     0.00000
  37       0.00000    -0.00000    -0.00038     0.00041    -0.00077     0.00000
  38       0.00000    -0.00001    -0.00301    -0.00077    -0.00561     0.00000
  39       0.01893     0.00000     0.00000     0.00000     0.00000     0.00051
  40       0.00000     0.00000     0.00000     0.00000     0.00000     0.00000
  41       0.00000     0.00000     0.00003     0.00002     0.00008     0.00000
  42       0.00000    -0.00000    -0.00002    -0.00001    -0.00005     0.00000
  43       0.00000    -0.00000    -0.00008    -0.00005    -0.00017     0.00000
  44       0.00063     0.00000     0.00000     0.00000     0.00000     0.00001
  45       0.00000     0.00000     0.00104    -0.00028     0.00191     0.00000
  46       0.00000     0.00000     0.00000     0.00000     0.00000     0.00000
  47       0.00000     0.00000     0.00004     0.00004     0.00008     0.00000
  48       0.00000     0.00000     0.00114     0.00176    -0.00214     0.00000
  49       0.00000     0.00114     0.04655     0.04498    -0.05447     0.00000
  50       0.00000    -0.00176    -0.04498    -0.02863     0.05760     0.00000
  51       0.00000     0.00214     0.05447     0.05760    -0.05081     0.00000
  52       0.00051     0.00000     0.00000     0.00000     0.00000     0.01893
  53       0.00000     0.00000     0.00021     0.00013    -0.00056     0.00000
  54       0.00000     0.00021     0.01761     0.00659    -0.02858     0.00000
  55       0.00000    -0.00013    -0.00659     0.00396     0.01143     0.00000
  56       0.00000     0.00056     0.02858     0.01143    -0.04299     0.00000
  57       0.00009     0.00000     0.00000     0.00000     0.00000     0.00659
  58       0.00000     0.00007     0.00541     0.00701    -0.00577     0.00000
  59       0.00000     0.00001     0.00117     0.00047    -0.00211     0.00000
  60       0.00000     0.00133     0.03648    -0.00801    -0.05197     0.00000

           31          32          33          34          35          36  
       ----------- ----------- ----------- ----------- ----------- -----------
   1       0.00529     0.00009     0.00009     0.00529     0.00000     0.00000
   2       0.09559     0.00644     0.00645     0.09561     0.00000     0.00029
   3       0.11933     0.00503    -0.00825    -0.12263    -0.00000    -0.00013
   4       0.03219     0.00943     0.00681    -0.01567     0.00000     0.00063
   5       0.00000     0.00000     0.00000     0.00000     0.00000     0.00000
   6       0.06089     0.00529     0.00001     0.00009     0.00000     0.00000
   7       0.48521     0.09560     0.00185     0.00645     0.00000     0.00153
   8       0.43912     0.03179    -0.00315    -0.01001    -0.00000    -0.00150
   9      -0.14971     0.11945     0.00107    -0.00374     0.00001     0.00264
  10       0.00000     0.00000     0.00000     0.00000     0.00000     0.00000
  11       0.00529     0.06088     0.00009     0.00001     0.00000     0.00114
  12       0.09560     0.48520     0.00645     0.00185     0.00114     0.04655
  13       0.07487     0.34908    -0.01069    -0.00250    -0.00176    -0.04498
  14      -0.09837     0.30557    -0.00036    -0.00219     0.00214     0.05447
  15       0.00000     0.00000     0.00000     0.00000     0.00000     0.00000
  16       0.00009     0.00529     0.00529     0.00009     0.00000     0.02659
  17       0.00645     0.09561     0.09559     0.00644     0.02659     0.29849
  18       0.00825     0.12263    -0.11933    -0.00503    -0.00865    -0.06528
  19      -0.00681     0.01567    -0.03219    -0.00943     0.04374     0.32997
  20       0.00000     0.00000     0.00000     0.00000     0.00000     0.00000
  21       0.00001     0.00009     0.06089     0.00529     0.00000     0.00114
  22       0.00185     0.00645     0.48521     0.09560     0.00114     0.04653
  23       0.00315     0.01001    -0.43912    -0.03179     0.00082     0.02085
  24      -0.00107     0.00374     0.14971    -0.11945     0.00265     0.06747
  25       0.00000     0.00000     0.00000     0.00000     0.00000     0.00000
  26       0.00009     0.00001     0.00529     0.06088     0.00000     0.00000
  27       0.00645     0.00185     0.09560     0.48520     0.00000     0.00153
  28       0.01069     0.00250    -0.07487    -0.34908     0.00000     0.00038
  29       0.00036     0.00219     0.09837    -0.30557     0.00001     0.00301
  30       0.00000     0.00000     0.00000     0.00000     0.00000     0.00000
  31       1.00000     0.05001     0.00011     0.00076     0.00000     0.00016
  32       0.05001     1.00000     0.00076     0.00011     0.00102     0.03049
  33       0.00011     0.00076     1.00000     0.05001     0.00102     0.03049
  34       0.00076     0.00011     0.05001     1.00000     0.00000     0.00016
  35       0.00000     0.00102     0.00102     0.00000     1.00000     0.24836
  36       0.00016     0.03049     0.03049     0.00016     0.24836     1.00000
  37       0.00020     0.03990    -0.02922    -0.00009    -0.00000    -0.00000
  38      -0.00026    -0.02016    -0.03383    -0.00032    -0.00000     0.00000
  39       0.00000     0.00000     0.00000     0.00000     0.00000     0.00000
  40       0.00000     0.00148     0.00001     0.00000     0.00000     0.04472
  41       0.00006     0.03927     0.00113     0.00000     0.04472     0.40277
  42       0.00005     0.03197    -0.00142    -0.00000    -0.05348    -0.29853
  43      -0.00012    -0.04622    -0.00155    -0.00000    -0.05144    -0.28716
  44       0.00000     0.00000     0.00000     0.00000     0.00000     0.00000
  45       0.00001     0.00280     0.05547     0.00021     0.06109     0.48601
  46       0.00000     0.00417     0.00020     0.00000     0.00578     0.10189
  47       0.00055     0.12984     0.00027     0.00000     0.00578     0.10189
  48       0.00102     0.00000     0.00000     0.00102     0.00000     0.00000
  49       0.03049     0.00016     0.00016     0.03049     0.00000     0.00000
  50       0.02922     0.00009    -0.00020    -0.03990    -0.00000    -0.00000
  51       0.03383     0.00032     0.00026     0.02016     0.00000     0.00000
  52       0.00000     0.00000     0.00000     0.00000     0.00000     0.00000
  53       0.00001     0.00000     0.00000     0.00148     0.00000     0.00000
  54       0.00113     0.00000     0.00006     0.03927     0.00000     0.00000
  55       0.00142     0.00000    -0.00005    -0.03197    -0.00000    -0.00000
  56       0.00155     0.00000     0.00012     0.04622     0.00000     0.00000
  57       0.00000     0.00000     0.00000     0.00000     0.00000     0.00000
  58       0.05547     0.00021     0.00001     0.00280     0.00000     0.00000
  59       0.00020     0.00000     0.00000     0.00417     0.00000     0.00000
  60       0.00027     0.00000     0.00055     0.12984     0.00000     0.00000

           37          38          39          40          41          42  
       ----------- ----------- ----------- ----------- ----------- -----------
   1       0.00000    -0.00000     0.00000     0.00000     0.00000    -0.00000
   2       0.00013    -0.00063     0.00000     0.00000     0.00001    -0.00000
   3       0.00004     0.00027     0.00000     0.00000     0.00000     0.00000
   4       0.00027    -0.00129     0.00000     0.00000     0.00003    -0.00000
   5       0.00000     0.00000     0.00009     0.00000     0.00000     0.00000
   6       0.00000    -0.00001     0.00000     0.00000     0.00000     0.00000
   7       0.00150    -0.00264     0.00000     0.00000     0.00027     0.00013
   8      -0.00101     0.00267     0.00000    -0.00000    -0.00013     0.00003
   9       0.00267    -0.00420     0.00000     0.00000     0.00059     0.00028
  10       0.00000     0.00000     0.00051     0.00000     0.00000     0.00000
  11       0.00176    -0.00214     0.00000     0.00000     0.00021     0.00013
  12       0.04498    -0.05447     0.00000     0.00021     0.01761     0.00659
  13      -0.02863     0.05760     0.00000    -0.00013    -0.00659     0.00396
  14       0.05760    -0.05081     0.00000     0.00056     0.02858     0.01143
  15       0.00000     0.00000     0.01893     0.00000     0.00000     0.00000
  16       0.00865    -0.04374     0.00000     0.00000     0.00126    -0.00079
  17       0.06528    -0.32997     0.00000     0.00126     0.04927    -0.01938
  18       0.14628     0.09109     0.00000     0.00079     0.01938     0.01180
  19       0.09109    -0.29609     0.00000     0.00292     0.07173    -0.03093
  20       0.00000     0.00000     0.16431     0.00000     0.00000     0.00000
  21      -0.00082    -0.00265     0.00000     0.00000     0.00000    -0.00001
  22      -0.02085    -0.06747     0.00000     0.00000     0.00189    -0.00169
  23       0.00870    -0.03308     0.00000     0.00001     0.00169    -0.00091
  24      -0.03308    -0.08812     0.00000     0.00001     0.00331    -0.00304
  25       0.00000     0.00000     0.01893     0.00000     0.00000     0.00000
  26      -0.00000    -0.00001     0.00000     0.00000     0.00000    -0.00000
  27      -0.00038    -0.00301     0.00000     0.00000     0.00003    -0.00002
  28       0.00041    -0.00077     0.00000     0.00000     0.00002    -0.00001
  29      -0.00077    -0.00561     0.00000     0.00000     0.00008    -0.00005
  30       0.00000     0.00000     0.00051     0.00000     0.00000     0.00000
  31       0.00020    -0.00026     0.00000     0.00000     0.00006     0.00005
  32       0.03990    -0.02016     0.00000     0.00148     0.03927     0.03197
  33      -0.02922    -0.03383     0.00000     0.00001     0.00113    -0.00142
  34      -0.00009    -0.00032     0.00000     0.00000     0.00000    -0.00000
  35      -0.00000    -0.00000     0.00000     0.00000     0.04472    -0.05348
  36      -0.00000     0.00000     0.00000     0.04472     0.40277    -0.29853
  37       1.00000     0.00000     0.00000     0.05348     0.29853    -0.05323
  38       0.00000     1.00000     0.00000     0.05144     0.28716    -0.28521
  39       0.00000     0.00000     1.00000     0.00000     0.00000     0.00000
  40       0.05348     0.05144     0.00000     1.00000     0.24836    -0.00000
  41       0.29853     0.28716     0.00000     0.24836     1.00000     0.00000
  42      -0.05323    -0.28521     0.00000    -0.00000     0.00000     1.00000
  43      -0.28521    -0.03108     0.00000     0.00000    -0.00000     0.00000
  44       0.00000     0.00000     0.24327     0.00000     0.00000     0.00000
  45      -0.45179     0.10758     0.00000     0.00578     0.10189    -0.12414
  46       0.04556     0.12246     0.00000     0.06109     0.48601    -0.08998
  47       0.12414     0.04077     0.00000     0.06109     0.48601     0.45179
  48       0.00000    -0.00000     0.00000     0.00000     0.00000     0.00000
  49       0.00000    -0.00000     0.00000     0.00000     0.00000     0.00000
  50      -0.00000     0.00000     0.00000    -0.00000    -0.00000     0.00000
  51       0.00000    -0.00000     0.00000     0.00000     0.00000     0.00000
  52       0.00000     0.00000     0.00000     0.00000     0.00000     0.00000
  53       0.00000    -0.00000     0.00000     0.00000     0.00000     0.00000
  54       0.00000    -0.00000     0.00000     0.00000     0.00000    -0.00000
  55       0.00000     0.00000     0.00000     0.00000     0.00000     0.00000
  56       0.00000    -0.00000     0.00000     0.00000     0.00000    -0.00000
  57       0.00000     0.00000     0.00000     0.00000     0.00000     0.00000
  58       0.00000    -0.00000     0.00000     0.00000     0.00000     0.00000
  59       0.00000    -0.00000     0.00000     0.00000     0.00000    -0.00000
  60      -0.00000    -0.00000     0.00000     0.00000     0.00000    -0.00000

           43          44          45          46          47          48  
       ----------- ----------- ----------- ----------- ----------- -----------
   1      -0.00000     0.00000     0.00000     0.00000     0.00000     0.00000
   2      -0.00003     0.00000     0.00009     0.00000     0.00005     0.02659
   3      -0.00000     0.00000    -0.00007    -0.00000     0.00003     0.00865
   4      -0.00008     0.00000     0.00017     0.00000     0.00011    -0.04374
   5       0.00000     0.00000     0.00000     0.00000     0.00000     0.00000
   6      -0.00000     0.00000     0.00000     0.00000     0.00001     0.00000
   7      -0.00059     0.00000     0.00019     0.00001     0.00137     0.00114
   8       0.00028     0.00000    -0.00025    -0.00001     0.00008    -0.00082
   9      -0.00120     0.00000     0.00031     0.00003     0.00251    -0.00265
  10       0.00000     0.00009     0.00000     0.00000     0.00000     0.00000
  11      -0.00056     0.00000     0.00007     0.00001     0.00133     0.00000
  12      -0.02858     0.00000     0.00541     0.00117     0.03648     0.00000
  13       0.01143     0.00000    -0.00701    -0.00047     0.00801    -0.00000
  14      -0.04299     0.00000     0.00577     0.00211     0.05197    -0.00001
  15       0.00000     0.00659     0.00000     0.00000     0.00000     0.00000
  16      -0.00292     0.00000     0.00444     0.00006     0.00091     0.00000
  17      -0.07173     0.00000     0.08438     0.00473     0.02827     0.00000
  18      -0.03093     0.00000    -0.06788     0.00101     0.02594     0.00000
  19      -0.09432     0.00000     0.08763     0.00795     0.03271    -0.00000
  20       0.00000     0.02015     0.00000     0.00000     0.00000     0.00000
  21      -0.00001     0.00000     0.00115     0.00000     0.00000     0.00000
  22      -0.00331     0.00000     0.03309     0.00018     0.00087     0.00000
  23      -0.00304     0.00000    -0.00566     0.00012     0.00109     0.00000
  24      -0.00533     0.00000     0.04782     0.00035     0.00121    -0.00001
  25       0.00000     0.00063     0.00000     0.00000     0.00000     0.00000
  26      -0.00000     0.00000     0.00000     0.00000     0.00000     0.00000
  27      -0.00008     0.00000     0.00104     0.00000     0.00004     0.00114
  28      -0.00005     0.00000    -0.00028     0.00000     0.00004     0.00176
  29      -0.00017     0.00000     0.00191     0.00000     0.00008    -0.00214
  30       0.00000     0.00001     0.00000     0.00000     0.00000     0.00000
  31      -0.00012     0.00000     0.00001     0.00000     0.00055     0.00102
  32      -0.04622     0.00000     0.00280     0.00417     0.12984     0.00000
  33      -0.00155     0.00000     0.05547     0.00020     0.00027     0.00000
  34      -0.00000     0.00000     0.00021     0.00000     0.00000     0.00102
  35      -0.05144     0.00000     0.06109     0.00578     0.00578     0.00000
  36      -0.28716     0.00000     0.48601     0.10189     0.10189     0.00000
  37      -0.28521     0.00000    -0.45179     0.04556     0.12414     0.00000
  38      -0.03108     0.00000     0.10758     0.12246     0.04077    -0.00000
  39       0.00000     0.24327     0.00000     0.00000     0.00000     0.00000
  40       0.00000     0.00000     0.00578     0.06109     0.06109     0.00000
  41      -0.00000     0.00000     0.10189     0.48601     0.48601     0.00000
  42       0.00000     0.00000    -0.12414    -0.08998     0.45179     0.00000
  43       1.00000     0.00000    -0.04077     0.45562    -0.10758    -0.00000
  44       0.00000     1.00000     0.00000     0.00000     0.00000     0.00000
  45      -0.04077     0.00000     1.00000     0.04831     0.01414     0.00000
  46       0.45562     0.00000     0.04831     1.00000     0.15221     0.00000
  47      -0.10758     0.00000     0.01414     0.15221     1.00000     0.00000
  48      -0.00000     0.00000     0.00000     0.00000     0.00000     1.00000
  49      -0.00000     0.00000     0.00000     0.00000     0.00000     0.24836
  50       0.00000     0.00000    -0.00000    -0.00000     0.00000     0.00000
  51      -0.00000     0.00000     0.00000     0.00000     0.00000     0.00000
  52       0.00000     0.00000     0.00000     0.00000     0.00000     0.00000
  53       0.00000     0.00000     0.00000     0.00000     0.00000     0.00000
  54      -0.00000     0.00000     0.00000     0.00000     0.00000     0.04472
  55      -0.00000     0.00000    -0.00000     0.00000     0.00000     0.05348
  56      -0.00000     0.00000     0.00000     0.00000     0.00000     0.05144
  57       0.00000     0.00000     0.00000     0.00000     0.00000     0.00000
  58      -0.00000     0.00000     0.00000     0.00000     0.00000     0.06109
  59      -0.00000     0.00000     0.00000     0.00000     0.00000     0.00578
  60      -0.00000     0.00000     0.00000     0.00000     0.00000     0.00578

           49          50          51          52          53          54  
       ----------- ----------- ----------- ----------- ----------- -----------
   1       0.02659    -0.00865     0.04374     0.00000     0.00000     0.00126
   2       0.29849    -0.06528     0.32997     0.00000     0.00126     0.04927
   3       0.06528     0.14628     0.09109     0.00000    -0.00079    -0.01938
   4      -0.32997     0.09109    -0.29609     0.00000    -0.00292    -0.07173
   5       0.00000     0.00000     0.00000     0.16431     0.00000     0.00000
   6       0.00114     0.00082     0.00265     0.00000     0.00000     0.00000
   7       0.04653     0.02085     0.06747     0.00000     0.00000     0.00189
   8      -0.02085     0.00870    -0.03308     0.00000    -0.00001    -0.00169
   9      -0.06747    -0.03308    -0.08812     0.00000    -0.00001    -0.00331
  10       0.00000     0.00000     0.00000     0.01893     0.00000     0.00000
  11       0.00000     0.00000     0.00001     0.00000     0.00000     0.00000
  12       0.00153     0.00038     0.00301     0.00000     0.00000     0.00003
  13      -0.00038     0.00041    -0.00077     0.00000    -0.00000    -0.00002
  14      -0.00301    -0.00077    -0.00561     0.00000    -0.00000    -0.00008
  15       0.00000     0.00000     0.00000     0.00051     0.00000     0.00000
  16       0.00000    -0.00000     0.00000     0.00000     0.00000     0.00000
  17       0.00029    -0.00013     0.00063     0.00000     0.00000     0.00001
  18       0.00013     0.00004     0.00027     0.00000    -0.00000    -0.00000
  19      -0.00063     0.00027    -0.00129     0.00000    -0.00000    -0.00003
  20       0.00000     0.00000     0.00000     0.00009     0.00000     0.00000
  21       0.00000    -0.00000     0.00001     0.00000     0.00000     0.00000
  22       0.00153    -0.00150     0.00264     0.00000     0.00000     0.00027
  23       0.00150    -0.00101     0.00267     0.00000     0.00000     0.00013
  24      -0.00264     0.00267    -0.00420     0.00000    -0.00000    -0.00059
  25       0.00000     0.00000     0.00000     0.00051     0.00000     0.00000
  26       0.00114    -0.00176     0.00214     0.00000     0.00000     0.00021
  27       0.04655    -0.04498     0.05447     0.00000     0.00021     0.01761
  28       0.04498    -0.02863     0.05760     0.00000     0.00013     0.00659
  29      -0.05447     0.05760    -0.05081     0.00000    -0.00056    -0.02858
  30       0.00000     0.00000     0.00000     0.01893     0.00000     0.00000
  31       0.03049     0.02922     0.03383     0.00000     0.00001     0.00113
  32       0.00016     0.00009     0.00032     0.00000     0.00000     0.00000
  33       0.00016    -0.00020     0.00026     0.00000     0.00000     0.00006
  34       0.03049    -0.03990     0.02016     0.00000     0.00148     0.03927
  35       0.00000    -0.00000     0.00000     0.00000     0.00000     0.00000
  36       0.00000    -0.00000     0.00000     0.00000     0.00000     0.00000
  37       0.00000    -0.00000     0.00000     0.00000     0.00000     0.00000
  38      -0.00000     0.00000    -0.00000     0.00000    -0.00000    -0.00000
  39       0.00000     0.00000     0.00000     0.00000     0.00000     0.00000
  40       0.00000    -0.00000     0.00000     0.00000     0.00000     0.00000
  41       0.00000    -0.00000     0.00000     0.00000     0.00000     0.00000
  42       0.00000     0.00000     0.00000     0.00000     0.00000    -0.00000
  43      -0.00000     0.00000    -0.00000     0.00000     0.00000    -0.00000
  44       0.00000     0.00000     0.00000     0.00000     0.00000     0.00000
  45       0.00000    -0.00000     0.00000     0.00000     0.00000     0.00000
  46       0.00000    -0.00000     0.00000     0.00000     0.00000     0.00000
  47       0.00000     0.00000     0.00000     0.00000     0.00000     0.00000
  48       0.24836     0.00000     0.00000     0.00000     0.00000     0.04472
  49       1.00000     0.00000    -0.00000     0.00000     0.04472     0.40277
  50       0.00000     1.00000     0.00000     0.00000    -0.05348    -0.29853
  51      -0.00000     0.00000     1.00000     0.00000    -0.05144    -0.28716
  52       0.00000     0.00000     0.00000     1.00000     0.00000     0.00000
  53       0.04472    -0.05348    -0.05144     0.00000     1.00000     0.24836
  54       0.40277    -0.29853    -0.28716     0.00000     0.24836     1.00000
  55       0.29853    -0.05323    -0.28521     0.00000     0.00000    -0.00000
  56       0.28716    -0.28521    -0.03108     0.00000    -0.00000     0.00000
  57       0.00000     0.00000     0.00000     0.24327     0.00000     0.00000
  58       0.48601     0.45179    -0.10758     0.00000     0.00578     0.10189
  59       0.10189    -0.04556    -0.12246     0.00000     0.06109     0.48601
  60       0.10189    -0.12414    -0.04077     0.00000     0.06109     0.48601

           55          56          57          58          59          60  
       ----------- ----------- ----------- ----------- ----------- -----------
   1       0.00079     0.00292     0.00000     0.00444     0.00006     0.00091
   2       0.01938     0.07173     0.00000     0.08438     0.00473     0.02827
   3       0.01180    -0.03093     0.00000     0.06788    -0.00101    -0.02594
   4      -0.03093    -0.09432     0.00000    -0.08763    -0.00795    -0.03271
   5       0.00000     0.00000     0.02015     0.00000     0.00000     0.00000
   6       0.00001     0.00001     0.00000     0.00115     0.00000     0.00000
   7       0.00169     0.00331     0.00000     0.03309     0.00018     0.00087
   8      -0.00091    -0.00304     0.00000     0.00566    -0.00012    -0.00109
   9      -0.00304    -0.00533     0.00000    -0.04782    -0.00035    -0.00121
  10       0.00000     0.00000     0.00063     0.00000     0.00000     0.00000
  11       0.00000     0.00000     0.00000     0.00000     0.00000     0.00000
  12       0.00002     0.00008     0.00000     0.00104     0.00000     0.00004
  13      -0.00001    -0.00005     0.00000     0.00028    -0.00000    -0.00004
  14      -0.00005    -0.00017     0.00000    -0.00191    -0.00000    -0.00008
  15       0.00000     0.00000     0.00001     0.00000     0.00000     0.00000
  16       0.00000     0.00000     0.00000     0.00000     0.00000     0.00000
  17       0.00000     0.00003     0.00000     0.00009     0.00000     0.00005
  18       0.00000    -0.00000     0.00000     0.00007     0.00000    -0.00003
  19      -0.00000    -0.00008     0.00000    -0.00017    -0.00000    -0.00011
  20       0.00000     0.00000     0.00000     0.00000     0.00000     0.00000
  21      -0.00000     0.00000     0.00000     0.00000     0.00000     0.00001
  22      -0.00013     0.00059     0.00000     0.00019     0.00001     0.00137
  23       0.00003     0.00028     0.00000     0.00025     0.00001    -0.00008
  24       0.00028    -0.00120     0.00000    -0.00031    -0.00003    -0.00251
  25       0.00000     0.00000     0.00009     0.00000     0.00000     0.00000
  26      -0.00013     0.00056     0.00000     0.00007     0.00001     0.00133
  27      -0.00659     0.02858     0.00000     0.00541     0.00117     0.03648
  28       0.00396     0.01143     0.00000     0.00701     0.00047    -0.00801
  29       0.01143    -0.04299     0.00000    -0.00577    -0.00211    -0.05197
  30       0.00000     0.00000     0.00659     0.00000     0.00000     0.00000
  31       0.00142     0.00155     0.00000     0.05547     0.00020     0.00027
  32       0.00000     0.00000     0.00000     0.00021     0.00000     0.00000
  33      -0.00005     0.00012     0.00000     0.00001     0.00000     0.00055
  34      -0.03197     0.04622     0.00000     0.00280     0.00417     0.12984
  35      -0.00000     0.00000     0.00000     0.00000     0.00000     0.00000
  36      -0.00000     0.00000     0.00000     0.00000     0.00000     0.00000
  37       0.00000     0.00000     0.00000     0.00000     0.00000    -0.00000
  38       0.00000    -0.00000     0.00000    -0.00000    -0.00000    -0.00000
  39       0.00000     0.00000     0.00000     0.00000     0.00000     0.00000
  40       0.00000     0.00000     0.00000     0.00000     0.00000     0.00000
  41       0.00000     0.00000     0.00000     0.00000     0.00000     0.00000
  42       0.00000    -0.00000     0.00000     0.00000    -0.00000    -0.00000
  43      -0.00000    -0.00000     0.00000    -0.00000    -0.00000    -0.00000
  44       0.00000     0.00000     0.00000     0.00000     0.00000     0.00000
  45      -0.00000     0.00000     0.00000     0.00000     0.00000     0.00000
  46       0.00000     0.00000     0.00000     0.00000     0.00000     0.00000
  47       0.00000     0.00000     0.00000     0.00000     0.00000     0.00000
  48       0.05348     0.05144     0.00000     0.06109     0.00578     0.00578
  49       0.29853     0.28716     0.00000     0.48601     0.10189     0.10189
  50      -0.05323    -0.28521     0.00000     0.45179    -0.04556    -0.12414
  51      -0.28521    -0.03108     0.00000    -0.10758    -0.12246    -0.04077
  52       0.00000     0.00000     0.24327     0.00000     0.00000     0.00000
  53       0.00000    -0.00000     0.00000     0.00578     0.06109     0.06109
  54      -0.00000     0.00000     0.00000     0.10189     0.48601     0.48601
  55       1.00000     0.00000     0.00000     0.12414     0.08998    -0.45179
  56       0.00000     1.00000     0.00000     0.04077    -0.45562     0.10758
  57       0.00000     0.00000     1.00000     0.00000     0.00000     0.00000
  58       0.12414     0.04077     0.00000     1.00000     0.04831     0.01414
  59       0.08998    -0.45562     0.00000     0.04831     1.00000     0.15221
  60      -0.45179     0.10758     0.00000     0.01414     0.15221     1.00000
 
      Superposition of Atomic Density Guess
      -------------------------------------
 
 Sum of atomic energies:        -376.44825176

 global array: Temp HCore[1:60,1:60],  handle: -988 

            1           2           3           4           5           6  
       ----------- ----------- ----------- ----------- ----------- -----------
   1       1.00000     0.24836    -0.00000    -0.00000     0.00000     0.00000
   2       0.24836     1.00000    -0.00000     0.00000     0.00000     0.03795
   3      -0.00000    -0.00000     1.00000    -0.00000     0.00000     0.04734
   4      -0.00000     0.00000    -0.00000     1.00000     0.00000     0.04144
   5       0.00000     0.00000     0.00000     0.00000     1.00000     0.00000
   6       0.00000     0.03795     0.04734     0.04144     0.00000     1.00000
   7       0.03795     0.36707     0.29320     0.25662     0.00000     0.24836
   8      -0.04734    -0.29320    -0.09256    -0.26910     0.00000     0.00000
   9      -0.04144    -0.25662    -0.26910    -0.02063     0.00000    -0.00000
  10       0.00000     0.00000     0.00000     0.00000     0.21490     0.00000
  11       0.00000     0.00184     0.00137     0.00402     0.00000     0.00000
  12       0.00184     0.06128     0.02907     0.08533     0.00000     0.03799
  13      -0.00137    -0.02907     0.01043    -0.04470     0.00000     0.01222
  14      -0.00402    -0.08533    -0.04470    -0.10553     0.00000    -0.06179
  15       0.00000     0.00000     0.00000     0.00000     0.02566     0.00000
  16       0.00000     0.00042    -0.00022     0.00110     0.00000     0.00000
  17       0.00042     0.02638    -0.00822     0.04158     0.00000     0.00184
  18       0.00022     0.00822     0.00743     0.01397     0.00000     0.00280
  19      -0.00110    -0.04158     0.01397    -0.06047     0.00000    -0.00320
  20       0.00000     0.00000     0.00000     0.00000     0.01019     0.00000
  21       0.00000     0.00184    -0.00280     0.00320     0.00000     0.00000
  22       0.00184     0.06132    -0.05940     0.06788     0.00000     0.00042
  23       0.00280     0.05940    -0.03785     0.07261     0.00000     0.00106
  24      -0.00320    -0.06788     0.07261    -0.05729     0.00000    -0.00036
  25       0.00000     0.00000     0.00000     0.00000     0.02568     0.00000
  26       0.00000     0.03797    -0.05959     0.02030     0.00000     0.00000
  27       0.03797     0.36720    -0.36891     0.12569     0.00000     0.00184
  28       0.05959     0.36891    -0.27161     0.16579     0.00000     0.00416
  29      -0.02030    -0.12569     0.16579     0.15852     0.00000     0.00082
  30       0.00000     0.00000     0.00000     0.00000     0.21500     0.00000
  31       0.00529     0.09559     0.11933     0.03219     0.00000     0.06089
  32       0.00009     0.00644     0.00503     0.00943     0.00000     0.00529
  33       0.00009     0.00645    -0.00825     0.00681     0.00000     0.00001
  34       0.00529     0.09561    -0.12263    -0.01567     0.00000     0.00009
  35       0.00000     0.00000    -0.00000     0.00000     0.00000     0.00000
  36       0.00000     0.00029    -0.00013     0.00063     0.00000     0.00000
  37       0.00000     0.00013     0.00004     0.00027     0.00000     0.00000
  38      -0.00000    -0.00063     0.00027    -0.00129     0.00000    -0.00001
  39       0.00000     0.00000     0.00000     0.00000     0.00009     0.00000
  40       0.00000     0.00000     0.00000     0.00000     0.00000     0.00000
  41       0.00000     0.00001     0.00000     0.00003     0.00000     0.00000
  42      -0.00000    -0.00000     0.00000    -0.00000     0.00000     0.00000
  43      -0.00000    -0.00003    -0.00000    -0.00008     0.00000    -0.00000
  44       0.00000     0.00000     0.00000     0.00000     0.00000     0.00000
  45       0.00000     0.00009    -0.00007     0.00017     0.00000     0.00000
  46       0.00000     0.00000    -0.00000     0.00000     0.00000     0.00000
  47       0.00000     0.00005     0.00003     0.00011     0.00000     0.00001
  48       0.00000     0.02659     0.00865    -0.04374     0.00000     0.00000
  49       0.02659     0.29849     0.06528    -0.32997     0.00000     0.00114
  50      -0.00865    -0.06528     0.14628     0.09109     0.00000     0.00082
  51       0.04374     0.32997     0.09109    -0.29609     0.00000     0.00265
  52       0.00000     0.00000     0.00000     0.00000     0.16431     0.00000
  53       0.00000     0.00126    -0.00079    -0.00292     0.00000     0.00000
  54       0.00126     0.04927    -0.01938    -0.07173     0.00000     0.00000
  55       0.00079     0.01938     0.01180    -0.03093     0.00000     0.00001
  56       0.00292     0.07173    -0.03093    -0.09432     0.00000     0.00001
  57       0.00000     0.00000     0.00000     0.00000     0.02015     0.00000
  58       0.00444     0.08438     0.06788    -0.08763     0.00000     0.00115
  59       0.00006     0.00473    -0.00101    -0.00795     0.00000     0.00000
  60       0.00091     0.02827    -0.02594    -0.03271     0.00000     0.00000

            7           8           9          10          11          12  
       ----------- ----------- ----------- ----------- ----------- -----------
   1       0.03795    -0.04734    -0.04144     0.00000     0.00000     0.00184
   2       0.36707    -0.29320    -0.25662     0.00000     0.00184     0.06128
   3       0.29320    -0.09256    -0.26910     0.00000     0.00137     0.02907
   4       0.25662    -0.26910    -0.02063     0.00000     0.00402     0.08533
   5       0.00000     0.00000     0.00000     0.21490     0.00000     0.00000
   6       0.24836     0.00000    -0.00000     0.00000     0.00000     0.03799
   7       1.00000     0.00000    -0.00000     0.00000     0.03799     0.36730
   8       0.00000     1.00000    -0.00000     0.00000    -0.01222    -0.07561
   9      -0.00000    -0.00000     1.00000     0.00000     0.06179     0.38240
  10       0.00000     0.00000     0.00000     1.00000     0.00000     0.00000
  11       0.03799    -0.01222     0.06179     0.00000     1.00000     0.24836
  12       0.36730    -0.07561     0.38240     0.00000     0.24836     1.00000
  13       0.07561     0.19464     0.10336     0.00000    -0.00000     0.00000
  14      -0.38240     0.10336    -0.30767     0.00000     0.00000     0.00000
  15       0.00000     0.00000     0.00000     0.21508     0.00000     0.00000
  16       0.00184    -0.00280     0.00320     0.00000     0.00000     0.03797
  17       0.06132    -0.05940     0.06788     0.00000     0.03797     0.36720
  18       0.05940    -0.03785     0.07261     0.00000     0.05959     0.36891
  19      -0.06788     0.07261    -0.05729     0.00000    -0.02030    -0.12569
[...]
      YY            2.7549380197          0.0000000000          2.7549380197
      ZZ           -6.2700293261          0.0000000000         -6.2700293261
      XY            0.1399125562          0.0000000000          0.1399125562
      XZ           -0.0000000000          0.0000000000         -0.0000000000
      YZ            0.0000000000          0.0000000000          0.0000000000

   Quadrupole moments in buckingham(s)

   Component  Electronic+nuclear     Point charges             Total
  --------------------------------------------------------------------------
      XX            4.7274849640          0.0000000000          4.7274849640
      YY            3.7051464471          0.0000000000          3.7051464471
      ZZ           -8.4326314110          0.0000000000         -8.4326314110
      XY            0.1881699359          0.0000000000          0.1881699359
      XZ           -0.0000000000          0.0000000000         -0.0000000000
      YZ            0.0000000000          0.0000000000          0.0000000000

 1 a.u. = 1.344911 Buckinghams = 1.344911 10**(-26) esu*cm**2 

          ---------------
          Octupole Moment
          ---------------

 Center of charge (in au) is the expansion point
         X =      -0.0000000 Y =       0.0000000 Z =       0.0000000

   Third moments in atomic units

   Component  Electronic+nuclear     Point charges             Total
  --------------------------------------------------------------------------
      XXX          -0.0000000000          0.0000000000         -0.0000000000
      YYY           0.0000000000          0.0000000000          0.0000000000
      ZZZ           0.0000000000          0.0000000000          0.0000000000
      XXY          -0.0000000000          0.0000000000         -0.0000000000
      XXZ          -0.0000000000          0.0000000000         -0.0000000000
      YYX          -0.0000000000          0.0000000000         -0.0000000000
      YYZ           0.0000000000          0.0000000000          0.0000000000
      ZZX           0.0000000000          0.0000000000          0.0000000000
      ZZY           0.0000000000          0.0000000000          0.0000000000
      XYZ           0.0000000000          0.0000000000          0.0000000000

   Third moments in 10**(-34) esu*cm**3

   Component  Electronic+nuclear     Point charges             Total
  --------------------------------------------------------------------------
      XXX          -0.0000000000          0.0000000000         -0.0000000000
      YYY           0.0000000000          0.0000000000          0.0000000000
      ZZZ           0.0000000000          0.0000000000          0.0000000000
      XXY          -0.0000000000          0.0000000000         -0.0000000000
      XXZ          -0.0000000000          0.0000000000         -0.0000000000
      YYX          -0.0000000000          0.0000000000         -0.0000000000
      YYZ           0.0000000000          0.0000000000          0.0000000000
      ZZX           0.0000000000          0.0000000000          0.0000000000
      ZZY           0.0000000000          0.0000000000          0.0000000000
      XYZ           0.0000000000          0.0000000000          0.0000000000

   Octupole moments in atomic units

   Component  Electronic+nuclear     Point charges             Total
  --------------------------------------------------------------------------
      XXX           0.0000000000          0.0000000000          0.0000000000
      YYY           0.0000000000          0.0000000000          0.0000000000
      ZZZ          -0.0000000000          0.0000000000         -0.0000000000
      XXY          -0.0000000000          0.0000000000         -0.0000000000
      XXZ          -0.0000000000          0.0000000000         -0.0000000000
      YYX          -0.0000000000          0.0000000000         -0.0000000000
      YYZ           0.0000000000          0.0000000000          0.0000000000
      ZZX           0.0000000000          0.0000000000          0.0000000000
      ZZY          -0.0000000000          0.0000000000         -0.0000000000
      XYZ           0.0000000000          0.0000000000          0.0000000000

   Octupole moments in 10**(-34) esu*cm**3

   Component  Electronic+nuclear     Point charges             Total
  --------------------------------------------------------------------------
      XXX           0.0000000000          0.0000000000          0.0000000000
      YYY           0.0000000000          0.0000000000          0.0000000000
      ZZZ          -0.0000000000          0.0000000000         -0.0000000000
      XXY          -0.0000000000          0.0000000000         -0.0000000000
      XXZ          -0.0000000000          0.0000000000         -0.0000000000
      YYX          -0.0000000000          0.0000000000         -0.0000000000
      YYZ           0.0000000000          0.0000000000          0.0000000000
      ZZX           0.0000000000          0.0000000000          0.0000000000
      ZZY          -0.0000000000          0.0000000000         -0.0000000000
      XYZ           0.0000000000          0.0000000000          0.0000000000

 1 a.u. = 0.711688 10**(-34) esu*cm**3 


          ----------------------------
          Mulliken population analysis
          ----------------------------

 Total      S,P,D,... shell population
 --------------------------------
    Atom          S        P
 --------------------------------------------------------------------------------------
     1 C      3.13631   2.86929
     2 C      3.14707   2.93651
     3 C      3.14555   2.93581
     4 C      3.13631   2.86929
     5 C      3.14707   2.93651
     6 C      3.14555   2.93581
     7 H      0.91641   0.00000
     8 H      0.91574   0.00000
     9 H      0.91641   0.00000
    10 H      0.91574   0.00000
    11 C      3.16511   2.91546
    12 C      3.17022   2.99376
    13 H      0.91654   0.00000
    14 H      0.91701   0.00000
    15 H      0.91921   0.00000
    16 C      3.16511   2.91546
    17 C      3.17022   2.99376
    18 H      0.91654   0.00000
    19 H      0.91701   0.00000
    20 H      0.91921   0.00000

          ----- Total      gross population on atoms ----

              1  C    6.0     6.00560
              2  C    6.0     6.08357
              3  C    6.0     6.08136
              4  C    6.0     6.00560
              5  C    6.0     6.08357
              6  C    6.0     6.08136
              7  H    1.0     0.91641
              8  H    1.0     0.91574
              9  H    1.0     0.91641
             10  H    1.0     0.91574
             11  C    6.0     6.08057
             12  C    6.0     6.16398
             13  H    1.0     0.91654
             14  H    1.0     0.91701
             15  H    1.0     0.91921
             16  C    6.0     6.08057
             17  C    6.0     6.16398
             18  H    1.0     0.91654
             19  H    1.0     0.91701
             20  H    1.0     0.91921

          ----- Bond indices -----
  1- 1   0.00000  1- 2   1.37816  1- 3   0.00284  1- 4   0.09399  1- 5   0.00290  1- 6   1.38178  1- 7   0.00412  1- 8   0.00767
  2- 1   1.37816  2- 2   0.00000  2- 3   1.45193  2- 4   0.00290  2- 5   0.10317  2- 6   0.00334  2- 7   0.95721  2- 8   0.00351
  3- 1   0.00284  3- 2   1.45193  3- 3   0.00000  3- 4   1.38178  3- 5   0.00334  3- 6   0.10916  3- 7   0.00364  3- 8   0.95108
  4- 1   0.09399  4- 2   0.00290  4- 3   1.38178  4- 4   0.00000  4- 5   1.37816  4- 6   0.00284  4- 7   0.00780  4- 8   0.00401
  5- 1   0.00290  5- 2   0.10317  5- 3   0.00334  5- 4   1.37816  5- 5   0.00000  5- 6   1.45193  5- 7   0.00026  5- 8   0.00796
  6- 1   1.38178  6- 2   0.00334  6- 3   0.10916  6- 4   0.00284  6- 5   1.45193  6- 6   0.00000  6- 7   0.00810  6- 8   0.00026
  7- 1   0.00412  7- 2   0.95721  7- 3   0.00364  7- 4   0.00780  7- 5   0.00026  7- 6   0.00810  7- 7   0.00000  7- 8   0.00332
  8- 1   0.00767  8- 2   0.00351  8- 3   0.95108  8- 4   0.00401  8- 5   0.00796  8- 6   0.00026  8- 7   0.00332  8- 8   0.00000
  9- 1   0.00780  9- 2   0.00026  9- 3   0.00810  9- 4   0.00412  9- 5   0.95721  9- 6   0.00364  9- 7   0.00011  9- 8   0.00132
 10- 1   0.00401 10- 2   0.00796 10- 3   0.00026 10- 4   0.00767 10- 5   0.00351 10- 6   0.95108 10- 7   0.00132 10- 8   0.00010
 11- 1   0.00032 11- 2   0.01105 11- 3   0.00474 11- 4   1.03609 11- 5   0.00560 11- 6   0.00928 11- 7   0.00125 11- 8   0.00448
 12- 1   0.02317 12- 2   0.00064 12- 3   0.03685 12- 4   0.00374 12- 5   0.04081 12- 6   0.00075 12- 7   0.00004 12- 8   0.00066
 13- 1   0.00004 13- 2   0.00078 13- 3   0.00523 13- 4   0.00645 13- 5   0.00150 13- 6   0.00004 13- 7   0.00033 13- 8   0.00025
 14- 1   0.00005 14- 2   0.00000 14- 3   0.00083 14- 4   0.01359 14- 5   0.00091 14- 6   0.00035 14- 7   0.00004 14- 8   0.00020
 15- 1   0.00001 15- 2   0.00019 15- 3   0.00048 15- 4   0.00645 15- 5   0.00029 15- 6   0.00006 15- 7   0.00002 15- 8   0.00648
 16- 1   1.03609 16- 2   0.00560 16- 3   0.00928 16- 4   0.00032 16- 5   0.01105 16- 6   0.00474 16- 7   0.00376 16- 8   0.00128
 17- 1   0.00374 17- 2   0.04081 17- 3   0.00075 17- 4   0.02317 17- 5   0.00064 17- 6   0.03685 17- 7   0.00014 17- 8   0.00016
 18- 1   0.00645 18- 2   0.00150 18- 3   0.00004 18- 4   0.00004 18- 5   0.00078 18- 6   0.00523 18- 7   0.00141 18- 8   0.00002
 19- 1   0.01359 19- 2   0.00091 19- 3   0.00035 19- 4   0.00005 19- 5   0.00000 19- 6   0.00083 19- 7   0.00012 19- 8   0.00010
 20- 1   0.00645 20- 2   0.00029 20- 3   0.00006 20- 4   0.00001 20- 5   0.00019 20- 6   0.00048 20- 7   0.00003 20- 8   0.00004
  1- 9   0.00780  1-10   0.00401  1-11   0.00032  1-12   0.02317  1-13   0.00004  1-14   0.00005  1-15   0.00001  1-16   1.03609
  2- 9   0.00026  2-10   0.00796  2-11   0.01105  2-12   0.00064  2-13   0.00078  2-14   0.00000  2-15   0.00019  2-16   0.00560
  3- 9   0.00810  3-10   0.00026  3-11   0.00474  3-12   0.03685  3-13   0.00523  3-14   0.00083  3-15   0.00048  3-16   0.00928
  4- 9   0.00412  4-10   0.00767  4-11   1.03609  4-12   0.00374  4-13   0.00645  4-14   0.01359  4-15   0.00645  4-16   0.00032
  5- 9   0.95721  5-10   0.00351  5-11   0.00560  5-12   0.04081  5-13   0.00150  5-14   0.00091  5-15   0.00029  5-16   0.01105
  6- 9   0.00364  6-10   0.95108  6-11   0.00928  6-12   0.00075  6-13   0.00004  6-14   0.00035  6-15   0.00006  6-16   0.00474
  7- 9   0.00011  7-10   0.00132  7-11   0.00125  7-12   0.00004  7-13   0.00033  7-14   0.00004  7-15   0.00002  7-16   0.00376
  8- 9   0.00132  8-10   0.00010  8-11   0.00448  8-12   0.00066  8-13   0.00025  8-14   0.00020  8-15   0.00648  8-16   0.00128
  9- 9   0.00000  9-10   0.00332  9-11   0.00376  9-12   0.00014  9-13   0.00141  9-14   0.00012  9-15   0.00003  9-16   0.00125
 10- 9   0.00332 10-10   0.00000 10-11   0.00128 10-12   0.00016 10-13   0.00002 10-14   0.00010 10-15   0.00004 10-16   0.00448
 11- 9   0.00376 11-10   0.00128 11-11   0.00000 11-12   1.92340 11-13   0.95571 11-14   0.00271 11-15   0.00301 11-16   0.00052
 12- 9   0.00014 12-10   0.00016 12-11   1.92340 12-12   0.00000 12-13   0.00319 12-14   0.96462 12-15   0.95793 12-16   0.00006
 13- 9   0.00141 13-10   0.00002 13-11   0.95571 13-12   0.00319 13-13   0.00000 13-14   0.00459 13-15   0.01349 13-16   0.00000
 14- 9   0.00012 14-10   0.00010 14-11   0.00271 14-12   0.96462 14-13   0.00459 14-14   0.00000 14-15   0.00500 14-16   0.00000
 15- 9   0.00003 15-10   0.00004 15-11   0.00301 15-12   0.95793 15-13   0.01349 15-14   0.00500 15-15   0.00000 15-16   0.00000
 16- 9   0.00125 16-10   0.00448 16-11   0.00052 16-12   0.00006 16-13   0.00000 16-14   0.00000 16-15   0.00000 16-16   0.00000
 17- 9   0.00004 17-10   0.00066 17-11   0.00006 17-12   0.00762 17-13   0.00000 17-14   0.00000 17-15   0.00000 17-16   1.92340
 18- 9   0.00033 18-10   0.00025 18-11   0.00000 18-12   0.00000 18-13   0.00000 18-14   0.00000 18-15   0.00000 18-16   0.95571
 19- 9   0.00004 19-10   0.00020 19-11   0.00000 19-12   0.00000 19-13   0.00000 19-14   0.00000 19-15   0.00000 19-16   0.00271
 20- 9   0.00002 20-10   0.00648 20-11   0.00000 20-12   0.00000 20-13   0.00000 20-14   0.00000 20-15   0.00000 20-16   0.00301
  1-17   0.00374  1-18   0.00645  1-19   0.01359  1-20   0.00645
  2-17   0.04081  2-18   0.00150  2-19   0.00091  2-20   0.00029
  3-17   0.00075  3-18   0.00004  3-19   0.00035  3-20   0.00006
  4-17   0.02317  4-18   0.00004  4-19   0.00005  4-20   0.00001
  5-17   0.00064  5-18   0.00078  5-19   0.00000  5-20   0.00019
  6-17   0.03685  6-18   0.00523  6-19   0.00083  6-20   0.00048
  7-17   0.00014  7-18   0.00141  7-19   0.00012  7-20   0.00003
  8-17   0.00016  8-18   0.00002  8-19   0.00010  8-20   0.00004
  9-17   0.00004  9-18   0.00033  9-19   0.00004  9-20   0.00002
 10-17   0.00066 10-18   0.00025 10-19   0.00020 10-20   0.00648
 11-17   0.00006 11-18   0.00000 11-19   0.00000 11-20   0.00000
 12-17   0.00762 12-18   0.00000 12-19   0.00000 12-20   0.00000
 13-17   0.00000 13-18   0.00000 13-19   0.00000 13-20   0.00000
 14-17   0.00000 14-18   0.00000 14-19   0.00000 14-20   0.00000
 15-17   0.00000 15-18   0.00000 15-19   0.00000 15-20   0.00000
 16-17   1.92340 16-18   0.95571 16-19   0.00271 16-20   0.00301
 17-17   0.00000 17-18   0.00319 17-19   0.96462 17-20   0.95793
 18-17   0.00319 18-18   0.00000 18-19   0.00459 18-20   0.01349
 19-17   0.96462 19-18   0.00459 19-19   0.00000 19-20   0.00500
 20-17   0.95793 20-18   0.01349 20-19   0.00500 20-20   0.00000

 Large bond indices
 ------------------
  1   C -  2   C    1.37816
  1   C -  6   C    1.38178
  1   C - 16   C    1.03609
  2   C -  3   C    1.45193
  2   C -  5   C    0.10317
  2   C -  7   H    0.95721
  3   C -  4   C    1.38178
  3   C -  6   C    0.10916
  3   C -  8   H    0.95108
  4   C -  5   C    1.37816
  4   C - 11   C    1.03609
  5   C -  6   C    1.45193
  5   C -  9   H    0.95721
  6   C - 10   H    0.95108
 11   C - 12   C    1.92340
 11   C - 13   H    0.95571
 12   C - 14   H    0.96462
 12   C - 15   H    0.95793
 16   C - 17   C    1.92340
 16   C - 18   H    0.95571
 17   C - 19   H    0.96462
 17   C - 20   H    0.95793

                                                                Free electrons             Valency
                              Number of         Sum of          + Bond indices         - Bond indices    
                Valency     Free electrons    Bond indices     =Mulliken charge     = Net spin population
     1  C       3.97321        2.03239          3.97321           6.00560                -0.00000
     2  C       3.97023        2.11335          3.97023           6.08357                 0.00000
     3  C       3.97074        2.11062          3.97074           6.08136                 0.00000
     4  C       3.97321        2.03239          3.97321           6.00560                -0.00000
     5  C       3.97023        2.11335          3.97023           6.08357                -0.00000
     6  C       3.97074        2.11062          3.97074           6.08136                 0.00000
     7  H       0.99301       -0.07660          0.99301           0.91641                 0.00000
     8  H       0.99290       -0.07716          0.99290           0.91574                -0.00000
     9  H       0.99301       -0.07660          0.99301           0.91641                -0.00000
    10  H       0.99290       -0.07716          0.99290           0.91574                -0.00000
    11  C       3.96327        2.11730          3.96327           6.08057                -0.00000
    12  C       3.96379        2.20019          3.96379           6.16398                -0.00000
    13  H       0.99303       -0.07649          0.99303           0.91654                -0.00000
    14  H       0.99311       -0.07610          0.99311           0.91701                -0.00000
    15  H       0.99347       -0.07426          0.99347           0.91921                -0.00000
    16  C       3.96327        2.11730          3.96327           6.08057                 0.00000
    17  C       3.96379        2.20019          3.96379           6.16398                -0.00000
    18  H       0.99303       -0.07649          0.99303           0.91654                 0.00000
    19  H       0.99311       -0.07610          0.99311           0.91701                -0.00000
    20  H       0.99347       -0.07426          0.99347           0.91921                -0.00000

 Task  times  cpu:        4.2s     wall:        4.4s
 
 
                                NWChem Input Module
                                -------------------
 
 
 Summary of allocated global arrays
-----------------------------------
  No active global arrays



                         GA Statistics for process    0
                         ------------------------------

       create   destroy   get      put      acc     scatter   gather  read&inc
calls:  731      731     3.74e+04 1838     2.69e+04   42        0     2156     
number of processes/call -2.41e+14 3.90e+13 8.11e+11 0.00e+00 0.00e+00
bytes total:             1.44e+07 2.94e+06 6.50e+06 2.00e+02 0.00e+00 1.72e+04
bytes remote:            1.00e+07 1.29e+06 4.80e+06 0.00e+00 0.00e+00 0.00e+00
Max memory consumed for GA by this process: 288736 bytes
 
MA_summarize_allocated_blocks: starting scan ...
MA_summarize_allocated_blocks: scan completed: 0 heap blocks, 0 stack blocks
MA usage statistics:

	allocation statistics:
					      heap	     stack
					      ----	     -----
	current number of blocks	         0	         0
	maximum number of blocks	        21	        57
	current total bytes		         0	         0
	maximum total bytes		   3567224	  22516376
	maximum total K-bytes		      3568	     22517
	maximum total M-bytes		         4	        23
 
 
                                     CITATION
                                     --------
                Please cite the following reference when publishing
                           results obtained with NWChem:
 
                 M. Valiev, E.J. Bylaska, N. Govind, K. Kowalski,
              T.P. Straatsma, H.J.J. van Dam, D. Wang, J. Nieplocha,
                        E. Apra, T.L. Windus, W.A. de Jong
                 "NWChem: a comprehensive and scalable open-source
                  solution for large scale molecular simulations"
                      Comput. Phys. Commun. 181, 1477 (2010)
                           doi:10.1016/j.cpc.2010.04.018
 
                                      AUTHORS
                                      -------
     E. Apra, E. J. Bylaska, N. Govind, K. Kowalski, M. Valiev, W. A. de Jong,
      T. P. Straatsma, H. J. J. van Dam, D. Wang, T. L. Windus, N. P. Bauman,
       A. Panyala, J. Hammond, J. Autschbach, K. Bhaskaran-Nair, J. Brabec,
    K. Lopata, S. A. Fischer, S. Krishnamoorthy, M. Jacquelin, W. Ma, M. Klemm,
       O. Villa, Y. Chen, V. Anisimov, F. Aquino, S. Hirata, M. T. Hackler,
           Eric Hermes, L. Jensen, J. E. Moore, J. C. Becca, V. Konjkov,
            D. Mejia-Rodriguez, T. Risthaus, M. Malagoli, A. Marenich,
   A. Otero-de-la-Roza, J. Mullin, P. Nichols, R. Peverati, J. Pittner, Y. Zhao,
        P.-D. Fan, A. Fonari, M. J. Williamson, R. J. Harrison, J. R. Rehr,
      M. Dupuis, D. Silverstein, D. M. A. Smith, J. Nieplocha, V. Tipparaju,
      M. Krishnan, B. E. Van Kuiken, A. Vazquez-Mayagoitia, M. Swart, Q. Wu,
   T. Van Voorhis, A. A. Auer, M. Nooijen, L. D. Crosby, E. Brown, G. Cisneros,
     G. I. Fann, H. Fruchtl, J. Garza, K. Hirao, R. A. Kendall, J. A. Nichols,
       K. Tsemekhman, K. Wolinski, J. Anchell, D. E. Bernholdt, P. Borowski,
       T. Clark, D. Clerc, H. Dachsel, M. J. O. Deegan, K. Dyall, D. Elwood,
      E. Glendening, M. Gutowski, A. C. Hess, J. Jaffe, B. G. Johnson, J. Ju,
        R. Kobayashi, R. Kutteh, Z. Lin, R. Littlefield, X. Long, B. Meng,
      T. Nakajima, S. Niu, L. Pollack, M. Rosing, K. Glaesemann, G. Sandrone,
      M. Stave, H. Taylor, G. Thomas, J. H. van Lenthe, A. T. Wong, Z. Zhang.

 Total times  cpu:        4.2s     wall:        4.4s
