
                                 *****************
                                 * O   R   C   A *
                                 *****************

           --- An Ab Initio, DFT and Semiempirical electronic structure package ---

                  #######################################################
                  #                        -***-                        #
                  #          Department of theory and spectroscopy      #
                  #               Directorship: Frank Neese             #
                  #        Max Planck Institute fuer Kohlenforschung    #
                  #                Kaiser Wilhelm Platz 1               #
                  #                 D-45470 Muelheim/Ruhr               #
                  #                      Germany                        #
                  #                                                     #
                  #                  All rights reserved                #
                  #                        -***-                        #
                  #######################################################


                         Program Version 4.2.1 -  RELEASE  -


 With contributions from (in alphabetic order):
   Daniel Aravena         : Magnetic Suceptibility
   Michael Atanasov       : Ab Initio Ligand Field Theory (pilot matlab implementation)
   Alexander A. Auer      : GIAO ZORA, VPT2
   Ute Becker             : Parallelization
   Giovanni Bistoni       : ED, misc. LED, open-shell LED, HFLD
   Martin Brehm           : Molecular dynamics
   Dmytro Bykov           : SCF Hessian
   Vijay G. Chilkuri      : MRCI spin determinant printing, contributions to CSF-ICE
   Dipayan Datta          : RHF DLPNO-CCSD density
   Achintya Kumar Dutta   : EOM-CC, STEOM-CC
   Dmitry Ganyushin       : Spin-Orbit,Spin-Spin,Magnetic field MRCI
   Miquel Garcia          : C-PCM Hessian, Gaussian charge scheme
   Yang Guo               : DLPNO-NEVPT2, CIM, IAO-localization
   Andreas Hansen         : Spin unrestricted coupled pair/coupled cluster methods
   Benjamin Helmich-Paris : CASSCF linear response (MC-RPA)
   Lee Huntington         : MR-EOM, pCC
   Robert Izsak           : Overlap fitted RIJCOSX, COSX-SCS-MP3, EOM
   Christian Kollmar      : KDIIS, OOCD, Brueckner-CCSD(T), CCSD density
   Simone Kossmann        : Meta GGA functionals, TD-DFT gradient, OOMP2, MP2 Hessian
   Martin Krupicka        : AUTO-CI
   Lucas Lang             : DCDCAS
   Dagmar Lenk            : GEPOL surface, SMD
   Dimitrios Liakos       : Extrapolation schemes; Compound Job, initial MDCI parallelization
   Dimitrios Manganas     : Further ROCIS development; embedding schemes
   Dimitrios Pantazis     : SARC Basis sets
   Taras Petrenko         : DFT Hessian,TD-DFT gradient, ASA, ECA, R-Raman, ABS, FL, XAS/XES, NRVS
   Peter Pinski           : DLPNO-MP2, DLPNO-MP2 Gradient
   Christoph Reimann      : Effective Core Potentials
   Marius Retegan         : Local ZFS, SOC
   Christoph Riplinger    : Optimizer, TS searches, QM/MM, DLPNO-CCSD(T), (RO)-DLPNO pert. Triples
   Tobias Risthaus        : Range-separated hybrids, TD-DFT gradient, RPA, STAB
   Michael Roemelt        : Original ROCIS implementation
   Masaaki Saitow         : Open-shell DLPNO-CCSD energy and density
   Barbara Sandhoefer     : DKH picture change effects
   Avijit Sen             : IP-ROCIS
   Kantharuban Sivalingam : CASSCF convergence, NEVPT2, FIC-MRCI
   Bernardo de Souza      : ESD, SOC TD-DFT
   Georgi Stoychev        : AutoAux, RI-MP2 NMR
   Willem Van den Heuvel  : Paramagnetic NMR
   Boris Wezisla          : Elementary symmetry handling
   Frank Wennmohs         : Technical directorship


 We gratefully acknowledge several colleagues who have allowed us to
 interface, adapt or use parts of their codes:
   Stefan Grimme, W. Hujo, H. Kruse,             : VdW corrections, initial TS optimization,
                  C. Bannwarth                     DFT functionals, gCP, sTDA/sTD-DF
   Ed Valeev, F. Pavosevic, A. Kumar             : LibInt (2-el integral package), F12 methods
   Garnet Chan, S. Sharma, J. Yang, R. Olivares  : DMRG
   Ulf Ekstrom                                   : XCFun DFT Library
   Mihaly Kallay                                 : mrcc  (arbitrary order and MRCC methods)
   Andreas Klamt, Michael Diedenhofen            : otool_cosmo (COSMO solvation model)
   Jiri Pittner, Ondrej Demel                    : Mk-CCSD
   Frank Weinhold                                : gennbo (NPA and NBO analysis)
   Christopher J. Cramer and Donald G. Truhlar   : smd solvation model
   Lars Goerigk                                  : TD-DFT with DH, B97 family of functionals
   V. Asgeirsson, H. Jonsson                     : NEB implementation
   FAccTs GmbH                                   : IRC, NEB, NEB-TS, Multilevel, MM, QM/MM, CI optimization
   S Lehtola, MJT Oliveira, MAL Marques          : LibXC Library


 Your calculation uses the libint2 library for the computation of 2-el integrals
 For citations please refer to: http://libint.valeyev.net

 Your ORCA version has been built with support for libXC version: 4.2.3
 For citations please refer to: https://tddft.org/programs/libxc/

 This ORCA versions uses:
   CBLAS   interface :  Fast vector & matrix operations
   LAPACKE interface :  Fast linear algebra routines
   SCALAPACK package :  Parallel linear algebra routines




***************************************
The coordinates will be read from file: init.xyz
***************************************


Your calculation utilizes the geometrical counterpoise correction gCP
Please cite in your paper:
H.Kruse, S. Grimme J.Chem.Phys., 136, (2012), 154101 
   

Your calculation utilizes the atom-pairwise dispersion correction
based on tight binding partial charges (D4)
Cite in your paper:
E.Caldeweyher, C.Bannwarth, S.Grimme, J.Chem.Phys., (2017), 147, 034112.
E.Caldeweyher, S.Ehlert, A.Hansen, H.Neugebauer, S.Grimme, J.Chem.Phys., (2018), in progress.
   

----- Orbital basis set information -----
Your calculation utilizes the basis: def2-SVP
   F. Weigend and R. Ahlrichs, Phys. Chem. Chem. Phys. 7, 3297 (2005).

----- AuxJ basis set information -----
Your calculation utilizes the auxiliary basis: def2/J
   F. Weigend, Phys. Chem. Chem. Phys. 8, 1057 (2006).

================================================================================
                                        WARNINGS
                       Please study these warnings very carefully!
================================================================================


WARNING: Geometry Optimization
  ===> : Switching off AutoStart
         For restart on a previous wavefunction, please use MOREAD

INFO   : the flag for use of LIBINT has been found!

================================================================================
                                       INPUT FILE
================================================================================
NAME = cope.inp
|  1> ! revPBE D4 gCP(DFT/SVP) def2-SVP OptTS Freq IRC TightOpt TightSCF Grid4 FinalGrid5 LargePrint
|  2> 
|  3> %geom
|  4>  ts_active_atoms
|  5>   {0 2 3 5}
|  6>  end
|  7> end
|  8> 
|  9> %irc
| 10>  maxiter 1000
| 11> end
| 12> 
| 13> %geom
| 14>  inhess read
| 15>  inhessname "freq.hess"
| 16> end
| 17> 
| 18> *xyzfile 0 1 init.xyz
| 19> 
| 20>                          ****END OF INPUT****
================================================================================

                       *****************************
                       * Geometry Optimization Run *
                       *****************************

Geometry optimization settings:
Update method            Update   .... Bofill
Choice of coordinates    CoordSys .... Z-matrix Internals
Initial Hessian          InHess   .... Read

Convergence Tolerances:
Energy Change            TolE     ....  1.0000e-06 Eh
Max. Gradient            TolMAXG  ....  1.0000e-04 Eh/bohr
RMS Gradient             TolRMSG  ....  3.0000e-05 Eh/bohr
Max. Displacement        TolMAXD  ....  1.0000e-03 bohr
RMS Displacement         TolRMSD  ....  6.0000e-04 bohr
Strict Convergence                ....  False
------------------------------------------------------------------------------
                        ORCA OPTIMIZATION COORDINATE SETUP
------------------------------------------------------------------------------

The optimization will be done in new redundant internal coordinates
Making redundant internal coordinates   ...  (new redundants) done
Following TS mode number                ...     0
TS-active-atoms for coordinate setup... 0 2 3 5 
Evaluating the initial hessian          ... (Reading Exact Hessian)...  
InHessName: freq.hess	The file <freq.hess> is opened as a .hess file
done
done
Diagonalizing the Hessian               .... done
Dimension of the hessian                .... 94
Lowest eigenvalues of the non projected Hessian:
 -0.036797197 -0.000000000 -0.000000000 -0.000000000 -0.000000000
done
Evaluating the coordinates              ...  done
Calculating the B-matrix                .... done
Calculating the G-matrix                .... done
Diagonalizing the G-matrix              .... done
The first mode is                       ....   52
The number of degrees of freedom        ....   42

    -----------------------------------------------------------------
                    Redundant Internal Coordinates


    -----------------------------------------------------------------
         Definition                    Initial Value    d2E/dq (diagonal element)
    -----------------------------------------------------------------
      1. B(C   1,C   0)                  1.4031         0.187954   
      2. B(C   2,C   1)                  1.4031         0.190475   
      3. B(C   2,C   0)                  2.4336         0.078832   
      4. B(C   3,C   1)                  2.5775         0.037462   
      5. B(C   3,C   2)                  1.9039         0.008388   
      6. B(C   4,C   2)                  2.5775         0.037009   
      7. B(C   4,C   0)                  2.5775         0.037881   
      8. B(C   4,C   3)                  1.4031         0.188875   
      9. B(C   5,C   3)                  2.4336         0.079714   
     10. B(C   5,C   4)                  1.4031         0.188609   
     11. B(C   5,C   0)                  1.9038         0.008639   
     12. B(C   5,C   1)                  2.5775         0.036580   
     13. B(H   6,C   0)                  1.0861         0.325203   
     14. B(H   7,C   0)                  1.0880         0.319252   
     15. B(H   8,C   1)                  1.0863         0.322620   
     16. B(H   9,C   2)                  1.0862         0.324980   
     17. B(H  10,C   3)                  1.0880         0.318891   
     18. B(H  11,C   4)                  1.0863         0.322419   
     19. B(H  12,C   5)                  1.0862         0.324955   
     20. B(H  13,C   5)                  1.0880         0.318910   
     21. B(H  14,C   2)                  1.0881         0.318853   
     22. B(H  15,C   3)                  1.0862         0.324935   
     23. A(C   5,C   0,H   7)           98.0357         0.026295   
     24. A(C   5,C   0,H   6)          101.4803         0.022243   
     25. A(C   1,C   0,C   5)          101.3413         0.012648   
     26. A(H   6,C   0,H   7)          111.6737         0.016333   
     27. A(C   1,C   0,H   6)          119.2883         0.019467   
     28. A(C   1,C   0,H   7)          119.5975         0.019002   
     29. A(C   0,C   1,H   8)          119.2450         0.060141   
     30. A(C   2,C   1,H   8)          119.2441         0.064049   
     31. A(C   0,C   1,C   2)          120.2810         0.028714   
     32. A(C   1,C   2,H  14)          119.6010         0.020389   
     33. A(H   9,C   2,H  14)          111.6727         0.016353   
     34. A(C   3,C   2,H  14)           98.0377         0.026018   
     35. A(C   3,C   2,H   9)          101.4787         0.021838   
     36. A(C   1,C   2,C   3)          101.3401         0.012507   
     37. A(C   1,C   2,H   9)          119.2863         0.021451   
     38. A(H  10,C   3,H  15)          111.6732         0.016415   
     39. A(C   4,C   3,H  15)          119.2860         0.021154   
     40. A(C   2,C   3,H  15)          101.4780         0.021784   
     41. A(C   2,C   3,C   4)          101.3403         0.012902   
     42. A(C   4,C   3,H  10)          119.6016         0.020698   
     43. A(C   2,C   3,H  10)           98.0371         0.025689   
     44. A(C   3,C   4,C   5)          120.2807         0.029090   
     45. A(C   5,C   4,H  11)          119.2451         0.063315   
     46. A(C   3,C   4,H  11)          119.2440         0.062833   
     47. A(H  12,C   5,H  13)          111.6732         0.016413   
     48. A(C   0,C   5,C   4)          101.3419         0.012862   
     49. A(C   4,C   5,H  13)          119.5986         0.021065   
     50. A(C   0,C   5,H  13)           98.0360         0.025660   
     51. A(C   4,C   5,H  12)          119.2879         0.021154   
     52. A(C   0,C   5,H  12)          101.4789         0.021776   
     53. D(C   2,C   1,C   0,H   7)     36.5832         0.015560   
     54. D(H   8,C   1,C   0,H   6)    -12.5112         0.012623   
     55. D(H   8,C   1,C   0,C   5)     97.6857         0.010511   
     56. D(C   2,C   1,C   0,H   6)   -179.7484         0.016331   
     57. D(C   2,C   1,C   0,C   5)    -69.5515         0.012388   
     58. D(H   8,C   1,C   0,H   7)   -156.1796         0.016762   
     59. D(C   3,C   2,C   1,C   0)     69.5526         0.012040   
     60. D(H  14,C   2,C   1,H   8)    156.1776         0.016657   
     61. D(C   3,C   2,C   1,H   8)    -97.6847         0.010315   
     62. D(H   9,C   2,C   1,H   8)     12.5087         0.012622   
     63. D(H  14,C   2,C   1,C   0)    -36.5851         0.015571   
     64. D(H   9,C   2,C   1,C   0)    179.7460         0.016348   
     65. D(C   4,C   3,C   2,H  14)     66.8706         0.014287   
     66. D(C   4,C   3,C   2,H   9)   -178.9713         0.014415   
     67. D(H  15,C   3,C   2,H   9)     57.6745         0.013198   
     68. D(H  15,C   3,C   2,C   1)   -178.9707         0.014435   
     69. D(H  10,C   3,C   2,H  14)   -170.6418         0.013394   
     70. D(H  10,C   3,C   2,H   9)    -56.4837         0.013178   
     71. D(H  10,C   3,C   2,C   1)     66.8711         0.014364   
     72. D(H  15,C   3,C   2,H  14)    -56.4835         0.013114   
     73. D(C   4,C   3,C   2,C   1)    -55.6165         0.013175   
     74. D(H  11,C   4,C   3,H  10)    156.1786         0.016680   
     75. D(H  11,C   4,C   3,C   2)    -97.6841         0.010266   
     76. D(C   5,C   4,C   3,H  15)    179.7446         0.016876   
     77. D(C   5,C   4,C   3,H  10)    -36.5851         0.015945   
     78. D(H  11,C   4,C   3,H  15)     12.5083         0.012796   
     79. D(C   5,C   4,C   3,C   2)     69.5522         0.011736   
     80. D(H  12,C   5,C   0,C   1)    178.9713         0.013807   
     81. D(C   4,C   5,C   0,H   7)    -66.8691         0.014853   
     82. D(C   4,C   5,C   0,H   6)    178.9719         0.014770   
     83. D(C   4,C   5,C   0,C   1)     55.6140         0.013461   
     84. D(H  13,C   5,C   4,H  11)   -156.1793         0.016676   
     85. D(H  13,C   5,C   4,C   3)     36.5845         0.015808   
     86. D(H  12,C   5,C   4,H  11)    -12.5108         0.012794   
     87. D(H  12,C   5,C   4,C   3)   -179.7469         0.016976   
     88. D(C   0,C   5,C   4,H  11)     97.6847         0.010267   
     89. D(C   0,C   5,C   4,C   3)    -69.5514         0.011608   
     90. D(H  13,C   5,C   0,H   7)    170.6463         0.013366   
     91. D(H  13,C   5,C   0,H   6)     56.4873         0.013025   
     92. D(H  13,C   5,C   0,C   1)    -66.8706         0.013721   
     93. D(H  12,C   5,C   0,H   7)     56.4881         0.013159   
     94. D(H  12,C   5,C   0,H   6)    -57.6708         0.013145   
    -----------------------------------------------------------------

Number of atoms                         .... 16
Number of degrees of freedom            .... 94

         *************************************************************
         *                GEOMETRY OPTIMIZATION CYCLE   1            *
         *************************************************************
---------------------------------
CARTESIAN COORDINATES (ANGSTROEM)
---------------------------------
  C     -0.868080   -0.931880   -0.874520
  C      0.534980   -0.931880   -0.874520
  C      1.242460    0.279750   -0.874520
  C      0.868080    0.931860    0.874550
  C     -0.534980    0.931880    0.874530
  C     -1.242470   -0.279740    0.874500
  H     -1.399420   -1.879160   -0.870360
  H     -1.405470   -0.172190   -1.438370
  H      1.065680   -1.856290   -0.665130
  H      2.328450    0.260900   -0.870320
  H      1.405520    0.172200    1.438400
  H     -1.065650    1.856310    0.665130
  H     -2.328450   -0.260910    0.870300
  H     -0.857450   -1.126890    1.438350
  H      0.857460    1.126920   -1.438380
  H      1.399410    1.879180    0.870350

----------------------------
CARTESIAN COORDINATES (A.U.)
----------------------------
  NO LB      ZA    FRAG     MASS         X           Y           Z
   0 C     6.0000    0    12.011   -1.640433   -1.760998   -1.652603
   1 C     6.0000    0    12.011    1.010966   -1.760998   -1.652603
   2 C     6.0000    0    12.011    2.347909    0.528651   -1.652603
   3 C     6.0000    0    12.011    1.640433    1.760960    1.652660
   4 C     6.0000    0    12.011   -1.010966    1.760998    1.652622
   5 C     6.0000    0    12.011   -2.347928   -0.528632    1.652566
   6 H     1.0000    0     1.008   -2.644521   -3.551098   -1.644742
   7 H     1.0000    0     1.008   -2.655953   -0.325392   -2.718125
   8 H     1.0000    0     1.008    2.013843   -3.507880   -1.256914
   9 H     1.0000    0     1.008    4.400133    0.493030   -1.644666
  10 H     1.0000    0     1.008    2.656048    0.325411    2.718182
  11 H     1.0000    0     1.008   -2.013787    3.507918    1.256914
  12 H     1.0000    0     1.008   -4.400133   -0.493048    1.644629
  13 H     1.0000    0     1.008   -1.620346   -2.129513    2.718088
  14 H     1.0000    0     1.008    1.620365    2.129570   -2.718144
  15 H     1.0000    0     1.008    2.644502    3.551136    1.644723

--------------------------------
INTERNAL COORDINATES (ANGSTROEM)
--------------------------------
 C      0   0   0     0.000000000000     0.00000000     0.00000000
 C      1   0   0     1.403060000000     0.00000000     0.00000000
 C      2   1   0     1.403059231572   120.28098168     0.00000000
 C      3   2   1     1.903852331826   101.34013797    69.55258878
 C      4   3   2     1.403060000285   101.34026264   304.38346819
 C      5   4   3     1.403055638740   120.28072352    69.55218297
 H      1   2   3     1.086130240625   119.28832109   180.25161400
 H      1   2   3     1.088045831158   119.59749340    36.58319767
 H      2   1   3     1.086287489664   119.24497399   167.23718393
 H      3   2   1     1.086161701866   119.28633356   179.74597892
 H      4   3   2     1.088049581453    98.03713208    66.87106095
 H      5   4   3     1.086291781153   119.24401077   262.31591830
 H      6   5   4     1.086151356534   119.28794325   180.25310992
 H      6   5   4     1.088039680067   119.59858807    36.58453584
 H      3   2   1     1.088053357377   119.60101437   323.41485771
 H      4   3   2     1.086160389307   101.47796528   181.02927752

---------------------------
INTERNAL COORDINATES (A.U.)
---------------------------
 C      0   0   0     0.000000000000     0.00000000     0.00000000
 C      1   0   0     2.651399149460     0.00000000     0.00000000
 C      2   1   0     2.651397697341   120.28098168     0.00000000
 C      3   2   1     3.597759506579   101.34013797    69.55258878
 C      4   3   2     2.651399149998   101.34026264   304.38346819
 C      5   4   3     2.651390907872   120.28072352    69.55218297
 H      1   2   3     2.052488700551   119.28832109   180.25161400
 H      1   2   3     2.056108642043   119.59749340    36.58319767
 H      2   1   3     2.052785858169   119.24497399   167.23718393
 H      3   2   1     2.052548153680   119.28633356   179.74597892
 H      4   3   2     2.056115729074    98.03713208    66.87106095
 H      5   4   3     2.052793967908   119.24401077   262.31591830
 H      6   5   4     2.052528603836   119.28794325   180.25310992
 H      6   5   4     2.056097018166   119.59858807    36.58453584
 H      3   2   1     2.056122864537   119.60101437   323.41485771
 H      4   3   2     2.052545673304   101.47796528   181.02927752

---------------------
BASIS SET INFORMATION
---------------------
There are 2 groups of distinct atoms

 Group   1 Type C   : 7s4p1d contracted to 3s2p1d pattern {511/31/1}
 Group   2 Type H   : 4s1p contracted to 2s1p pattern {31/1}

Atom   0C    basis set group =>   1
Atom   1C    basis set group =>   1
Atom   2C    basis set group =>   1
Atom   3C    basis set group =>   1
Atom   4C    basis set group =>   1
Atom   5C    basis set group =>   1
Atom   6H    basis set group =>   2
Atom   7H    basis set group =>   2
Atom   8H    basis set group =>   2
Atom   9H    basis set group =>   2
Atom  10H    basis set group =>   2
Atom  11H    basis set group =>   2
Atom  12H    basis set group =>   2
Atom  13H    basis set group =>   2
Atom  14H    basis set group =>   2
Atom  15H    basis set group =>   2

-------------------------
BASIS SET IN INPUT FORMAT
-------------------------

 # Basis set for element : H 
 NewGTO H 
 S 3 
   1      13.0107010000      0.0334854848
   2       1.9622572000      0.2347218709
   3       0.4445379600      0.8137702853
 S 1 
   1       0.1219496200      1.0000000000
 P 1 
   1       0.8000000000      1.0000000000
  end;

 # Basis set for element : C 
 NewGTO C 
 S 5 
   1    1238.4016938000      0.0055173650
   2     186.2900499200      0.0410888285
   3      42.2511763460      0.1822538213
   4      11.6765579320      0.4682845944
   5       3.5930506482      0.4457581734
 S 1 
   1       0.4024514736      1.0000000000
 S 1 
   1       0.1309018267      1.0000000000
 P 3 
   1       9.4680970621      0.0568883320
   2       2.0103545142      0.3129405934
   3       0.5477100471      0.7606501651
 P 1 
   1       0.1526861379      1.0000000000
 D 1 
   1       0.8000000000      1.0000000000
  end;

---------------------------------
AUXILIARY/J BASIS SET INFORMATION
---------------------------------
There are 2 groups of distinct atoms

 Group   1 Type C   : 12s5p4d2f1g contracted to 6s4p3d1f1g pattern {711111/2111/211/2/1}
 Group   2 Type H   : 5s2p1d contracted to 3s1p1d pattern {311/2/1}

Atom   0C    basis set group =>   1
Atom   1C    basis set group =>   1
Atom   2C    basis set group =>   1
Atom   3C    basis set group =>   1
Atom   4C    basis set group =>   1
Atom   5C    basis set group =>   1
Atom   6H    basis set group =>   2
Atom   7H    basis set group =>   2
Atom   8H    basis set group =>   2
Atom   9H    basis set group =>   2
Atom  10H    basis set group =>   2
Atom  11H    basis set group =>   2
Atom  12H    basis set group =>   2
Atom  13H    basis set group =>   2
Atom  14H    basis set group =>   2
Atom  15H    basis set group =>   2

-------------------------------------
AUXILIARY/J BASIS SET IN INPUT FORMAT
-------------------------------------

 # Auxiliary/J basis set for element : H 
 NewAuxJGTO H 
 S 3 
   1      15.6752927000      0.1007184237
   2       3.6063578000      0.3404257499
   3       1.2080016000      0.6491996172
 S 1 
   1       0.4726794000      1.0000000000
 S 1 
   1       0.2018100000      1.0000000000
 P 2 
   1       2.0281365000      0.5596620919
   2       0.5358730000      0.5596620919
 D 1 
   1       2.2165124000      1.0000000000
  end;

 # Auxiliary/J basis set for element : C 
 NewAuxJGTO C 
 S 7 
   1    1861.0916331000      0.0134602335
   2     642.9939764000      0.0299160374
   3     235.1105725000      0.1008649584
   4      90.7028894000      0.2370970548
   5      36.7794552000      0.3924037254
   6      15.6046273000      0.3195862154
   7       6.8907294000      0.0530104441
 S 1 
   1       3.1478850000     -1.0000000000
 S 1 
   1       1.4777287000      1.0000000000
 S 1 
   1       0.7076466000      1.0000000000
 S 1 
   1       0.3430122000      1.0000000000
 S 1 
   1       0.1669453000      1.0000000000
 P 2 
   1      13.5472892000     -0.6769313712
   2       5.4669419000     -0.3779500978
 P 1 
   1       2.1751721000      1.0000000000
 P 1 
   1       0.8582194000      1.0000000000
 P 1 
   1       0.3376720000      1.0000000000
 D 2 
   1       5.9287253000     -0.3533329857
   2       1.9809209000     -0.7456525731
 D 1 
   1       0.8055417000     -1.0000000000
 D 1 
   1       0.3531244000     -1.0000000000
 F 2 
   1       1.6755626000      0.6311076882
   2       0.5997536000      0.4968166032
 G 1 
   1       1.0024600000     -1.0000000000
  end;

------------------------------------------------------------------------------
                           ORCA GTO INTEGRAL CALCULATION
                           -- RI-GTO INTEGRALS CHOSEN --
------------------------------------------------------------------------------

                         BASIS SET STATISTICS AND STARTUP INFO

Gaussian basis set:
 # of primitive gaussian shells          ...  122
 # of primitive gaussian functions       ...  214
 # of contracted shells                  ...   66
 # of contracted basis functions         ...  134
 Highest angular momentum                ...    2
 Maximum contraction depth               ...    5
Auxiliary gaussian basis set:
 # of primitive gaussian shells          ...  224
 # of primitive gaussian functions       ...  580
 # of contracted shells                  ...  140
 # of contracted aux-basis functions     ...  404
 Highest angular momentum                ...    4
 Maximum contraction depth               ...    7
Ratio of auxiliary to basis functions    ...  3.01
Integral package used                  ... LIBINT
 One Electron integrals                  ... done
 Ordering auxiliary basis shells         ... done
 Integral threshhold             Thresh  ...  2.500e-11
 Primitive cut-off               TCut    ...  2.500e-12
 Pre-screening matrix                    ... done
 Shell pair data                         ... 
 Ordering of the shell pairs             ... done (   0.000 sec) 2194 of 2211 pairs
 Determination of significant pairs      ... done (   0.000 sec)
 Creation of shell pair data             ... done (   0.000 sec)
 Storage of shell pair data              ... done (   0.000 sec)
 Shell pair data done in (   0.001 sec)
 Computing two index integrals           ... done
 Cholesky decomposition of the V-matrix  ... done


Timings:
 Total evaluation time                   ...   0.111 sec (  0.002 min)
 One electron matrix time                ...   0.009 sec (  0.000 min) =  8.6%
 Schwartz matrix evaluation time         ...   0.052 sec (  0.001 min) = 47.5%
 Two index repulsion integral time       ...   0.003 sec (  0.000 min) =  2.6%
 Cholesky decomposition of V             ...   0.018 sec (  0.000 min) = 16.1%
 Three index repulsion integral time     ...   0.000 sec (  0.000 min) =  0.0%

-------------------------------------------------------------------------------
                                 ORCA SCF
-------------------------------------------------------------------------------

------------
SCF SETTINGS
------------
Hamiltonian:
 Density Functional     Method          .... DFT(GTOs)
 Exchange Functional    Exchange        .... PBE
   PBE kappa parameter   XKappa         ....  1.245000
   PBE mue parameter    XMuePBE         ....  0.219520
 Correlation Functional Correlation     .... PBE
   PBE beta parameter  CBetaPBE         ....  0.066725
 LDA part of GGA corr.  LDAOpt          .... PW91-LDA
 Gradients option       PostSCFGGA      .... off
   Density functional embedding theory  .... OFF
   NL short-range parameter             ....  3.700000
 RI-approximation to the Coulomb term is turned on
   Number of auxiliary basis functions  .... 404


General Settings:
 Integral files         IntName         .... cope
 Hartree-Fock type      HFTyp           .... RHF
 Total Charge           Charge          ....    0
 Multiplicity           Mult            ....    1
 Number of Electrons    NEL             ....   46
 Basis Dimension        Dim             ....  134
 Nuclear Repulsion      ENuc            ....    233.7294322582 Eh

Convergence Acceleration:
 DIIS                   CNVDIIS         .... on
   Start iteration      DIISMaxIt       ....    12
   Startup error        DIISStart       ....  0.200000
   # of expansion vecs  DIISMaxEq       ....     5
   Bias factor          DIISBfac        ....   1.050
   Max. coefficient     DIISMaxC        ....  10.000
 Newton-Raphson         CNVNR           .... off
 SOSCF                  CNVSOSCF        .... on
   Start iteration      SOSCFMaxIt      ....   150
   Startup grad/error   SOSCFStart      ....  0.003300
 Level Shifting         CNVShift        .... on
   Level shift para.    LevelShift      ....    0.2500
   Turn off err/grad.   ShiftErr        ....    0.0010
 Zerner damping         CNVZerner       .... off
 Static damping         CNVDamp         .... on
   Fraction old density DampFac         ....    0.7000
   Max. Damping (<1)    DampMax         ....    0.9800
   Min. Damping (>=0)   DampMin         ....    0.0000
   Turn off err/grad.   DampErr         ....    0.1000
 Fernandez-Rico         CNVRico         .... off

SCF Procedure:
 Maximum # iterations   MaxIter         ....   125
 SCF integral mode      SCFMode         .... Direct
   Integral package                     .... LIBINT
 Reset frequency        DirectResetFreq ....    20
 Integral Threshold     Thresh          ....  2.500e-11 Eh
 Primitive CutOff       TCut            ....  2.500e-12 Eh

Convergence Tolerance:
 Convergence Check Mode ConvCheckMode   .... Total+1el-Energy
 Convergence forced     ConvForced      .... 0
 Energy Change          TolE            ....  1.000e-08 Eh
 1-El. energy change                    ....  1.000e-05 Eh
 Orbital Gradient       TolG            ....  1.000e-05
 Orbital Rotation angle TolX            ....  1.000e-05
 DIIS Error             TolErr          ....  5.000e-07


Diagonalization of the overlap matrix:
Smallest eigenvalue                        ... 1.485e-03
Time for diagonalization                   ...    0.025 sec
Threshold for overlap eigenvalues          ... 1.000e-08
Number of eigenvalues below threshold      ... 0
Time for construction of square roots      ...    0.004 sec
Total time needed                          ...    0.029 sec

-------------------
DFT GRID GENERATION
-------------------

General Integration Accuracy     IntAcc      ...  4.670
Radial Grid Type                 RadialGrid  ... Gauss-Chebyshev
Angular Grid (max. acc.)         AngularGrid ... Lebedev-302
Angular grid pruning method      GridPruning ... 3 (G Style)
Weight generation scheme         WeightScheme... Becke
Basis function cutoff            BFCut       ...    1.0000e-11
Integration weight cutoff        WCut        ...    1.0000e-14
Grids for H and He will be reduced by one unit

# of grid points (after initial pruning)     ...  71212 (   0.0 sec)
# of grid points (after weights+screening)   ...  64468 (   0.1 sec)
nearest neighbour list constructed           ...    0.0 sec
Grid point re-assignment to atoms done       ...    0.0 sec
Grid point division into batches done        ...    0.2 sec
Reduced shell lists constructed in    0.5 sec

Total number of grid points                  ...    64468
Total number of batches                      ...     1016
Average number of points per batch           ...       63
Average number of grid points per atom       ...     4029
Average number of shells per batch           ...    49.72 (75.33%)
Average number of basis functions per batch  ...    99.43 (74.20%)
Average number of large shells per batch     ...    39.46 (79.36%)
Average number of large basis fcns per batch ...    76.19 (76.63%)
Maximum spatial batch extension              ...  18.89, 17.62, 20.94 au
Average spatial batch extension              ...   2.47,  2.48,  2.57 au

Time for grid setup =    0.657 sec

------------------------------
INITIAL GUESS: MODEL POTENTIAL
------------------------------
Loading Hartree-Fock densities                     ... done
Calculating cut-offs                               ... done
Setting up the integral package                    ... done
Initializing the effective Hamiltonian             ... done
Starting the Coulomb interaction                   ... done (   0.1 sec)
Reading the grid                                   ... done
Mapping shells                                     ... done
Starting the XC term evaluation                    ... done (   0.5 sec)
  promolecular density results
     # of electrons  =     45.994829657
     EX              =    -33.822853387
     EC              =     -1.487737486
     EX+EC           =    -35.310590873
Transforming the Hamiltonian                       ... done (   0.0 sec)
Diagonalizing the Hamiltonian                      ... done (   0.0 sec)
Back transforming the eigenvectors                 ... done (   0.0 sec)
Now organizing SCF variables                       ... done
                      ------------------
                      INITIAL GUESS DONE (   1.3 sec)
                      ------------------
----------------------
INITIAL GUESS ORBITALS
----------------------
                      0         1         2         3         4         5   
                 -10.08037 -10.08035 -10.07899 -10.07895 -10.07888 -10.07887
                   2.00000   2.00000   2.00000   2.00000   2.00000   2.00000
                  --------  --------  --------  --------  --------  --------
  0C   1s        -0.053404 -0.061278 -0.518199 -0.469794  0.682374  0.118051
  0C   2s         0.000087 -0.002353 -0.031443 -0.025584  0.037137  0.006187
  0C   3s        -0.014398  0.000593  0.050093  0.024669 -0.034222 -0.007880
  0C   1pz       -0.000139 -0.000276  0.000380  0.000320 -0.000287 -0.000149
  0C   1px        0.001586  0.001797  0.000115 -0.000104 -0.000110  0.000151
  0C   1py        0.000145 -0.000202 -0.000242  0.000167  0.000079 -0.000165
  0C   2pz        0.000951  0.003356  0.008362  0.003684 -0.000186 -0.000841
  0C   2px       -0.005309 -0.001756  0.005579 -0.001375 -0.005568 -0.001779
  0C   2py       -0.005344  0.002017  0.006729 -0.000439 -0.002327  0.001547
  0C   1dz2      -0.000553 -0.000547  0.000861  0.000975 -0.001394 -0.000525
  0C   1dxz      -0.000217 -0.000067 -0.000343 -0.000416  0.000688  0.000051
  0C   1dyz      -0.000171  0.000293  0.000625  0.000563 -0.000872 -0.000229
  0C   1dx2y2     0.000975  0.000844  0.000040 -0.000156  0.000037  0.000169
  0C   1dxy      -0.000146 -0.000094 -0.000142 -0.000279  0.000360  0.000067
  1C   1s        -0.695125 -0.692695  0.004360  0.085821 -0.042357 -0.060909
  1C   2s        -0.035598 -0.035417  0.000321  0.006190 -0.004750 -0.006813
  1C   3s         0.041201  0.027230 -0.000568 -0.010135  0.016719  0.023908
  1C   1pz       -0.000928 -0.000855  0.000005  0.000109 -0.000001 -0.000002
  1C   1px        0.000071 -0.000042 -0.001694 -0.000393  0.001920 -0.000733
  1C   1py       -0.000125  0.000073 -0.000920  0.000842  0.000432 -0.001386
  1C   2pz        0.001311  0.001216 -0.000032 -0.000529  0.001370  0.001957
  1C   2px       -0.005484 -0.001012  0.008529 -0.000980 -0.005088  0.001267
  1C   2py        0.009554  0.001766  0.004947  0.000840 -0.000372  0.004345
  1C   1dz2       0.001306  0.001486 -0.000062 -0.001236  0.000739  0.001063
  1C   1dxz      -0.000147 -0.000335  0.000065 -0.000038 -0.000240 -0.000030
  1C   1dyz       0.000256  0.000584  0.000040  0.000060  0.000079  0.000291
  1C   1dx2y2     0.000194  0.000220  0.001039  0.000269 -0.000947  0.000215
  1C   1dxy       0.000332  0.000377 -0.000571  0.000560  0.000067 -0.000825
  2C   1s        -0.053239 -0.061075  0.469614 -0.510922 -0.123516  0.687033
  2C   2s         0.000096 -0.002341  0.028784 -0.028122 -0.006934  0.037326
  2C   3s        -0.014408  0.000574 -0.047434  0.028975  0.004280 -0.035251
  2C   1pz       -0.000139 -0.000276 -0.000347  0.000352 -0.000041 -0.000324
  2C   1px       -0.000925 -0.000731 -0.000158 -0.000078  0.000065  0.000010
  2C   1py       -0.001297 -0.001654  0.000238  0.000155 -0.000245  0.000055
  2C   2pz        0.000950  0.003354 -0.007980  0.004447 -0.000723 -0.000526
  2C   2px        0.007294 -0.000853  0.008673  0.000309 -0.002015  0.004418
  2C   2py        0.001890  0.002534  0.001483  0.000846  0.000953  0.004209
  2C   1dz2      -0.000554 -0.000547 -0.000760  0.001042 -0.000014 -0.001499
  2C   1dxz       0.000257 -0.000219  0.000337 -0.000307  0.000022  0.000443
  2C   1dyz       0.000101  0.000205 -0.000545  0.000689  0.000205 -0.001033
  2C   1dx2y2    -0.000606 -0.000497  0.000126 -0.000176 -0.000125  0.000271
  2C   1dxy       0.000777  0.000688  0.000008 -0.000275  0.000097  0.000260
  3C   1s        -0.053156  0.061181 -0.471238  0.513861 -0.121226  0.684127
  3C   2s         0.000099  0.002342 -0.028871  0.028284 -0.006826  0.037156
  3C   3s        -0.014406 -0.000551  0.047531 -0.029105  0.004276 -0.035015
  3C   1pz        0.000139 -0.000276 -0.000348  0.000352  0.000043  0.000322
  3C   1px       -0.001583  0.001799 -0.000124 -0.000092 -0.000180  0.000052
  3C   1py       -0.000145 -0.000202  0.000256  0.000143  0.000183 -0.000018
  3C   2pz       -0.000945  0.003355 -0.007986  0.004441  0.000720  0.000487
  3C   2px        0.005307 -0.001767 -0.005673 -0.000870 -0.000236  0.005845
  3C   2py        0.005349  0.002006 -0.006734  0.000186 -0.002259  0.001669
  3C   1dz2      -0.000553  0.000548  0.000765 -0.001045 -0.000020 -0.001494
  3C   1dxz      -0.000217  0.000067 -0.000301  0.000444 -0.000186  0.000666
  3C   1dyz      -0.000172 -0.000293  0.000569 -0.000616  0.000082 -0.000900
  3C   1dx2y2     0.000973 -0.000845  0.000054  0.000152  0.000147  0.000093
  3C   1dxy      -0.000145  0.000095 -0.000114  0.000290 -0.000059  0.000362
  4C   1s        -0.693980  0.693845 -0.003855 -0.085536 -0.043198 -0.060721
  4C   2s        -0.035540  0.035476 -0.000266 -0.006159 -0.004811 -0.006799
  4C   3s         0.041155 -0.027298  0.000382  0.010026  0.016821  0.023885
  4C   1pz        0.000926 -0.000856  0.000005  0.000109  0.000002  0.000002
  4C   1px       -0.000072 -0.000042  0.001646 -0.000546  0.001346 -0.001560
  4C   1py        0.000125  0.000073  0.000991  0.000749  0.001454  0.000067
  4C   2pz       -0.001309  0.001219 -0.000017 -0.000520 -0.001375 -0.001956
  4C   2px        0.005483 -0.001024 -0.008571 -0.000191 -0.002941  0.004362
  4C   2py       -0.009550  0.001781 -0.004841  0.001309 -0.004222 -0.001117
  4C   1dz2       0.001303 -0.001488  0.000054  0.001231  0.000751  0.001060
  4C   1dxz      -0.000146  0.000335  0.000067  0.000032  0.000054 -0.000236
  4C   1dyz       0.000255 -0.000584  0.000034 -0.000065  0.000247  0.000173
  4C   1dx2y2     0.000193 -0.000220  0.001008 -0.000363  0.000526 -0.000820
  4C   1dxy       0.000331 -0.000378 -0.000619 -0.000502 -0.000801 -0.000219
  5C   1s        -0.053269  0.061328  0.513654  0.463228  0.690155  0.118664
  5C   2s         0.000093  0.002351  0.031196  0.025226  0.037580  0.006232
  5C   3s        -0.014403 -0.000567 -0.049856 -0.024344 -0.034768 -0.007991
  5C   1pz        0.000139 -0.000276  0.000378  0.000317  0.000292  0.000150
  5C   1px        0.000924 -0.000733  0.000151 -0.000092  0.000013 -0.000066
  5C   1py        0.001294 -0.001656 -0.000221  0.000175 -0.000135  0.000212
  5C   2pz       -0.000945  0.003358  0.008358  0.003684  0.000274  0.000861
  5C   2px       -0.007294 -0.000844 -0.008596  0.001122 -0.004858  0.000406
  5C   2py       -0.001886  0.002537 -0.001395  0.000996 -0.003634 -0.002324
  5C   1dz2      -0.000552  0.000548 -0.000851 -0.000962 -0.001409 -0.000526
  5C   1dxz       0.000258  0.000219  0.000364  0.000273  0.000411  0.000172
  5C   1dyz       0.000101 -0.000206 -0.000604 -0.000633 -0.001044 -0.000160
  5C   1dx2y2    -0.000605  0.000498  0.000141  0.000163  0.000297 -0.000025
  5C   1dxy       0.000776 -0.000690  0.000033  0.000272  0.000212  0.000180
  6H   1s        -0.000562  0.000046  0.001761  0.001348 -0.003025 -0.000181
  6H   2s        -0.001346 -0.000087 -0.004691 -0.005042  0.004626  0.001861
  6H   1pz       -0.000104 -0.000269 -0.000402 -0.000077  0.000477  0.000132
  6H   1px       -0.000229 -0.000151  0.000588  0.000707 -0.000872 -0.000053
  6H   1py        0.000048  0.000025  0.001496  0.001333 -0.001909 -0.000363
  7H   1s         0.001231 -0.000281  0.000180  0.001806 -0.002029 -0.000767
  7H   2s         0.001063 -0.000463 -0.006047 -0.003830  0.006984 -0.000117
  7H   1pz       -0.000174  0.000064  0.000865  0.000832 -0.000458 -0.000210
  7H   1px       -0.000204 -0.000323  0.000377  0.000615 -0.000676 -0.000233
  7H   1py        0.000037 -0.000152 -0.001464 -0.001004  0.001833  0.000272
  8H   1s         0.003854  0.003080 -0.000013 -0.000279 -0.000107 -0.000151
  8H   2s        -0.003878 -0.006082  0.000057  0.001024 -0.001591 -0.002276
  8H   1pz       -0.000791 -0.000693 -0.000000 -0.000027 -0.000184 -0.000262
  8H   1px       -0.000931 -0.000925  0.000231  0.000363 -0.000179 -0.000164
  8H   1py        0.001621  0.001611  0.000090 -0.000654  0.000210  0.000358
  9H   1s        -0.000563  0.000046 -0.001617  0.001482  0.000865 -0.002922
  9H   2s        -0.001345 -0.000085  0.004178 -0.005428  0.000148  0.005034
  9H   1pz       -0.000104 -0.000269  0.000391 -0.000111 -0.000037  0.000496
  9H   1px        0.000074  0.000055  0.001433 -0.001633 -0.000398  0.002096
  9H   1py        0.000222  0.000143 -0.000238  0.000083 -0.000058 -0.000246
 10H   1s         0.001231  0.000279  0.000009 -0.001808 -0.000034 -0.002175
 10H   2s         0.001066  0.000459 -0.005651  0.004358 -0.002490  0.006548
 10H   1pz        0.000174  0.000063 -0.000783  0.000907  0.000042  0.000506
 10H   1px        0.000204 -0.000323 -0.000317  0.000645 -0.000011  0.000718
 10H   1py       -0.000037 -0.000152  0.001361 -0.001131  0.000368 -0.001822
 11H   1s         0.003849 -0.003086  0.000014  0.000279 -0.000104 -0.000152
 11H   2s        -0.003868  0.006088 -0.000040 -0.001013 -0.001601 -0.002274
 11H   1pz        0.000790 -0.000694 -0.000002 -0.000028  0.000184  0.000262
 11H   1px        0.000929 -0.000926 -0.000196  0.000381  0.000094  0.000225
 11H   1py       -0.001618  0.001614 -0.000151 -0.000641 -0.000267 -0.000321
 12H   1s        -0.000562 -0.000045 -0.001742 -0.001318 -0.003049 -0.000183
 12H   2s        -0.001346  0.000089  0.004656  0.005000  0.004704  0.001864
 12H   1pz        0.000103 -0.000269 -0.000399 -0.000073 -0.000480 -0.000134
 12H   1px       -0.000074  0.000055 -0.001575 -0.001487 -0.002113 -0.000342
 12H   1py       -0.000222  0.000144  0.000245  0.000059  0.000212  0.000138
 13H   1s         0.001232  0.000279 -0.000165 -0.001788 -0.002048 -0.000763
 13H   2s         0.001064  0.000461  0.006004  0.003759  0.007058 -0.000105
 13H   1pz        0.000174  0.000063  0.000861  0.000828  0.000472  0.000211
 13H   1px       -0.000071  0.000295  0.001066  0.000545  0.001254  0.000120
 13H   1py       -0.000195  0.000203 -0.001053 -0.001023 -0.001525 -0.000339
 14H   1s         0.001231 -0.000281 -0.000001  0.001803 -0.000016 -0.002179
 14H   2s         0.001065 -0.000460  0.005644 -0.004316 -0.002499  0.006578
 14H   1pz       -0.000174  0.000063 -0.000781  0.000906 -0.000038 -0.000511
 14H   1px        0.000071  0.000294 -0.001013  0.000645  0.000313 -0.001216
 14H   1py        0.000195  0.000203  0.000956 -0.001121 -0.000200  0.001544
 15H   1s        -0.000563 -0.000045  0.001622 -0.001498  0.000860 -0.002912
 15H   2s        -0.001346  0.000088 -0.004197  0.005439  0.000177  0.005006
 15H   1pz        0.000103 -0.000269  0.000393 -0.000113  0.000038 -0.000494
 15H   1px        0.000229 -0.000152 -0.000518  0.000757 -0.000247  0.000841
 15H   1py       -0.000048  0.000025 -0.001363  0.001460 -0.000308  0.001925
                      6         7         8         9        10        11   
                  -0.88871  -0.82613  -0.77722  -0.70675  -0.63556  -0.61775
                   2.00000   2.00000   2.00000   2.00000   2.00000   2.00000
                  --------  --------  --------  --------  --------  --------
  0C   1s        -0.107068 -0.099387  0.134501  0.132669 -0.069086 -0.070692
  0C   2s         0.211483  0.205137 -0.278635 -0.300593  0.149911  0.156102
  0C   3s         0.037478  0.031197 -0.065826  0.057212  0.034297  0.053219
  0C   1pz        0.014707 -0.023204 -0.017282  0.042643  0.004201 -0.078568
  0C   1px        0.060898  0.083616 -0.005112 -0.031758 -0.158298 -0.098593
  0C   1py        0.017434 -0.006087  0.007260  0.038363  0.002280  0.065082
  0C   2pz        0.011768 -0.007475 -0.013206  0.038731  0.007704 -0.030867
  0C   2px        0.011575  0.020510  0.004316  0.014899 -0.058373 -0.010026
  0C   2py        0.002130 -0.006496 -0.002459  0.026034  0.002237  0.042625
  0C   1dz2      -0.002815 -0.006670 -0.000777  0.005304  0.005215 -0.001854
  0C   1dxz       0.000239 -0.000121  0.000636 -0.001577 -0.001013  0.000260
  0C   1dyz       0.001808 -0.002252 -0.001266  0.002684 -0.001587 -0.001867
  0C   1dx2y2     0.005681  0.007933 -0.001583 -0.002216 -0.006241 -0.005172
  0C   1dxy       0.001219  0.001035  0.002414  0.001537  0.001639  0.003221
  1C   1s        -0.134873 -0.159399 -0.000011 -0.000008  0.122295  0.088750
  1C   2s         0.267189  0.332153  0.000027  0.000018 -0.274169 -0.192793
  1C   3s         0.058893  0.054726 -0.000015 -0.000002 -0.016796 -0.093314
  1C   1pz        0.014597 -0.004519  0.000001  0.000001 -0.010962 -0.063923
  1C   1px       -0.032228 -0.026748  0.128868  0.165485 -0.025869 -0.063217
  1C   1py        0.056132  0.046586  0.073983  0.095001  0.045095  0.110133
  1C   2pz       -0.000733 -0.004634 -0.000001  0.000002 -0.005215 -0.019076
  1C   2px       -0.013590 -0.008775  0.034061  0.078726 -0.011248 -0.005845
  1C   2py        0.023660  0.015291  0.019544  0.045182  0.019564  0.010183
  1C   1dz2      -0.008466 -0.010519 -0.000000 -0.000000  0.002474 -0.000676
  1C   1dxz      -0.000702  0.001236  0.001343 -0.000868 -0.000346  0.000858
  1C   1dyz       0.001223 -0.002152  0.000771 -0.000498  0.000603 -0.001494
  1C   1dx2y2     0.002129  0.002746 -0.009542 -0.009381  0.001309 -0.000262
  1C   1dxy       0.003644  0.004702  0.005572  0.005478  0.002242 -0.000447
  2C   1s        -0.107059 -0.099378 -0.134507 -0.132667 -0.069100 -0.070698
  2C   2s         0.211470  0.205125  0.278656  0.300594  0.149948  0.156114
  2C   3s         0.037467  0.031183  0.065818 -0.057198  0.034297  0.053226
  2C   1pz        0.014705 -0.023202  0.017281 -0.042638  0.004198 -0.078565
  2C   1px       -0.045760 -0.036906  0.003684  0.017107  0.077845 -0.006485
  2C   1py       -0.043800 -0.075277 -0.008090 -0.046782  0.137837  0.117950
  2C   2pz        0.011761 -0.007477  0.013195 -0.038736  0.007690 -0.030862
  2C   2px       -0.007681 -0.004726  0.000039  0.029981  0.027492 -0.031764
  2C   2py       -0.008928 -0.020979  0.004949 -0.000260  0.051503  0.030135
  2C   1dz2      -0.002815 -0.006670  0.000776 -0.005304  0.005215 -0.001854
  2C   1dxz      -0.001681  0.002005 -0.000772  0.001522  0.001881  0.001482
  2C   1dyz       0.000705 -0.001031  0.001186 -0.002715  0.000074 -0.001166
  2C   1dx2y2    -0.001731 -0.002998 -0.002881 -0.002429  0.004493  0.005346
  2C   1dxy       0.005547  0.007417  0.000193  0.001175 -0.004629 -0.002920
  3C   1s        -0.107061  0.099383 -0.134502  0.132670 -0.069091  0.070699
  3C   2s         0.211469 -0.205128  0.278636 -0.300595  0.149920 -0.156118
  3C   3s         0.037479 -0.031204  0.065832  0.057196  0.034306 -0.053225
  3C   1pz       -0.014707 -0.023200 -0.017283 -0.042637 -0.004200 -0.078564
  3C   1px       -0.060899  0.083616 -0.005122  0.031765  0.158286 -0.098591
  3C   1py       -0.017431 -0.006088  0.007260 -0.038363 -0.002283  0.065079
  3C   2pz       -0.011767 -0.007473 -0.013207 -0.038728 -0.007704 -0.030866
  3C   2px       -0.011576  0.020510  0.004313 -0.014896  0.058369 -0.010029
  3C   2py       -0.002128 -0.006495 -0.002456 -0.026033 -0.002234  0.042622
  3C   1dz2      -0.002815  0.006670  0.000777  0.005304  0.005215  0.001854
  3C   1dxz       0.000239  0.000121 -0.000636 -0.001577 -0.001013 -0.000260
  3C   1dyz       0.001807  0.002252  0.001265  0.002684 -0.001587  0.001867
  3C   1dx2y2     0.005681 -0.007934  0.001584 -0.002216 -0.006241  0.005171
  3C   1dxy       0.001219 -0.001035 -0.002414  0.001538  0.001638 -0.003221
  4C   1s        -0.134873  0.159399 -0.000002  0.000000  0.122292 -0.088753
  4C   2s         0.267191 -0.332153  0.000002  0.000001 -0.274161  0.192801
  4C   3s         0.058892 -0.054725  0.000017  0.000002 -0.016794  0.093312
  4C   1pz       -0.014598 -0.004518  0.000002 -0.000002  0.010961 -0.063924
  4C   1px        0.032223 -0.026745  0.128868 -0.165487  0.025881 -0.063226
  4C   1py       -0.056137  0.046589  0.073980 -0.095004 -0.045083  0.110128
  4C   2pz        0.000733 -0.004634 -0.000001 -0.000005  0.005215 -0.019076
  4C   2px        0.013586 -0.008772  0.034060 -0.078724  0.011248 -0.005850
  4C   2py       -0.023661  0.015292  0.019541 -0.045183 -0.019566  0.010184
  4C   1dz2      -0.008466  0.010519 -0.000000 -0.000000  0.002474  0.000676
  4C   1dxz      -0.000702 -0.001236 -0.001343 -0.000868 -0.000346 -0.000858
  4C   1dyz       0.001223  0.002152 -0.000771 -0.000498  0.000603  0.001494
  4C   1dx2y2     0.002128 -0.002746  0.009542 -0.009381  0.001310  0.000261
  4C   1dxy       0.003644 -0.004703 -0.005572  0.005478  0.002241  0.000448
  5C   1s        -0.107068  0.099381  0.134504 -0.132670 -0.069091  0.070694
  5C   2s         0.211486 -0.205131 -0.278649  0.300600  0.149929 -0.156105
  5C   3s         0.037468 -0.031177 -0.065814 -0.057207  0.034284 -0.053219
  5C   1pz       -0.014705 -0.023206  0.017281  0.042643 -0.004203 -0.078568
  5C   1px        0.045763 -0.036908  0.003687 -0.017108 -0.077848 -0.006487
  5C   1py        0.043798 -0.075277 -0.008079  0.046775 -0.137844  0.117964
  5C   2pz       -0.011762 -0.007479  0.013195  0.038739 -0.007691 -0.030863
  5C   2px        0.007682 -0.004725  0.000040 -0.029983 -0.027493 -0.031763
  5C   2py        0.008927 -0.020979  0.004952  0.000261 -0.051507  0.030137
  5C   1dz2      -0.002815  0.006670 -0.000777 -0.005304  0.005215  0.001854
  5C   1dxz      -0.001681 -0.002006  0.000772  0.001522  0.001881 -0.001482
  5C   1dyz       0.000705  0.001030 -0.001187 -0.002715  0.000074  0.001166
  5C   1dx2y2    -0.001731  0.002997  0.002880 -0.002428  0.004493 -0.005347
  5C   1dxy       0.005547 -0.007417 -0.000193  0.001174 -0.004630  0.002921
  6H   1s         0.042779  0.046180 -0.089621 -0.108071  0.102886  0.060484
  6H   2s         0.005020  0.003995 -0.006064 -0.014729  0.010163  0.022788
  6H   1pz       -0.000236 -0.000833 -0.000037  0.000475  0.000266 -0.002362
  6H   1px        0.004213  0.004575 -0.005517 -0.006444  0.001491 -0.000087
  6H   1py        0.006512  0.005731 -0.010537 -0.010079  0.009251  0.006749
  7H   1s         0.051383  0.046613 -0.081313 -0.091080  0.101262  0.140470
  7H   2s         0.003389  0.006195 -0.005092 -0.020240  0.010648  0.011364
  7H   1pz        0.004220  0.002660 -0.005801 -0.004406  0.005350  0.005775
  7H   1px        0.004585  0.004653 -0.004576 -0.005856  0.002086  0.004359
  7H   1py       -0.005444 -0.005156  0.007974  0.007785 -0.007464 -0.008684
  8H   1s         0.053926  0.076195  0.000008  0.000006 -0.133119 -0.155690
  8H   2s         0.008533  0.012729 -0.000003 -0.000007 -0.020226 -0.021509
  8H   1pz       -0.001495 -0.001892  0.000000  0.000000  0.002621  0.001950
  8H   1px       -0.004533 -0.005583  0.002262  0.002494  0.006015  0.006384
  8H   1py        0.007897  0.009725  0.001299  0.001432 -0.010475 -0.011121
  9H   1s         0.042774  0.046172  0.089618  0.108060  0.102888  0.060486
  9H   2s         0.005025  0.003992  0.006073  0.014731  0.010174  0.022791
  9H   1pz       -0.000236 -0.000833  0.000037 -0.000475  0.000265 -0.002362
  9H   1px       -0.007747 -0.007254 -0.011880 -0.011952 -0.008741 -0.005785
  9H   1py       -0.000354 -0.001061  0.000550 -0.000483  0.003378  0.003479
 10H   1s         0.051376 -0.046608  0.081311 -0.091078  0.101267 -0.140474
 10H   2s         0.003390 -0.006194  0.005092 -0.020239  0.010648 -0.011365
 10H   1pz       -0.004219  0.002660 -0.005800  0.004406 -0.005350  0.005775
 10H   1px       -0.004585  0.004653 -0.004576  0.005857 -0.002087  0.004359
 10H   1py        0.005443 -0.005156  0.007973 -0.007784  0.007464 -0.008684
 11H   1s         0.053925 -0.076194  0.000002 -0.000003 -0.133112  0.155692
 11H   2s         0.008533 -0.012729  0.000005 -0.000008 -0.020224  0.021508
 11H   1pz        0.001495 -0.001892  0.000000 -0.000000 -0.002621  0.001950
 11H   1px        0.004533 -0.005583  0.002262 -0.002495 -0.006014  0.006384
 11H   1py       -0.007897  0.009725  0.001298 -0.001431  0.010475 -0.011121
 12H   1s         0.042778 -0.046173 -0.089619  0.108063  0.102885 -0.060483
 12H   2s         0.005026 -0.003993 -0.006073  0.014732  0.010174 -0.022791
 12H   1pz        0.000236 -0.000833  0.000037  0.000475 -0.000265 -0.002362
 12H   1px        0.007748 -0.007255 -0.011881  0.011953  0.008741 -0.005785
 12H   1py        0.000354 -0.001061  0.000550  0.000483 -0.003377  0.003479
 13H   1s         0.051382 -0.046611 -0.081316  0.091080  0.101269 -0.140476
 13H   2s         0.003392 -0.006195 -0.005093  0.020234  0.010650 -0.011376
 13H   1pz       -0.004220  0.002661  0.005801 -0.004406 -0.005351  0.005775
 13H   1px       -0.002389  0.002106  0.004579 -0.003769 -0.005395  0.005304
 13H   1py        0.006704 -0.006618 -0.007972  0.008982  0.005564 -0.008143
 14H   1s         0.051374  0.046606  0.081314  0.091073  0.101275  0.140468
 14H   2s         0.003392  0.006194  0.005094  0.020232  0.010650  0.011375
 14H   1pz        0.004219  0.002660  0.005800  0.004406  0.005351  0.005775
 14H   1px        0.002389  0.002105  0.004579  0.003769  0.005395  0.005303
 14H   1py       -0.006703 -0.006617 -0.007972 -0.008982 -0.005565 -0.008143
 15H   1s         0.042773 -0.046175  0.089615 -0.108064  0.102879 -0.060484
 15H   2s         0.005019 -0.003994  0.006062 -0.014727  0.010161 -0.022785
 15H   1pz        0.000236 -0.000833 -0.000037 -0.000476 -0.000265 -0.002362
 15H   1px       -0.004212  0.004575 -0.005516  0.006444 -0.001491 -0.000087
 15H   1py       -0.006511  0.005730 -0.010536  0.010079 -0.009250  0.006749
                     12        13        14        15        16        17   
                  -0.56243  -0.53622  -0.52948  -0.51485  -0.46381  -0.45613
                   2.00000   2.00000   2.00000   2.00000   2.00000   2.00000
                  --------  --------  --------  --------  --------  --------
  0C   1s        -0.004199 -0.032245  0.018589 -0.000959 -0.001790  0.015235
  0C   2s         0.006919  0.075664 -0.052500  0.009660  0.008829 -0.035910
  0C   3s         0.052205  0.006418  0.052645 -0.019913 -0.036401 -0.113143
  0C   1pz       -0.002734  0.008967  0.089317  0.020026 -0.247580  0.047076
  0C   1px       -0.089889 -0.145580  0.175870  0.248874  0.007132 -0.045204
  0C   1py       -0.160457 -0.169399 -0.138811 -0.036771  0.011340 -0.249059
  0C   2pz        0.005499 -0.013604  0.060121  0.002508 -0.104743  0.004761
  0C   2px       -0.008165 -0.028981  0.072709  0.082514 -0.004011 -0.071101
  0C   2py       -0.056835 -0.063220 -0.037991 -0.010395 -0.014665 -0.053076
  0C   1dz2      -0.002411 -0.000036  0.000658 -0.004426 -0.001785 -0.006442
  0C   1dxz      -0.002286  0.005000 -0.002250 -0.000246 -0.006620 -0.004839
  0C   1dyz       0.000024  0.001295  0.001433  0.004181 -0.007546  0.004178
  0C   1dx2y2    -0.001951 -0.007822  0.005724  0.005985  0.001595 -0.002042
  0C   1dxy      -0.005827 -0.001290  0.000352 -0.004538 -0.001910  0.005791
  1C   1s        -0.025946  0.041863 -0.000004  0.000003 -0.019909  0.000007
  1C   2s         0.064970 -0.104677  0.000006 -0.000006  0.048980 -0.000011
  1C   3s        -0.043869 -0.008247 -0.000012 -0.000019  0.052082 -0.000049
  1C   1pz        0.003110  0.035578 -0.000005 -0.000001 -0.223475  0.000024
  1C   1px        0.126112  0.094529 -0.170729 -0.252803  0.005926  0.020492
  1C   1py       -0.219640 -0.164672 -0.097970 -0.145149 -0.010328  0.011930
  1C   2pz       -0.012533  0.025883  0.000003 -0.000001 -0.088748  0.000013
  1C   2px        0.054189  0.029626 -0.023791 -0.062871 -0.008546 -0.092450
  1C   2py       -0.094406 -0.051619 -0.013642 -0.036087  0.014854 -0.053037
  1C   1dz2      -0.001076  0.001473  0.000000  0.000000 -0.002240  0.000000
  1C   1dxz       0.002194 -0.000377 -0.005214 -0.001788  0.006397 -0.001397
  1C   1dyz      -0.003820  0.000655 -0.002993 -0.001027 -0.011142 -0.000797
  1C   1dx2y2     0.003162  0.004268 -0.000592  0.006084 -0.000081 -0.011005
  1C   1dxy       0.005416  0.007312  0.000344 -0.003552 -0.000136  0.006434
  2C   1s        -0.004201 -0.032255 -0.018584  0.000951 -0.001791 -0.015254
  2C   2s         0.006932  0.075698  0.052485 -0.009636  0.008820  0.035957
  2C   3s         0.052197  0.006414 -0.052631  0.019882 -0.036315  0.113199
  2C   1pz       -0.002733  0.008939 -0.089314 -0.020036 -0.247569 -0.046972
  2C   1px        0.183855  0.219636 -0.031255  0.093773 -0.013422 -0.237831
  2C   1py       -0.003300  0.040348  0.221860  0.233469 -0.000422  0.086388
  2C   2pz        0.005490 -0.013634 -0.060114 -0.002526 -0.104715 -0.004715
  2C   2px        0.053183  0.069186  0.003834  0.032638  0.014674 -0.081682
  2C   2py       -0.021624 -0.006826  0.081929  0.076473 -0.003936 -0.034699
  2C   1dz2      -0.002411 -0.000036 -0.000657  0.004426 -0.001785  0.006441
  2C   1dxz       0.001132 -0.003639  0.000104  0.003486  0.009853  0.001166
  2C   1dyz       0.001985 -0.003666 -0.002664 -0.002321  0.001912 -0.006284
  2C   1dx2y2    -0.004117  0.002719  0.002506  0.006893 -0.002447 -0.006036
  2C   1dxy      -0.004563 -0.007448 -0.005154 -0.002983  0.000451 -0.001057
  3C   1s        -0.004196  0.032252  0.018583  0.000957 -0.001793 -0.015233
  3C   2s         0.006915 -0.075686 -0.052485 -0.009657  0.008836  0.035901
  3C   3s         0.052213 -0.006403  0.052636  0.019920 -0.036378  0.113163
  3C   1pz        0.002735  0.008939 -0.089321  0.020030  0.247574  0.047023
  3C   1px        0.089857 -0.145631 -0.175842  0.248866 -0.007142 -0.045177
  3C   1py        0.160426 -0.169345  0.138873 -0.036754 -0.011385 -0.248985
  3C   2pz       -0.005502 -0.013623 -0.060115  0.002506  0.104739  0.004737
  3C   2px        0.008152 -0.029009 -0.072704  0.082510  0.003996 -0.071108
  3C   2py        0.056830 -0.063212  0.038015 -0.010384  0.014651 -0.053069
  3C   1dz2      -0.002411  0.000036  0.000657  0.004426 -0.001785  0.006441
  3C   1dxz      -0.002286 -0.004999 -0.002248  0.000246 -0.006620  0.004841
  3C   1dyz       0.000023 -0.001293  0.001433 -0.004181 -0.007546 -0.004175
  3C   1dx2y2    -0.001951  0.007824  0.005721 -0.005984  0.001596  0.002041
  3C   1dxy      -0.005828  0.001292  0.000351  0.004537 -0.001912 -0.005785
  4C   1s        -0.025950 -0.041862  0.000009 -0.000002 -0.019910 -0.000007
  4C   2s         0.064979  0.104676 -0.000026  0.000005  0.048981  0.000016
  4C   3s        -0.043868  0.008246 -0.000012  0.000018  0.052084  0.000023
  4C   1pz       -0.003107  0.035582 -0.000003 -0.000003  0.223475 -0.000005
  4C   1px       -0.126083  0.094576  0.170716 -0.252796 -0.005924  0.020468
  4C   1py        0.219637 -0.164673  0.098044 -0.145117  0.010344  0.011859
  4C   2pz        0.012535  0.025884 -0.000012  0.000001  0.088749 -0.000001
  4C   2px       -0.054190  0.029632  0.023789 -0.062871  0.008528 -0.092462
  4C   2py        0.094399 -0.051624  0.013664 -0.036081 -0.014861 -0.053043
  4C   1dz2      -0.001076 -0.001473  0.000000 -0.000000 -0.002240  0.000000
  4C   1dxz       0.002194  0.000375 -0.005214  0.001788  0.006396  0.001395
  4C   1dyz      -0.003820 -0.000655 -0.002993  0.001026 -0.011143  0.000799
  4C   1dx2y2     0.003162 -0.004270 -0.000591 -0.006084 -0.000079  0.011002
  4C   1dxy       0.005415 -0.007311  0.000346  0.003553 -0.000137 -0.006431
  5C   1s        -0.004200  0.032249 -0.018590 -0.000955 -0.001788  0.015249
  5C   2s         0.006928 -0.075678  0.052498  0.009646  0.008812 -0.035940
  5C   3s         0.052192 -0.006435 -0.052634 -0.019881 -0.036340 -0.113190
  5C   1pz        0.002733  0.008978  0.089315 -0.020015  0.247582 -0.047000
  5C   1px       -0.183862  0.219685  0.031180  0.093759  0.013372 -0.237759
  5C   1py        0.003293  0.040286 -0.221899  0.233443  0.000422  0.086429
  5C   2pz       -0.005490 -0.013610  0.060120 -0.002518  0.104721 -0.004723
  5C   2px       -0.053184  0.069192 -0.003861  0.032631 -0.014695 -0.081655
  5C   2py        0.021615 -0.006854 -0.081932  0.076466  0.003926 -0.034691
  5C   1dz2      -0.002411  0.000035 -0.000657 -0.004426 -0.001785 -0.006442
  5C   1dxz       0.001132  0.003639  0.000103 -0.003486  0.009854 -0.001167
  5C   1dyz       0.001986  0.003665 -0.002665  0.002321  0.001912  0.006285
  5C   1dx2y2    -0.004117 -0.002718  0.002507 -0.006892 -0.002446  0.006034
  5C   1dxy      -0.004562  0.007447 -0.005158  0.002982  0.000450  0.001060
  6H   1s         0.119978  0.180822  0.004008 -0.069733 -0.011474  0.186763
  6H   2s         0.008520  0.029465 -0.003909 -0.011975 -0.003942  0.058513
  6H   1pz        0.000029  0.000179  0.002063  0.000001 -0.005733  0.001878
  6H   1px        0.003613  0.004613  0.004373  0.003746 -0.000006  0.007265
  6H   1py        0.006303  0.010147 -0.002721 -0.005997  0.000352  0.004784
  7H   1s        -0.033199 -0.000957 -0.181465 -0.109499  0.104537 -0.160425
  7H   2s         0.006202  0.007444 -0.025406 -0.014501  0.035829 -0.043189
  7H   1pz       -0.001049  0.000099 -0.007295 -0.004058 -0.001877 -0.004883
  7H   1px       -0.004173 -0.004209 -0.003498  0.000828  0.005889 -0.006726
  7H   1py       -0.001600 -0.004554  0.006825  0.006295 -0.006020  0.002596
  8H   1s         0.182163  0.083578 -0.000023  0.000008  0.004816 -0.000126
  8H   2s         0.019440  0.006081  0.000006  0.000012  0.011427 -0.000028
  8H   1pz       -0.002477 -0.001201 -0.000000 -0.000000 -0.005637  0.000003
  8H   1px       -0.005912 -0.002354 -0.004668 -0.005701  0.000681  0.001449
  8H   1py        0.010300  0.004101 -0.002681 -0.003272 -0.001187  0.000826
  9H   1s         0.119953  0.180784 -0.004063  0.069761 -0.011509 -0.186695
  9H   2s         0.008521  0.029466  0.003894  0.011994 -0.003959 -0.058498
  9H   1pz        0.000028  0.000178 -0.002063 -0.000001 -0.005733 -0.001874
  9H   1px       -0.007263 -0.011087 -0.000142 -0.003292 -0.000299  0.007793
  9H   1py        0.000058  0.001134  0.005149  0.006260  0.000183  0.003857
 10H   1s        -0.033191  0.000886 -0.181480  0.109497  0.104558  0.160359
 10H   2s         0.006204 -0.007455 -0.025406  0.014504  0.035832  0.043168
 10H   1pz        0.001049  0.000102  0.007296 -0.004058  0.001875 -0.004882
 10H   1px        0.004172 -0.004207  0.003500  0.000827 -0.005890 -0.006723
 10H   1py        0.001600 -0.004556 -0.006824  0.006295  0.006020  0.002595
 11H   1s         0.182155 -0.083595  0.000016  0.000003  0.004826  0.000088
 11H   2s         0.019440 -0.006084  0.000011 -0.000009  0.011430  0.000015
 11H   1pz        0.002477 -0.001202  0.000001 -0.000000  0.005637  0.000001
 11H   1px        0.005912 -0.002353  0.004669 -0.005700 -0.000681  0.001448
 11H   1py       -0.010299  0.004102  0.002679 -0.003272  0.001187  0.000827
 12H   1s         0.119958 -0.180813 -0.004003 -0.069751 -0.011472  0.186643
 12H   2s         0.008523 -0.029469  0.003903 -0.011992 -0.003950  0.058484
 12H   1pz       -0.000028  0.000179  0.002063 -0.000000  0.005733 -0.001875
 12H   1px        0.007264 -0.011089  0.000145 -0.003292  0.000301  0.007790
 12H   1py       -0.000058  0.001132 -0.005150  0.006259 -0.000183  0.003859
 13H   1s        -0.033191  0.000954  0.181481 -0.109492  0.104542 -0.160282
 13H   2s         0.006202 -0.007433  0.025414 -0.014500  0.035825 -0.043155
 13H   1pz        0.001048  0.000099 -0.007296  0.004059  0.001877  0.004879
 13H   1px       -0.003485  0.006055 -0.004131  0.005854 -0.002230 -0.001149
 13H   1py       -0.002796  0.001339  0.006462 -0.002457  0.008122 -0.007113
 14H   1s        -0.033188 -0.000885  0.181468  0.109517  0.104553  0.160267
 14H   2s         0.006204  0.007441  0.025410  0.014507  0.035825  0.043146
 14H   1pz       -0.001048  0.000102  0.007295  0.004059 -0.001876  0.004879
 14H   1px        0.003485  0.006055  0.004128  0.005855  0.002229 -0.001152
 14H   1py        0.002796  0.001336 -0.006462 -0.002459 -0.008122 -0.007113
 15H   1s         0.119944 -0.180807  0.004066  0.069737 -0.011514 -0.186696
 15H   2s         0.008515 -0.029460 -0.003899  0.011974 -0.003951 -0.058489
 15H   1pz       -0.000028  0.000178 -0.002063  0.000001  0.005732  0.001876
 15H   1px       -0.003612  0.004611 -0.004374  0.003746  0.000007  0.007263
 15H   1py       -0.006301  0.010147  0.002718 -0.005997 -0.000350  0.004782
                     18        19        20        21        22        23   
                  -0.45337  -0.44640  -0.42289  -0.37628  -0.29536  -0.16668
                   2.00000   2.00000   2.00000   2.00000   2.00000   0.00000
                  --------  --------  --------  --------  --------  --------
  0C   1s        -0.024433  0.008903  0.015275  0.005551  0.031262  0.018125
  0C   2s         0.065184 -0.033101 -0.042635 -0.004198 -0.071959 -0.040728
  0C   3s         0.012758  0.007565 -0.068858 -0.079143 -0.055365 -0.154703
  0C   1pz        0.077750  0.040117  0.007306 -0.308182 -0.130111 -0.175717
  0C   1px        0.101031 -0.179579 -0.113004  0.024431  0.041479  0.053634
  0C   1py       -0.130909 -0.186190  0.184687 -0.071649 -0.086865 -0.081345
  0C   2pz        0.017356  0.022037  0.021322 -0.161975 -0.097318 -0.154394
  0C   2px        0.044286 -0.038217 -0.047834 -0.008678  0.058142  0.056723
  0C   2py       -0.043073 -0.046851  0.029662 -0.046526 -0.039253 -0.066731
  0C   1dz2      -0.000330 -0.000320  0.006328 -0.005989  0.005480 -0.008565
  0C   1dxz       0.000306  0.003553  0.006869  0.001818 -0.020319  0.024474
  0C   1dyz       0.000093  0.002553 -0.005337 -0.005440  0.007363 -0.004068
  0C   1dx2y2     0.002459 -0.008336 -0.002267  0.000091 -0.002922 -0.004656
  0C   1dxy       0.012603  0.010428 -0.010279 -0.000164  0.000321  0.003904
  1C   1s         0.019944 -0.000009  0.007738  0.000001 -0.002608  0.009184
  1C   2s        -0.041172  0.000022 -0.041770 -0.000000  0.004734 -0.034232
  1C   3s        -0.047717 -0.000019  0.100050 -0.000022 -0.056251  0.012372
  1C   1pz        0.028281 -0.000025  0.091393  0.000006 -0.412510  0.399341
  1C   1px       -0.129773  0.176558  0.102472 -0.043890  0.023887 -0.034999
  1C   1py        0.226162  0.101311 -0.178448 -0.025209 -0.041611  0.060982
  1C   2pz        0.033677 -0.000016  0.042475 -0.000006 -0.245568  0.384683
  1C   2px       -0.027154  0.035471 -0.004007 -0.051480  0.028009 -0.040955
  1C   2py        0.047465  0.020336  0.006921 -0.029562 -0.048804  0.071379
  1C   1dz2       0.000009  0.000000  0.002808  0.000000  0.001598 -0.000269
  1C   1dxz      -0.003143 -0.002165  0.001282  0.017139  0.002388  0.002608
  1C   1dyz       0.005474 -0.001245 -0.002235  0.009839 -0.004162 -0.004542
  1C   1dx2y2     0.007701 -0.012124 -0.009304 -0.002228  0.002986  0.002381
  1C   1dxy       0.013187  0.007075 -0.015933  0.001300  0.005112  0.004076
  2C   1s        -0.024425 -0.008889  0.015271 -0.005549  0.031266  0.018128
  2C   2s         0.065179  0.033058 -0.042627  0.004202 -0.071979 -0.040729
  2C   3s         0.012599 -0.007527 -0.068795  0.079121 -0.055369 -0.154769
  2C   1pz        0.077770 -0.040182  0.007258  0.308183 -0.130140 -0.175723
  2C   1px        0.062165 -0.251389 -0.102566 -0.049564  0.054107  0.043211
  2C   1py       -0.153380 -0.061138  0.190704  0.057242 -0.079628 -0.087348
  2C   2pz        0.017339 -0.022053  0.021295  0.161974 -0.097312 -0.154451
  2C   2px        0.014913 -0.059754 -0.001538 -0.044567  0.004578  0.029035
  2C   2py       -0.059906 -0.009366  0.056229  0.015954 -0.070023 -0.082599
  2C   1dz2      -0.000336  0.000319  0.006327  0.005991  0.005478 -0.008566
  2C   1dxz      -0.000234  0.003997  0.001146 -0.003781  0.003887 -0.008827
  2C   1dyz      -0.000211  0.001783 -0.008624  0.004311  0.021259 -0.023186
  2C   1dx2y2     0.009765 -0.013181 -0.007841  0.000187  0.001716  0.005687
  2C   1dxy       0.008337  0.002134 -0.007025  0.000001 -0.002387 -0.002136
  3C   1s         0.024438  0.008892  0.015274 -0.005548 -0.031261  0.018125
  3C   2s        -0.065205 -0.033069 -0.042635  0.004190  0.071956 -0.040726
  3C   3s        -0.012739  0.007542 -0.068847  0.079129  0.055368 -0.154704
  3C   1pz        0.077721 -0.040188 -0.007264 -0.308187 -0.130113  0.175721
  3C   1px        0.101134  0.179554  0.112987  0.024438  0.041475 -0.053635
  3C   1py       -0.130807  0.186346 -0.184712 -0.071677 -0.086866  0.081350
  3C   2pz        0.017337 -0.022052 -0.021305 -0.161981 -0.097320  0.154401
  3C   2px        0.044301  0.038223  0.047816 -0.008672  0.058135 -0.056722
  3C   2py       -0.043051  0.046902 -0.029670 -0.046533 -0.039254  0.066735
  3C   1dz2       0.000330 -0.000322  0.006328  0.005991 -0.005479 -0.008565
  3C   1dxz      -0.000304  0.003552  0.006870 -0.001817  0.020319  0.024473
  3C   1dyz      -0.000091  0.002554 -0.005338  0.005439 -0.007363 -0.004068
  3C   1dx2y2    -0.002463 -0.008336 -0.002266 -0.000091  0.002923 -0.004656
  3C   1dxy      -0.012597  0.010436 -0.010280  0.000163 -0.000321  0.003903
  4C   1s        -0.019945  0.000007  0.007736  0.000002  0.002609  0.009185
  4C   2s         0.041175 -0.000014 -0.041765 -0.000012 -0.004736 -0.034236
  4C   3s         0.047715 -0.000042  0.100051  0.000036  0.056252  0.012363
  4C   1pz        0.028272 -0.000004 -0.091394 -0.000026 -0.412513 -0.399336
  4C   1px       -0.129873 -0.176508 -0.102451 -0.043893  0.023899  0.035009
  4C   1py        0.226103 -0.101425  0.178457 -0.025188 -0.041606 -0.060976
  4C   2pz        0.033674 -0.000009 -0.042474 -0.000024 -0.245569 -0.384679
  4C   2px       -0.027183 -0.035434  0.003999 -0.051475  0.028010  0.040968
  4C   2py        0.047450 -0.020347 -0.006926 -0.029566 -0.048806 -0.071370
  4C   1dz2      -0.000009  0.000000  0.002808 -0.000000 -0.001598 -0.000269
  4C   1dxz       0.003141 -0.002168  0.001283 -0.017139 -0.002388  0.002608
  4C   1dyz      -0.005475 -0.001242 -0.002235 -0.009838  0.004162 -0.004542
  4C   1dx2y2    -0.007709 -0.012123 -0.009304  0.002227 -0.002986  0.002381
  4C   1dxy      -0.013182  0.007085 -0.015933 -0.001302 -0.005112  0.004077
  5C   1s         0.024421 -0.008909  0.015275  0.005552 -0.031267  0.018126
  5C   2s        -0.065161  0.033111 -0.042634 -0.004210  0.071981 -0.040727
  5C   3s        -0.012617 -0.007494 -0.068810 -0.079132  0.055361 -0.154756
  5C   1pz        0.077782  0.040164 -0.007300  0.308175 -0.130135  0.175716
  5C   1px        0.062304  0.251404  0.102545 -0.049566  0.054106 -0.043209
  5C   1py       -0.153338  0.061199 -0.190703  0.057214 -0.079628  0.087345
  5C   2pz        0.017348  0.022052 -0.021315  0.161965 -0.097310  0.154441
  5C   2px        0.014942  0.059758  0.001528 -0.044573  0.004574 -0.029032
  5C   2py       -0.059901  0.009410 -0.056237  0.015943 -0.070028  0.082598
  5C   1dz2       0.000335  0.000320  0.006327 -0.005989 -0.005479 -0.008566
  5C   1dxz       0.000235  0.003997  0.001146  0.003780 -0.003888 -0.008827
  5C   1dyz       0.000212  0.001780 -0.008623 -0.004314 -0.021259 -0.023187
  5C   1dx2y2    -0.009773 -0.013178 -0.007841 -0.000187 -0.001715  0.005687
  5C   1dxy      -0.008336  0.002137 -0.007025 -0.000001  0.002388 -0.002136
  6H   1s         0.091672  0.206153 -0.119186  0.040904  0.016780  0.066851
  6H   2s         0.028245  0.064140 -0.044944  0.015541  0.021315  0.074498
  6H   1pz        0.003116  0.000426 -0.000104 -0.008806 -0.002773 -0.008261
  6H   1px        0.004434  0.002687 -0.006745  0.002343  0.001758  0.002637
  6H   1py        0.002073  0.008722 -0.001755  0.000782 -0.001777 -0.001415
  7H   1s        -0.132236 -0.068111  0.161017  0.086741 -0.078417  0.065517
  7H   2s        -0.034203 -0.016441  0.075209  0.034461 -0.032532  0.115734
  7H   1pz       -0.003688 -0.002502  0.005797 -0.005228 -0.004036 -0.005954
  7H   1px       -0.002136 -0.007090  0.003279  0.004396  0.000386  0.001144
  7H   1py        0.002031 -0.003103 -0.001114 -0.006606  0.001401 -0.000819
  8H   1s        -0.243631  0.000044  0.203460  0.000011 -0.037229 -0.009914
  8H   2s        -0.076819  0.000016  0.079723  0.000004 -0.012986 -0.001913
  8H   1pz        0.004076 -0.000001 -0.000620  0.000001 -0.013597  0.017266
  8H   1px        0.005591  0.003705 -0.003877 -0.000285  0.001657 -0.001318
  8H   1py       -0.009737  0.002129  0.006756 -0.000163 -0.002886  0.002295
  9H   1s         0.091721 -0.206213 -0.119237 -0.040907  0.016787  0.066854
  9H   2s         0.028271 -0.064165 -0.044956 -0.015539  0.021332  0.074508
  9H   1pz        0.003117 -0.000427 -0.000105  0.008806 -0.002774 -0.008260
  9H   1px       -0.004029  0.008891  0.004919  0.001857  0.000647 -0.000108
  9H   1py       -0.002790 -0.002077  0.004940  0.001629 -0.002413 -0.002992
 10H   1s         0.132197 -0.068226  0.161043 -0.086722  0.078418  0.065515
 10H   2s         0.034193 -0.016472  0.075216 -0.034450  0.032533  0.115731
 10H   1pz       -0.003686  0.002505 -0.005797 -0.005229 -0.004036  0.005954
 10H   1px       -0.002133  0.007093 -0.003281  0.004396  0.000385 -0.001145
 10H   1py        0.002033  0.003102  0.001115 -0.006606  0.001400  0.000819
 11H   1s         0.243632 -0.000085  0.203461  0.000011  0.037230 -0.009913
 11H   2s         0.076819 -0.000025  0.079723  0.000007  0.012986 -0.001912
 11H   1pz        0.004076 -0.000001  0.000620 -0.000000 -0.013597 -0.017266
 11H   1px        0.005588 -0.003708  0.003877 -0.000285  0.001658  0.001318
 11H   1py       -0.009739 -0.002124 -0.006757 -0.000164 -0.002886 -0.002295
 12H   1s        -0.091833 -0.206200 -0.119219  0.040905 -0.016781  0.066855
 12H   2s        -0.028305 -0.064163 -0.044951  0.015537 -0.021329  0.074510
 12H   1pz        0.003117  0.000426  0.000104  0.008806 -0.002774  0.008260
 12H   1px       -0.004034 -0.008890 -0.004918  0.001857  0.000647  0.000108
 12H   1py       -0.002788  0.002077 -0.004940  0.001629 -0.002413  0.002991
 13H   1s         0.132372  0.068141  0.161022  0.086743  0.078417  0.065501
 13H   2s         0.034243  0.016446  0.075203  0.034458  0.032496  0.115715
 13H   1pz       -0.003692 -0.002502 -0.005797  0.005228 -0.004037  0.005955
 13H   1px       -0.000677  0.006255  0.000691 -0.003487 -0.001402 -0.000130
 13H   1py        0.002874  0.004560  0.003392  0.007128  0.000372  0.001399
 14H   1s        -0.132344  0.068161  0.161051 -0.086728 -0.078416  0.065501
 14H   2s        -0.034237  0.016450  0.075211 -0.034448 -0.032496  0.115713
 14H   1pz       -0.003690  0.002502  0.005797  0.005228 -0.004037 -0.005955
 14H   1px       -0.000681 -0.006255 -0.000691 -0.003487 -0.001402  0.000130
 14H   1py        0.002873 -0.004559 -0.003394  0.007128  0.000371 -0.001400
 15H   1s        -0.091562  0.206274 -0.119213 -0.040920 -0.016786  0.066850
 15H   2s        -0.028211  0.064175 -0.044952 -0.015549 -0.021317  0.074498
 15H   1pz        0.003115 -0.000428  0.000105 -0.008806 -0.002773  0.008262
 15H   1px        0.004433 -0.002692  0.006745  0.002344  0.001758 -0.002637
 15H   1py        0.002069 -0.008726  0.001756  0.000782 -0.001777  0.001415
                     24        25        26        27        28        29   
                  -0.08597  -0.03436  -0.00949   0.00547   0.01060   0.02924
                   0.00000   0.00000   0.00000   0.00000   0.00000   0.00000
                  --------  --------  --------  --------  --------  --------
  0C   1s        -0.056962  0.024272  0.063132  0.019436  0.076362 -0.028324
  0C   2s         0.130903 -0.029550 -0.157989 -0.055876 -0.185415  0.070763
  0C   3s         0.444325 -0.655469 -0.839772 -0.209162 -1.230076  0.373743
  0C   1pz        0.347515 -0.231766  0.046933 -0.208328  0.061705 -0.123561
  0C   1px       -0.059307  0.056570  0.043619  0.044666  0.071182 -0.084472
  0C   1py        0.112713 -0.139517  0.086427  0.070076  0.023822  0.133875
  0C   2pz        0.464369 -0.414002  0.111516 -0.373734  0.182983 -0.263241
  0C   2px       -0.067119 -0.104737  0.059768  0.092014  0.038790 -0.226038
  0C   2py        0.135358 -0.362246  0.143028  0.097631  0.067619  0.334525
  0C   1dz2      -0.015966  0.021335 -0.006607  0.009047 -0.007441 -0.002446
  0C   1dxz       0.010309  0.009657 -0.005724 -0.000502  0.006089  0.003033
  0C   1dyz      -0.013701  0.002336 -0.001561  0.002956 -0.009147  0.007416
  0C   1dx2y2     0.002095  0.007208 -0.003344 -0.003985 -0.000987  0.003036
  0C   1dxy       0.001491 -0.015867  0.016622  0.010651 -0.008679  0.020748
  1C   1s         0.000001 -0.010688  0.019395  0.060682  0.000061  0.014778
  1C   2s        -0.000008 -0.010719 -0.075297 -0.185305 -0.000220 -0.023570
  1C   3s         0.000052  0.878034  0.046137 -0.527481 -0.000243 -0.051386
  1C   1pz       -0.000001  0.192053 -0.099983  0.115784  0.000030  0.071673
  1C   1px       -0.017801  0.024991 -0.069100 -0.078254 -0.073068 -0.043858
  1C   1py       -0.010217 -0.043544  0.120346  0.136479 -0.041760  0.076420
  1C   2pz        0.000017  0.335811 -0.167891  0.201622  0.000094  0.127795
  1C   2px        0.050250 -0.075277 -0.181607 -0.190680 -0.404284 -0.080534
  1C   2py        0.028892  0.131169  0.315630  0.332491 -0.231600  0.140599
  1C   1dz2       0.000001  0.012641  0.001851  0.000500 -0.000002 -0.007528
  1C   1dxz      -0.027090  0.002636 -0.000172  0.007055 -0.010208  0.001026
  1C   1dyz      -0.015553 -0.004588  0.000300 -0.012268 -0.005873 -0.001786
  1C   1dx2y2     0.006896  0.013423 -0.011586 -0.007287 -0.010822 -0.015502
  1C   1dxy      -0.004026  0.022991 -0.019840 -0.012498  0.006301 -0.026557
  2C   1s         0.056974  0.024253  0.063113  0.019545 -0.076312 -0.028307
  2C   2s        -0.130942 -0.029522 -0.157970 -0.056106  0.185256  0.070740
  2C   3s        -0.444434 -0.655152 -0.838855 -0.210866  1.229305  0.373255
  2C   1pz       -0.347544 -0.231720  0.046943 -0.208204 -0.061947 -0.123556
  2C   1px        0.067433  0.091974 -0.096714 -0.083157  0.056309 -0.072901
  2C   1py       -0.108067 -0.119174  0.005933 -0.003335  0.049437  0.140418
  2C   2pz       -0.464396 -0.413987  0.111481 -0.373429 -0.183308 -0.263169
  2C   2px        0.083096  0.365629 -0.154049 -0.130828  0.077848 -0.174420
  2C   2py       -0.126223 -0.092106  0.020308 -0.030331 -0.000603  0.363863
  2C   1dz2       0.015968  0.021335 -0.006610  0.009035  0.007452 -0.002443
  2C   1dxz      -0.006632 -0.006887  0.004239 -0.002292 -0.004828 -0.007935
  2C   1dyz       0.015811 -0.007163  0.004155  0.001908  0.009879  0.001119
  2C   1dx2y2    -0.000270 -0.017361  0.016119  0.011223  0.007101  0.016573
  2C   1dxy      -0.002557 -0.001519  0.005257  0.001759  0.005127  0.012839
  3C   1s        -0.056964 -0.024261  0.063146 -0.019425 -0.076355 -0.028315
  3C   2s         0.130906  0.029526 -0.158021  0.055847  0.185394  0.070740
[...]


Summary of corrections to the electronic energy:
(perhaps to be used in another calculation)
Total thermal correction                  0.00597013 Eh       3.75 kcal/mol
Non-thermal (ZPE) correction              0.13709293 Eh      86.03 kcal/mol
-----------------------------------------------------------------------
Total correction                          0.14306305 Eh      89.77 kcal/mol


--------
ENTHALPY
--------

The enthalpy is H = U + kB*T
                kB is Boltzmann's constant
Total free energy                 ...   -234.17713319 Eh 
Thermal Enthalpy correction       ...      0.00094421 Eh       0.59 kcal/mol
-----------------------------------------------------------------------
Total Enthalpy                    ...   -234.17618898 Eh


Note: Only C1 symmetry has been detected, increase convergence thresholds 
      if your molecule has a higher symmetry. Symmetry factor of 1.0 is   
      used for the rotational entropy correction. 
 

Note: Rotational entropy computed according to Herzberg 
Infrared and Raman Spectra, Chapter V,1, Van Nostrand Reinhold, 1945 
Point Group:  C1, Symmetry Number:   1  
Rotational constants in cm-1:     0.147972     0.139917     0.082821 

Vibrational entropy computed according to the QRRHO of S. Grimme
Chem.Eur.J. 2012 18 9955


-------
ENTROPY
-------

The entropy contributions are T*S = T*(S(el)+S(vib)+S(rot)+S(trans))
     S(el)   - electronic entropy
     S(vib)  - vibrational entropy
     S(rot)  - rotational entropy
     S(trans)- translational entropy
The entropies will be listed as mutliplied by the temperature to get
units of energy

Electronic entropy                ...      0.00000000 Eh      0.00 kcal/mol
Vibrational entropy               ...      0.00464931 Eh      2.92 kcal/mol
Rotational entropy                ...      0.01251732 Eh      7.85 kcal/mol
Translational entropy             ...      0.01859270 Eh     11.67 kcal/mol
-----------------------------------------------------------------------
Final entropy term                ...      0.03575933 Eh     22.44 kcal/mol

In case the symmetry of your molecule has not been determined correctly
or in case you have a reason to use a different symmetry number we print 
out the resulting rotational entropy values for sn=1,12 :
 --------------------------------------------------------
|  sn= 1 | S(rot)=       0.01251732 Eh      7.85 kcal/mol|
|  sn= 2 | S(rot)=       0.01186287 Eh      7.44 kcal/mol|
|  sn= 3 | S(rot)=       0.01148004 Eh      7.20 kcal/mol|
|  sn= 4 | S(rot)=       0.01120841 Eh      7.03 kcal/mol|
|  sn= 5 | S(rot)=       0.01099772 Eh      6.90 kcal/mol|
|  sn= 6 | S(rot)=       0.01082558 Eh      6.79 kcal/mol|
|  sn= 7 | S(rot)=       0.01068003 Eh      6.70 kcal/mol|
|  sn= 8 | S(rot)=       0.01055395 Eh      6.62 kcal/mol|
|  sn= 9 | S(rot)=       0.01044275 Eh      6.55 kcal/mol|
|  sn=10 | S(rot)=       0.01034327 Eh      6.49 kcal/mol|
|  sn=11 | S(rot)=       0.01025328 Eh      6.43 kcal/mol|
|  sn=12 | S(rot)=       0.01017112 Eh      6.38 kcal/mol|
 --------------------------------------------------------


-------------------
GIBBS FREE ENERGY
-------------------

The Gibbs free energy is G = H - T*S

Total enthalpy                    ...   -234.17618898 Eh 
Total entropy correction          ...     -0.03575933 Eh    -22.44 kcal/mol
-----------------------------------------------------------------------
Final Gibbs free energy         ...   -234.21194831 Eh

For completeness - the Gibbs free energy minus the electronic energy
G-E(el)                           ...      0.10824793 Eh     67.93 kcal/mol




------------------------------------------------------------------------------- 
                    Intrinsic Reaction Coordinate Calculation                  
------------------------------------------------------------------------------- 

System:
Nr. of atoms                        .... 16
Algorithm: SD (steepest descent step) plus correction
Settings:
Max. no of cycles        MaxIter    .... 1000
Direction                           .... Forward and backward
Initial displacement Hessian type   .... Read
Hessian Filename                    .... cope.hess
Following Hessian mode              .... 0
Initial displacement type           .... Energy
  Initial displacement energy change.... 2.000 mEh
Coordinate system following type    .... Cartesian
Length of steepest descent step     .... 0.150 bohr
Do parabolic fit 
  if SD step is uphill              .... YES
Do Correction to SD step            .... YES
Scaling for length of correction
  compared to SD step               .... 0.333
Do parabolic fit to SD correction   .... YES
Only interpolate for parabolic fit  .... YES
Do update to length of
  SD step and correction            .... YES
Convergence Tolerances:
  Max. Gradient            TolMAXG  ....  2.0000e-03 Eh/bohr
  RMS Gradient             TolRMSG  ....  5.0000e-04 Eh/bohr
Storing full IRC trajectory in      .... cope_IRC_Full_trj.xyz
Storing forward trajectory in       .... cope_IRC_F_trj.xyz
Storing backward trajectory in      .... cope_IRC_B_trj.xyz


 ...good, the file cope.hess exists
Reading the hessian file           ...... done
Determining length of initial displacement:
  Requested energy change (quadratic behavior): 2.000 mEh
  Resulting scaling factor for initial displacement along normalized TS mode: 0.2299

         *************************************************************
         *                          FORWARD IRC                      *
         *************************************************************

Iteration    E(Eh)      dE(kcal/mol)  max(|G|)   RMS(G) 
Convergence thresholds                0.002000  0.000500            
    0      -234.323172   -1.867175    0.009834  0.002474
    1      -234.327127   -4.348979    0.015570  0.003911
    2      -234.330867   -6.696065    0.016317  0.003948
    3      -234.334862   -9.202654    0.015520  0.003764
    4      -234.338369   -11.403445    0.012404  0.003265
    5      -234.341130   -13.135878    0.008640  0.002625
    6      -234.343429   -14.578700    0.007541  0.002291
    7      -234.345397   -15.813958    0.007202  0.002281
    8      -234.345984   -16.181813    0.007034  0.002171
    9      -234.346835   -16.715768    0.006669  0.001809
   10      -234.347747   -17.288396    0.006348  0.001754
   11      -234.348599   -17.822666    0.006000  0.001642
   12      -234.349420   -18.338238    0.005672  0.001567
   13      -234.350198   -18.826385    0.005354  0.001483
   14      -234.350940   -19.292155    0.005041  0.001414
   15      -234.351643   -19.732851    0.004749  0.001338
   16      -234.352311   -20.152325    0.004459  0.001276
   17      -234.352941   -20.547709    0.004187  0.001222
   18      -234.353532   -20.918285    0.003930  0.001188
   19      -234.354074   -21.258268    0.003676  0.001238
   20      -234.354288   -21.392685    0.003586  0.001233
   21      -234.354526   -21.542185    0.003486  0.001031
   22      -234.354789   -21.707489    0.003371  0.001009
   23      -234.355043   -21.866847    0.003252  0.000979
   24      -234.355291   -22.022048    0.003145  0.000950
   25      -234.355531   -22.173037    0.003031  0.000923
   26      -234.355765   -22.319720    0.002929  0.000897
   27      -234.355992   -22.462256    0.002820  0.000871
   28      -234.356213   -22.600610    0.002722  0.000846
   29      -234.356427   -22.734899    0.002618  0.000822
   30      -234.356634   -22.865111    0.002525  0.000799
   31      -234.356835   -22.991179    0.002424  0.000778
   32      -234.357029   -23.112999    0.002337  0.000760
   33      -234.357216   -23.230132    0.002240  0.000747
   34      -234.357394   -23.341994    0.002161  0.000745
   35      -234.357562   -23.447073    0.002070  0.000757
   36      -234.357716   -23.544039    0.002008  0.000792
   37      -234.357855   -23.631123    0.002402  0.000827
   38      -234.357918   -23.670976    0.001903  0.000723
   39      -234.357993   -23.717638    0.001874  0.000629
   40      -234.358074   -23.768409    0.001832  0.000620
   41      -234.358153   -23.818174    0.001797  0.000609
   42      -234.358231   -23.867175    0.001754  0.000600
   43      -234.358308   -23.915281    0.001721  0.000589
   44      -234.358383   -23.962661    0.001680  0.000580
   45      -234.358457   -24.009172    0.001646  0.000570
   46      -234.358530   -24.054992    0.001608  0.000561
   47      -234.358602   -24.099955    0.001575  0.000551
   48      -234.358673   -24.144237    0.001536  0.000542
   49      -234.358742   -24.187709    0.001505  0.000532
   50      -234.358810   -24.230511    0.001469  0.000524
   51      -234.358877   -24.272511    0.001438  0.000514
   52      -234.358943   -24.313858    0.001402  0.000506
   53      -234.359008   -24.354440    0.001372  0.000497

                      ***********************HURRAY********************
                      ***            THE IRC HAS CONVERGED          ***
                      *************************************************


         *************************************************************
         *                          BACKWARD IRC                     *
         *************************************************************

Iteration    E(Eh)      dE(kcal/mol)  max(|G|)   RMS(G) 
Convergence thresholds                0.002000  0.000500            
    0      -234.323170   -1.866286    0.009813  0.002473
    1      -234.327126   -4.348349    0.015561  0.003911
    2      -234.330866   -6.695526    0.016303  0.003948
    3      -234.334861   -9.202059    0.015515  0.003764
    4      -234.338368   -11.403197    0.012402  0.003266
    5      -234.341129   -13.135352    0.008598  0.002627
    6      -234.343427   -14.577330    0.007545  0.002294
    7      -234.345393   -15.811104    0.007202  0.002289
    8      -234.345972   -16.174292    0.007023  0.002167
    9      -234.346825   -16.709505    0.006673  0.001810
   10      -234.347738   -17.282599    0.006348  0.001758
   11      -234.348588   -17.816221    0.006004  0.001645
   12      -234.349409   -18.331389    0.005673  0.001566
   13      -234.350189   -18.820508    0.005355  0.001487
   14      -234.350930   -19.285450    0.005046  0.001418
   15      -234.351630   -19.725222    0.004747  0.001356
   16      -234.352290   -20.139230    0.004469  0.001313
   17      -234.352902   -20.522819    0.004194  0.001319
   18      -234.353444   -20.863305    0.003971  0.001408
   19      -234.353647   -20.990819    0.003878  0.001286
   20      -234.353906   -21.152991    0.003764  0.001099
   21      -234.354186   -21.328782    0.003644  0.001077
   22      -234.354456   -21.498359    0.003517  0.001044
   23      -234.354720   -21.663809    0.003404  0.001014
   24      -234.354976   -21.824887    0.003285  0.000985
   25      -234.355226   -21.981531    0.003175  0.000957
   26      -234.355469   -22.133790    0.003062  0.000930
   27      -234.355704   -22.281711    0.002957  0.000903
   28      -234.355934   -22.425437    0.002849  0.000877
   29      -234.356156   -22.564974    0.002749  0.000851
   30      -234.356372   -22.700498    0.002646  0.000827
   31      -234.356581   -22.831956    0.002550  0.000802
   32      -234.356785   -22.959557    0.002451  0.000779
   33      -234.356982   -23.083156    0.002360  0.000757
   34      -234.357172   -23.202816    0.002265  0.000737
   35      -234.357356   -23.318220    0.002184  0.000722
   36      -234.357533   -23.428886    0.002092  0.000712
   37      -234.357700   -23.534000    0.002027  0.000721
   38      -234.357855   -23.631147    0.001934  0.000741
   39      -234.357996   -23.719492    0.001899  0.000806
   40      -234.358046   -23.750773    0.001862  0.000687
   41      -234.358119   -23.797098    0.001811  0.000613
   42      -234.358198   -23.846448    0.001774  0.000604
   43      -234.358275   -23.894878    0.001734  0.000593
   44      -234.358351   -23.942584    0.001699  0.000584
   45      -234.358426   -23.989470    0.001660  0.000574
   46      -234.358499   -24.035581    0.001626  0.000564
   47      -234.358572   -24.080933    0.001587  0.000555
   48      -234.358643   -24.125494    0.001554  0.000545
   49      -234.358713   -24.169350    0.001517  0.000537
   50      -234.358781   -24.212396    0.001485  0.000527
   51      -234.358849   -24.254791    0.001449  0.000519
   52      -234.358915   -24.296361    0.001418  0.000509
   53      -234.358980   -24.337321    0.001383  0.000501
   54      -234.359044   -24.377474    0.001354  0.000491

                      ***********************HURRAY********************
                      ***            THE IRC HAS CONVERGED          ***
                      *************************************************


---------------------------------------------------------------
                       IRC PATH SUMMARY              
---------------------------------------------------------------
All gradients are in Eh/Bohr.

Step        E(Eh)      dE(kcal/mol)  max(|G|)   RMS(G) 
   1      -234.359044   -24.377474    0.001354  0.000491
   2      -234.358980   -24.337321    0.001383  0.000501
   3      -234.358915   -24.296361    0.001418  0.000509
   4      -234.358849   -24.254791    0.001449  0.000519
   5      -234.358781   -24.212396    0.001485  0.000527
   6      -234.358713   -24.169350    0.001517  0.000537
   7      -234.358643   -24.125494    0.001554  0.000545
   8      -234.358572   -24.080933    0.001587  0.000555
   9      -234.358499   -24.035581    0.001626  0.000564
  10      -234.358426   -23.989470    0.001660  0.000574
  11      -234.358351   -23.942584    0.001699  0.000584
  12      -234.358275   -23.894878    0.001734  0.000593
  13      -234.358198   -23.846448    0.001774  0.000604
  14      -234.358119   -23.797098    0.001811  0.000613
  15      -234.358046   -23.750773    0.001862  0.000687
  16      -234.357996   -23.719492    0.001899  0.000806
  17      -234.357855   -23.631147    0.001934  0.000741
  18      -234.357700   -23.534000    0.002027  0.000721
  19      -234.357533   -23.428886    0.002092  0.000712
  20      -234.357356   -23.318220    0.002184  0.000722
  21      -234.357172   -23.202816    0.002265  0.000737
  22      -234.356982   -23.083156    0.002360  0.000757
  23      -234.356785   -22.959557    0.002451  0.000779
  24      -234.356581   -22.831956    0.002550  0.000802
  25      -234.356372   -22.700498    0.002646  0.000827
  26      -234.356156   -22.564974    0.002749  0.000851
  27      -234.355934   -22.425437    0.002849  0.000877
  28      -234.355704   -22.281711    0.002957  0.000903
  29      -234.355469   -22.133790    0.003062  0.000930
  30      -234.355226   -21.981531    0.003175  0.000957
  31      -234.354976   -21.824887    0.003285  0.000985
  32      -234.354720   -21.663809    0.003404  0.001014
  33      -234.354456   -21.498359    0.003517  0.001044
  34      -234.354186   -21.328782    0.003644  0.001077
  35      -234.353906   -21.152991    0.003764  0.001099
  36      -234.353647   -20.990819    0.003878  0.001286
  37      -234.353444   -20.863305    0.003971  0.001408
  38      -234.352902   -20.522819    0.004194  0.001319
  39      -234.352290   -20.139230    0.004469  0.001313
  40      -234.351630   -19.725222    0.004747  0.001356
  41      -234.350930   -19.285450    0.005046  0.001418
  42      -234.350189   -18.820508    0.005355  0.001487
  43      -234.349409   -18.331389    0.005673  0.001566
  44      -234.348588   -17.816221    0.006004  0.001645
  45      -234.347738   -17.282599    0.006348  0.001758
  46      -234.346825   -16.709505    0.006673  0.001810
  47      -234.345972   -16.174292    0.007023  0.002167
  48      -234.345393   -15.811104    0.007202  0.002289
  49      -234.343427   -14.577330    0.007545  0.002294
  50      -234.341129   -13.135352    0.008598  0.002627
  51      -234.338368   -11.403197    0.012402  0.003266
  52      -234.334861   -9.202059    0.015515  0.003764
  53      -234.330866   -6.695526    0.016303  0.003948
  54      -234.327126   -4.348349    0.015561  0.003911
  55      -234.323170   -1.866286    0.009813  0.002473
  56      -234.320196    0.000000    0.000037  0.000015 <= TS
  57      -234.323172   -1.867175    0.009834  0.002474
  58      -234.327127   -4.348979    0.015570  0.003911
  59      -234.330867   -6.696065    0.016317  0.003948
  60      -234.334862   -9.202654    0.015520  0.003764
  61      -234.338369   -11.403445    0.012404  0.003265
  62      -234.341130   -13.135878    0.008640  0.002625
  63      -234.343429   -14.578700    0.007541  0.002291
  64      -234.345397   -15.813958    0.007202  0.002281
  65      -234.345984   -16.181813    0.007034  0.002171
  66      -234.346835   -16.715768    0.006669  0.001809
  67      -234.347747   -17.288396    0.006348  0.001754
  68      -234.348599   -17.822666    0.006000  0.001642
  69      -234.349420   -18.338238    0.005672  0.001567
  70      -234.350198   -18.826385    0.005354  0.001483
  71      -234.350940   -19.292155    0.005041  0.001414
  72      -234.351643   -19.732851    0.004749  0.001338
  73      -234.352311   -20.152325    0.004459  0.001276
  74      -234.352941   -20.547709    0.004187  0.001222
  75      -234.353532   -20.918285    0.003930  0.001188
  76      -234.354074   -21.258268    0.003676  0.001238
  77      -234.354288   -21.392685    0.003586  0.001233
  78      -234.354526   -21.542185    0.003486  0.001031
  79      -234.354789   -21.707489    0.003371  0.001009
  80      -234.355043   -21.866847    0.003252  0.000979
  81      -234.355291   -22.022048    0.003145  0.000950
  82      -234.355531   -22.173037    0.003031  0.000923
  83      -234.355765   -22.319720    0.002929  0.000897
  84      -234.355992   -22.462256    0.002820  0.000871
  85      -234.356213   -22.600610    0.002722  0.000846
  86      -234.356427   -22.734899    0.002618  0.000822
  87      -234.356634   -22.865111    0.002525  0.000799
  88      -234.356835   -22.991179    0.002424  0.000778
  89      -234.357029   -23.112999    0.002337  0.000760
  90      -234.357216   -23.230132    0.002240  0.000747
  91      -234.357394   -23.341994    0.002161  0.000745
  92      -234.357562   -23.447073    0.002070  0.000757
  93      -234.357716   -23.544039    0.002008  0.000792
  94      -234.357855   -23.631123    0.002402  0.000827
  95      -234.357918   -23.670976    0.001903  0.000723
  96      -234.357993   -23.717638    0.001874  0.000629
  97      -234.358074   -23.768409    0.001832  0.000620
  98      -234.358153   -23.818174    0.001797  0.000609
  99      -234.358231   -23.867175    0.001754  0.000600
 100      -234.358308   -23.915281    0.001721  0.000589
 101      -234.358383   -23.962661    0.001680  0.000580
 102      -234.358457   -24.009172    0.001646  0.000570
 103      -234.358530   -24.054992    0.001608  0.000561
 104      -234.358602   -24.099955    0.001575  0.000551
 105      -234.358673   -24.144237    0.001536  0.000542
 106      -234.358742   -24.187709    0.001505  0.000532
 107      -234.358810   -24.230511    0.001469  0.000524
 108      -234.358877   -24.272511    0.001438  0.000514
 109      -234.358943   -24.313858    0.001402  0.000506
 110      -234.359008   -24.354440    0.001372  0.000497

Timings for individual modules:

Sum of individual times         ...     6692.985 sec (= 111.550 min)
GTO integral calculation        ...       50.372 sec (=   0.840 min)   0.8 %
SCF iterations                  ...     4578.802 sec (=  76.313 min)  68.4 %
SCF Gradient evaluation         ...     1660.498 sec (=  27.675 min)  24.8 %
Geometry relaxation             ...        1.670 sec (=   0.028 min)   0.0 %
Analytical frequency calculation...      401.642 sec (=   6.694 min)   6.0 %
                             ****ORCA TERMINATED NORMALLY****
TOTAL RUN TIME: 0 days 1 hours 52 minutes 22 seconds 656 msec
