
                                 *****************
                                 * O   R   C   A *
                                 *****************

           --- An Ab Initio, DFT and Semiempirical electronic structure package ---

                  ######################################################
                  #                        -***-                       #
                  #  Department of molecular theory and spectroscopy   #
                  #              Directorship: Frank Neese             #
                  #   Max Planck Institute for Bioinorganic Chemistry  #
                  #                  D-45470 Muelheim/Ruhr             #
                  #                       Germany                      #
                  #                                                    #
                  #                  All rights reserved               #
                  #                        -***-                       #
                  ######################################################


                         Program Version 2.9.1 -  RELEASE  -


 With contributions from (in alphabetic order):
   Ute Becker             : Parallelization
   Dmitry Ganyushin       : Spin-Orbit,Spin-Spin,Magnetic field MRCI
   Andreas Hansen         : Spin unrestricted coupled pair/coupled cluster methods
   Dimitrios Liakos       : Parallel MDCI
   Robert Izsak           : Overlap fitted RIJCOSX
   Christian Kollmar      : KDIIS, orbital optimized coupled pair methods, Brueckner methods
   Simone Kossmann        : Meta GGA functionals, improved MP2 methods
   Taras Petrenko         : TD-DFT gradient, Resonance Raman, ABS, fluorescence, XAS, NRVS
   Christoph Reimann      : Effective Core Potentials
   Michael Roemelt        : Restricted open shell CI
   Christoph Riplinger    : Improved optimizer, TS searches, QM/MM
   Barbara Sandhoefer     : DKH, picture change effects
   Igor Schapiro          : Molecular dynamics
   Kantharuban Sivalingam : CASSCF and multireference perturbation theory
   Boris Wezisla          : Elementary symmetry handling
   Frank Wennmohs         : Technical directorship


 We gratefully acknowledge several collegues who have allowed us to
 interface, adapt or use parts of their codes:
   Stefan Grimme                                : VdW corrections, initial TS optimization
                                                  and many helpful discussions
   Ed Valeev                                    : LibInt (2-el integral package), F12 methods
   Andreas Klamt, Michael Diedenhofen           : otool_cosmo (COSMO solvation model)
   Frank Weinhold                               : gennbo (NPA and NBO analysis)


 Your calculation uses the libint2 library for the computation of 2-el integrals
 For citations please refer to: http://libint.valeyev.net

leaving
================================================================================
                                        WARNINGS
                       Please study these warnings very carefully!
================================================================================
Now building the actual basis set

WARNING: Direct SCF is incompatible with Method<>HF and Method<>DFT
  ===> : conventional SCF is chosen

WARNING: The NDO methods need Guess=HUECKEL or Guess=HCORE or Guess=MOREAD
  ===> : Guess is set to Hueckel

WARNING: The NDO methods need %rel::SOCType==1
  ===> : %rel::SOCType is set to 1

WARNING: The NDO methods cannot have frozencore=1
  ===> : %method FrozenCore=0 end


INFO   : the flag for use of LIBINT has been found!

================================================================================
                                       INPUT FILE
================================================================================
NAME = PCB_1_122.inp
|  1> ! ENGRAD AM1  EXTREMESCF SCFCONV10
|  2> %output
|  3> Print[P_MOs] 1
|  4> Print[P_Overlap] 1
|  5> end
|  6> * xyz 0 1
|  7> C  -1.065  8.206 11.591
|  8> C  -0.495  9.628 11.809
|  9> C  -1.139 10.275 13.011
| 10> C  -0.689 11.716 13.181
| 11> C  -1.484 12.450 14.257
| 12> C  -1.826 13.910 14.006
| 13> C  -2.935 12.724 13.944
| 14> C  -4.043 12.854 14.912
| 15> C  -4.077 13.790 15.900
| 16> C  -3.092 14.855 15.969
| 17> C  -2.086 14.948 15.035
| 18> C  -1.758 16.236 14.464
| 19> C  -2.391 17.392 14.910
| 20> C  -2.768 18.427 13.955
| 21> C  -4.033 18.983 14.384
| 22> C  -4.989 19.327 13.424
| 23> C  -6.371 19.010 13.641
| 24> C  -6.944 18.629 12.371
| 25> C  -7.885 17.627 12.320
| 26> C  -8.295 16.937 13.522
| 27> C  -7.742 17.294 14.725
| 28> C  -6.762 18.343 14.805
| 29> C  -5.777 17.972 15.790
| 30> C  -4.447 18.278 15.585
| 31> C  -3.423 17.300 15.916
| 32> C  -3.776 16.064 16.417
| 33> C  -5.159 15.740 16.625
| 34> C  -6.146 16.688 16.322
| 35> C  -7.360 16.254 15.679
| 36> C  -7.561 14.923 15.365
| 37> C  -6.531 13.947 15.702
| 38> C  -5.357 14.360 16.311
| 39> C  -6.484 12.992 14.639
| 40> C  -5.267 12.473 14.233
| 41> C  -4.974 12.296 12.837
| 42> C  -3.583 12.555 12.613
| 43> C  -3.188 13.242 11.476
| 44> C  -2.194 14.311 11.559
| 45> C  -1.622 14.669 12.744
| 46> C  -1.478 16.050 13.075
| 47> C  -1.838 17.063 12.160
| 48> C  -2.485 18.256 12.619
| 49> C  -3.486 18.628 11.616
| 50> C  -4.693 19.147 12.028
| 51> C  -5.915 18.704 11.365
| 52> C  -5.870 17.776 10.360
| 53> C  -4.585 17.230  9.947
| 54> C  -3.433 17.646 10.561
| 55> C  -2.397 16.680 10.900
| 56> C  -2.591 15.343 10.608
| 57> C  -3.807 14.908  9.963
| 58> C  -4.794 15.849  9.632
| 59> C  -6.183 15.529  9.834
| 60> C  -6.834 16.738 10.292
| 61> C  -7.844 16.647 11.250
| 62> C  -8.223 15.365 11.788
| 63> C  -8.500 15.543 13.180
| 64> C  -8.141 14.553 14.087
| 65> C  -7.470 13.360 13.637
| 66> C  -7.206 13.186 12.285
| 67> C  -7.579 14.216 11.331
| 68> C  -6.528 14.305 10.337
| 69> C  -5.505 13.325 10.674
| 70> C  -5.933 12.647 11.866
| 71> C  -4.172 13.631 10.494
| 72> C  -1.127 12.069 15.669
| 73> C  -1.798 11.085 16.361
| 74> C  -1.409 10.740 17.643
| 75> C  -0.347 11.358 18.235
| 76> C   0.341 12.338 17.551
| 77> C  -0.051 12.684 16.285
| 78> C  -0.876  6.177 10.555
| 79> H  -0.729 10.195 11.017
| 80> H   0.520  9.624 11.917
| 81> H  -2.135 10.277 12.888
| 82> H  -0.884  9.765 13.836
| 83> H  -0.781 12.183 12.291
| 84> H   0.296 11.693 13.426
| 85> H  -2.574 10.629 15.940
| 86> H  -1.888 10.050 18.130
| 87> H  -0.082 11.108 19.136
| 88> H   1.087 12.769 17.956
| 89> H   0.415 13.397 15.819
| 90> H  -0.321  5.725  9.931
| 91> H  -1.764  6.213 10.220
| 92> H  -0.869  5.708 11.382
| 93> O  -0.363  7.556 10.766
| 94> O  -1.978  7.804 12.053
| 95> *
| 96> 
| 97>                          ****END OF INPUT****
================================================================================

                     *******************************
                     * Energy+Gradient Calculation *
                     *******************************

---------------------------------
CARTESIAN COORDINATES (ANGSTROEM)
---------------------------------
  C     -1.065000    8.206000   11.591000
  C     -0.495000    9.628000   11.809000
  C     -1.139000   10.275000   13.011000
  C     -0.689000   11.716000   13.181000
  C     -1.484000   12.450000   14.257000
  C     -1.826000   13.910000   14.006000
  C     -2.935000   12.724000   13.944000
  C     -4.043000   12.854000   14.912000
  C     -4.077000   13.790000   15.900000
  C     -3.092000   14.855000   15.969000
  C     -2.086000   14.948000   15.035000
  C     -1.758000   16.236000   14.464000
  C     -2.391000   17.392000   14.910000
  C     -2.768000   18.427000   13.955000
  C     -4.033000   18.983000   14.384000
  C     -4.989000   19.327000   13.424000
  C     -6.371000   19.010000   13.641000
  C     -6.944000   18.629000   12.371000
  C     -7.885000   17.627000   12.320000
  C     -8.295000   16.937000   13.522000
  C     -7.742000   17.294000   14.725000
  C     -6.762000   18.343000   14.805000
  C     -5.777000   17.972000   15.790000
  C     -4.447000   18.278000   15.585000
  C     -3.423000   17.300000   15.916000
  C     -3.776000   16.064000   16.417000
  C     -5.159000   15.740000   16.625000
  C     -6.146000   16.688000   16.322000
  C     -7.360000   16.254000   15.679000
  C     -7.561000   14.923000   15.365000
  C     -6.531000   13.947000   15.702000
  C     -5.357000   14.360000   16.311000
  C     -6.484000   12.992000   14.639000
  C     -5.267000   12.473000   14.233000
  C     -4.974000   12.296000   12.837000
  C     -3.583000   12.555000   12.613000
  C     -3.188000   13.242000   11.476000
  C     -2.194000   14.311000   11.559000
  C     -1.622000   14.669000   12.744000
  C     -1.478000   16.050000   13.075000
  C     -1.838000   17.063000   12.160000
  C     -2.485000   18.256000   12.619000
  C     -3.486000   18.628000   11.616000
  C     -4.693000   19.147000   12.028000
  C     -5.915000   18.704000   11.365000
  C     -5.870000   17.776000   10.360000
  C     -4.585000   17.230000    9.947000
  C     -3.433000   17.646000   10.561000
  C     -2.397000   16.680000   10.900000
  C     -2.591000   15.343000   10.608000
  C     -3.807000   14.908000    9.963000
  C     -4.794000   15.849000    9.632000
  C     -6.183000   15.529000    9.834000
  C     -6.834000   16.738000   10.292000
  C     -7.844000   16.647000   11.250000
  C     -8.223000   15.365000   11.788000
  C     -8.500000   15.543000   13.180000
  C     -8.141000   14.553000   14.087000
  C     -7.470000   13.360000   13.637000
  C     -7.206000   13.186000   12.285000
  C     -7.579000   14.216000   11.331000
  C     -6.528000   14.305000   10.337000
  C     -5.505000   13.325000   10.674000
  C     -5.933000   12.647000   11.866000
  C     -4.172000   13.631000   10.494000
  C     -1.127000   12.069000   15.669000
  C     -1.798000   11.085000   16.361000
  C     -1.409000   10.740000   17.643000
  C     -0.347000   11.358000   18.235000
  C      0.341000   12.338000   17.551000
  C     -0.051000   12.684000   16.285000
  C     -0.876000    6.177000   10.555000
  H     -0.729000   10.195000   11.017000
  H      0.520000    9.624000   11.917000
  H     -2.135000   10.277000   12.888000
  H     -0.884000    9.765000   13.836000
  H     -0.781000   12.183000   12.291000
  H      0.296000   11.693000   13.426000
  H     -2.574000   10.629000   15.940000
  H     -1.888000   10.050000   18.130000
  H     -0.082000   11.108000   19.136000
  H      1.087000   12.769000   17.956000
  H      0.415000   13.397000   15.819000
  H     -0.321000    5.725000    9.931000
  H     -1.764000    6.213000   10.220000
  H     -0.869000    5.708000   11.382000
  O     -0.363000    7.556000   10.766000
  O     -1.978000    7.804000   12.053000

----------------------------
CARTESIAN COORDINATES (A.U.)
----------------------------
  NO LB      ZA    FRAG    MASS        X           Y           Z
   0 C     4.0000    0    12.011   -2.012558   15.507093   21.903816
   1 C     4.0000    0    12.011   -0.935414   18.194283   22.315776
   2 C     4.0000    0    12.011   -2.152398   19.416936   24.587227
   3 C     4.0000    0    12.011   -1.302021   22.140031   24.908480
   4 C     4.0000    0    12.011   -2.804354   23.527090   26.941825
   5 C     4.0000    0    12.011   -3.450640   26.286091   26.467504
   6 C     4.0000    0    12.011   -5.546346   24.044875   26.350341
   7 C     4.0000    0    12.011   -7.640163   24.290540   28.179596
   8 C     4.0000    0    12.011   -7.704413   26.059323   30.046646
   9 C     4.0000    0    12.011   -5.843033   28.071882   30.177037
  10 C     4.0000    0    12.011   -3.941969   28.247626   28.412032
  11 C     4.0000    0    12.011   -3.322139   30.681594   27.332999
  12 C     4.0000    0    12.011   -4.518335   32.866117   28.175817
  13 C     4.0000    0    12.011   -5.230762   34.821983   26.371128
  14 C     4.0000    0    12.011   -7.621265   35.872671   27.181821
  15 C     4.0000    0    12.011   -9.427844   36.522737   25.367684
  16 C     4.0000    0    12.011  -12.039445   35.923694   25.777754
  17 C     4.0000    0    12.011  -13.122258   35.203708   23.377802
  18 C     4.0000    0    12.011  -14.900491   33.310203   23.281426
  19 C     4.0000    0    12.011  -15.675278   32.006292   25.552877
  20 C     4.0000    0    12.011  -14.630260   32.680924   27.826217
  21 C     4.0000    0    12.011  -12.778328   34.663246   27.977395
  22 C     4.0000    0    12.011  -10.916948   33.962158   29.838776
  23 C     4.0000    0    12.011   -8.403612   34.540414   29.451382
  24 C     4.0000    0    12.011   -6.468533   32.692262   30.076881
  25 C     4.0000    0    12.011   -7.135606   30.356561   31.023634
  26 C     4.0000    0    12.011   -9.749097   29.744289   31.416697
  27 C     4.0000    0    12.011  -11.614257   31.535750   30.844110
  28 C     4.0000    0    12.011  -13.908384   30.715609   29.629016
  29 C     4.0000    0    12.011  -14.288219   28.200383   29.035642
  30 C     4.0000    0    12.011  -12.341801   26.356010   29.672480
  31 C     4.0000    0    12.011  -10.123263   27.136467   30.823323
  32 C     4.0000    0    12.011  -12.252984   24.551322   27.663701
  33 C     4.0000    0    12.011   -9.953188   23.570554   26.896472
  34 C     4.0000    0    12.011   -9.399498   23.236073   24.258414
  35 C     4.0000    0    12.011   -6.770889   23.725512   23.835116
  36 C     4.0000    0    12.011   -6.024447   25.023753   21.686497
  37 C     4.0000    0    12.011   -4.146059   27.043871   21.843344
  38 C     4.0000    0    12.011   -3.065136   27.720393   24.082670
  39 C     4.0000    0    12.011   -2.793015   30.330104   24.708169
  40 C     4.0000    0    12.011   -3.473317   32.244397   22.979070
  41 C     4.0000    0    12.011   -4.695969   34.498840   23.846454
  42 C     4.0000    0    12.011   -6.587585   35.201818   21.951059
  43 C     4.0000    0    12.011   -8.868485   36.182586   22.729626
  44 C     4.0000    0    12.011  -11.177730   35.345438   21.476738
  45 C     4.0000    0    12.011  -11.092692   33.591772   19.577563
  46 C     4.0000    0    12.011   -8.664394   32.559981   18.797106
  47 C     4.0000    0    12.011   -6.487430   33.346107   19.957398
  48 C     4.0000    0    12.011   -4.529674   31.520632   20.598015
  49 C     4.0000    0    12.011   -4.896280   28.994068   20.046215
  50 C     4.0000    0    12.011   -7.194187   28.172037   18.827341
  51 C     4.0000    0    12.011   -9.059347   29.950269   18.201842
  52 C     4.0000    0    12.011  -11.684177   29.345557   18.583567
  53 C     4.0000    0    12.011  -12.914388   31.630236   19.449061
  54 C     4.0000    0    12.011  -14.823012   31.458271   21.259419
  55 C     4.0000    0    12.011  -15.539218   29.035642   22.276092
  56 C     4.0000    0    12.011  -16.062672   29.372013   24.906590
  57 C     4.0000    0    12.011  -15.384260   27.501184   26.620572
  58 C     4.0000    0    12.011  -14.116254   25.246741   25.770195
  59 C     4.0000    0    12.011  -13.617367   24.917929   23.215286
  60 C     4.0000    0    12.011  -14.322234   26.864347   21.412487
  61 C     4.0000    0    12.011  -12.336132   27.032532   19.534099
  62 C     4.0000    0    12.011  -10.402942   25.180601   20.170937
  63 C     4.0000    0    12.011  -11.211745   23.899366   22.423490
  64 C     4.0000    0    12.011   -7.883937   25.758857   19.830786
  65 C     4.0000    0    12.011   -2.129721   22.807105   29.610119
  66 C     4.0000    0    12.011   -3.397728   20.947614   30.917809
  67 C     4.0000    0    12.011   -2.662624   20.295659   33.340438
  68 C     4.0000    0    12.011   -0.655735   21.463509   34.459156
  69 C     4.0000    0    12.011    0.644397   23.315441   33.166583
  70 C     4.0000    0    12.011   -0.096376   23.969286   30.774190
  71 C     4.0000    0    12.011   -1.655400   11.672838   19.946059
  72 H     1.0000    0     1.008   -1.377610   19.265758   20.819113
  73 H     1.0000    0     1.008    0.982658   18.186724   22.519866
  74 H     1.0000    0     1.008   -4.034565   19.420715   24.354790
  75 H     1.0000    0     1.008   -1.670518   18.453176   26.146251
  76 H     1.0000    0     1.008   -1.475876   23.022533   23.226624
  77 H     1.0000    0     1.008    0.559359   22.096568   25.371463
  78 H     1.0000    0     1.008   -4.864155   20.085899   30.122235
  79 H     1.0000    0     1.008   -3.567803   18.991748   34.260735
  80 H     1.0000    0     1.008   -0.154958   20.991078   36.161799
  81 H     1.0000    0     1.008    2.054132   24.129913   33.931922
  82 H     1.0000    0     1.008    0.784236   25.316661   29.893578
  83 H     1.0000    0     1.008   -0.606602   10.818682   18.766870
  84 H     1.0000    0     1.008   -3.333477   11.740868   19.313001
  85 H     1.0000    0     1.008   -1.642172   10.786557   21.508863
  86 O     6.0000    0    15.999   -0.685971   14.278771   20.344792
  87 O     6.0000    0    15.999   -3.737878   14.747423   22.776869

--------------------------------
INTERNAL COORDINATES (ANGSTROEM)
--------------------------------
 C      0   0   0   0.000000     0.000     0.000
 C      1   0   0   1.547420     0.000     0.000
 C      2   1   0   1.509354   110.423     0.000
 C      3   2   1   1.519171   111.674   184.929
 C      4   3   2   1.525961   112.386   171.293
 C      5   4   3   1.520383   117.561   217.588
 C      5   4   3   1.509452   116.226   291.505
 C      7   5   4   1.477020   126.955   151.438
 C      8   7   5   1.361395   123.702    59.716
 C      9   8   7   1.452312   121.447     8.144
 C     10   9   8   1.375878   120.878   359.773
 C     11  10   9   1.446571   119.599   135.741
 C     12  11  10   1.391381   120.669     4.051
 C     13  12  11   1.457868   119.835   219.190
 C     14  13  12   1.446859   107.739   143.075
 C     15  14  13   1.397810   119.268   218.248
 C     16  15  14   1.434400   120.043   137.588
 C     17  16  15   1.444434   107.908   217.178
 C     18  17  16   1.375531   119.744   143.244
 C     19  18  17   1.445339   120.729   359.158
 C     20  19  18   1.371301   119.399     0.355
 C     17  16  15   1.397378   120.072   359.253
 C     22  17  16   1.441559   120.055     0.000
 C     23  22  17   1.380058   119.996     0.133
 C     13  12  11   1.444134   119.701   357.567
 C     25  13  12   1.379604   119.531   359.554
 C     26  25  13   1.435594   120.087   222.321
 C     27  26  25   1.401671   119.630   359.714
 C     28  27  26   1.440695   119.084   139.170
 C     29  28  27   1.382229   120.931     0.224
 C     30  29  28   1.458439   119.289     0.525
 C     31  30  29   1.385542   120.033   358.978
 C     31  30  29   1.429756   107.362   217.397
 C     33  31  30   1.383939   119.835   142.377
 C     34  33  31   1.437357   120.688   221.682
 C     35  34  33   1.432529   109.120   144.903
 C     36  35  34   1.385916   119.647   219.696
 C     37  36  35   1.462083   120.639   135.285
 C     38  37  36   1.363662   121.766     0.076
 C     39  38  37   1.427396   119.856   224.375
 C     40  39  38   1.411734   121.212   355.834
 C     14  13  12   1.376309   119.637   359.513
 C     42  14  13   1.465058   119.507   137.968
 C     43  42  14   1.376936   119.326     0.200
 C     18  17  16   1.441007   108.470     0.243
 C     45  18  17   1.368661   120.054   142.665
 C     46  45  18   1.455991   119.444   221.727
 C     47  46  45   1.370093   120.072   359.916
 C     41  40  39   1.430654   118.579     2.084
 C     49  41  40   1.382197   119.990     0.880
 C     50  49  41   1.443574   120.272   137.482
 C     51  50  49   1.403286   119.722     0.000
 C     52  51  50   1.439627   119.766   220.776
 C     46  45  18   1.418226   120.605     0.312
 C     54  46  45   1.395043   120.460     0.000
 C     55  54  46   1.441044   120.320   221.640
 C     56  55  54   1.430411   107.670   141.886
 C     57  56  55   1.389831   119.763   217.212
 C     58  57  56   1.440830   120.416     1.135
 C     59  58  57   1.388480   119.764   358.629
 C     56  55  54   1.394197   119.295   359.356
 C     53  52  51   1.367556   119.601   359.464
 C     62  53  52   1.456193   120.680     0.204
 C     35  34  33   1.409157   119.989   359.730
 C     63  62  53   1.379465   119.958     0.393
 C      5   4   3   1.505441   114.587    74.597
 C     66   5   4   1.377447   122.444   266.923
 C     67  66   5   1.383427   120.446   178.025
 C     68  67  66   1.363903   120.542   359.272
 C     69  68  67   1.378985   119.683     0.233
 C     70  69  68   1.369721   119.682     0.179
 C      1   2   3   2.286014   148.106   194.023
 H      2   1   3   1.001753   108.827   243.200
 H      2   1   3   1.020737   112.184   123.065
 H      3   2   1   1.003568   109.069   303.979
 H      3   2   1   1.002871   109.186    65.115
 H      4   3   2   1.009283   108.253    48.854
 H      4   3   2   1.015273   107.031   292.474
 H     67  66   5   0.993656   119.697   357.216
 H     68  67  66   0.970933   120.219   179.595
 H     69  68  67   0.971867   119.878   180.007
 H     70  69  68   0.951999   120.112   180.435
 H     71  70  69   0.970918   119.456   177.753
 H     72   1   2   0.949581   140.229   358.400
 H     72   1   2   0.949771    92.803   232.980
 H     72   1   2   0.950757    92.536   123.391
 O      1   2   3   1.263301   111.108   192.941
 O      1   2   3   1.099371   125.643    15.009

---------------------------
INTERNAL COORDINATES (A.U.)
---------------------------
 C      0   0   0   0.000000     0.000     0.000
 C      1   0   0   2.924200     0.000     0.000
 C      2   1   0   2.852265   110.423     0.000
 C      3   2   1   2.870817   111.674   184.929
 C      4   3   2   2.883648   112.386   171.293
 C      5   4   3   2.873108   117.561   217.588
 C      5   4   3   2.852451   116.226   291.505
 C      7   5   4   2.791163   126.955   151.438
 C      8   7   5   2.572663   123.702    59.716
 C      9   8   7   2.744472   121.447     8.144
 C     10   9   8   2.600033   120.878   359.773
 C     11  10   9   2.733624   119.599   135.741
 C     12  11  10   2.629329   120.669     4.051
 C     13  12  11   2.754971   119.835   219.190
 C     14  13  12   2.734168   107.739   143.075
 C     15  14  13   2.641478   119.268   218.248
 C     16  15  14   2.710622   120.043   137.588
 C     17  16  15   2.729585   107.908   217.178
 C     18  17  16   2.599377   119.744   143.244
 C     19  18  17   2.731294   120.729   359.158
 C     20  19  18   2.591384   119.399     0.355
 C     17  16  15   2.640662   120.072   359.253
 C     22  17  16   2.724151   120.055     0.000
 C     23  22  17   2.607932   119.996     0.133
 C     13  12  11   2.729018   119.701   357.567
 C     25  13  12   2.607073   119.531   359.554
 C     26  25  13   2.712879   120.087   222.321
 C     27  26  25   2.648775   119.630   359.714
 C     28  27  26   2.722518   119.084   139.170
 C     29  28  27   2.612035   120.931     0.224
 C     30  29  28   2.756051   119.289     0.525
 C     31  30  29   2.618294   120.033   358.978
 C     31  30  29   2.701848   107.362   217.397
 C     33  31  30   2.615265   119.835   142.377
 C     34  33  31   2.716210   120.688   221.682
 C     35  34  33   2.707087   109.120   144.903
 C     36  35  34   2.619002   119.647   219.696
 C     37  36  35   2.762936   120.639   135.285
 C     38  37  36   2.576947   121.766     0.076
 C     39  38  37   2.697387   119.856   224.375
 C     40  39  38   2.667791   121.212   355.834
 C     14  13  12   2.600847   119.637   359.513
 C     42  14  13   2.768558   119.507   137.968
 C     43  42  14   2.602033   119.326     0.200
 C     18  17  16   2.723109   108.470     0.243
 C     45  18  17   2.586395   120.054   142.665
 C     46  45  18   2.751424   119.444   221.727
 C     47  46  45   2.589101   120.072   359.916
 C     41  40  39   2.703544   118.579     2.084
 C     49  41  40   2.611974   119.990     0.880
 C     50  49  41   2.727960   120.272   137.482
 C     51  50  49   2.651826   119.722     0.000
 C     52  51  50   2.720500   119.766   220.776
 C     46  45  18   2.680058   120.605     0.312
 C     54  46  45   2.636249   120.460     0.000
 C     55  54  46   2.723179   120.320   221.640
 C     56  55  54   2.703086   107.670   141.886
 C     57  56  55   2.626400   119.763   217.212
 C     58  57  56   2.722773   120.416     1.135
 C     59  58  57   2.623846   119.764   358.629
 C     56  55  54   2.634651   119.295   359.356
 C     53  52  51   2.584307   119.601   359.464
 C     62  53  52   2.751806   120.680     0.204
 C     35  34  33   2.662921   119.989   359.730
 C     63  62  53   2.606812   119.958     0.393
 C      5   4   3   2.844872   114.587    74.597
 C     66   5   4   2.602998   122.444   266.923
 C     67  66   5   2.614298   120.446   178.025
 C     68  67  66   2.577404   120.542   359.272
 C     69  68  67   2.605904   119.683     0.233
 C     70  69  68   2.588398   119.682     0.179
 C      1   2   3   4.319940   148.106   194.023
 H      2   1   3   1.893039   108.827   243.200
 H      2   1   3   1.928914   112.184   123.065
 H      3   2   1   1.896469   109.069   303.979
 H      3   2   1   1.895151   109.186    65.115
 H      4   3   2   1.907269   108.253    48.854
 H      4   3   2   1.918588   107.031   292.474
 H     67  66   5   1.877738   119.697   357.216
 H     68  67  66   1.834797   120.219   179.595
 H     69  68  67   1.836563   119.878   180.007
 H     70  69  68   1.799017   120.112   180.435
 H     71  70  69   1.834768   119.456   177.753
 H     72   1   2   1.794449   140.229   358.400
 H     72   1   2   1.794807    92.803   232.980
 H     72   1   2   1.796670    92.536   123.391
 O      1   2   3   2.387293   111.108   192.941
 O      1   2   3   2.077510   125.643    15.009

----------------------------
SLATER BASIS SET DIM= 310
----------------------------
  0 C     2 shells
 l=0 nsto= 1
    2       1.808665000000        1.000000000000
 l=1 nsto= 1
    2       1.685116000000        1.000000000000
  1 C     2 shells
 l=0 nsto= 1
    2       1.808665000000        1.000000000000
 l=1 nsto= 1
    2       1.685116000000        1.000000000000
  2 C     2 shells
 l=0 nsto= 1
    2       1.808665000000        1.000000000000
 l=1 nsto= 1
    2       1.685116000000        1.000000000000
  3 C     2 shells
 l=0 nsto= 1
    2       1.808665000000        1.000000000000
 l=1 nsto= 1
    2       1.685116000000        1.000000000000
  4 C     2 shells
 l=0 nsto= 1
    2       1.808665000000        1.000000000000
 l=1 nsto= 1
    2       1.685116000000        1.000000000000
  5 C     2 shells
 l=0 nsto= 1
    2       1.808665000000        1.000000000000
 l=1 nsto= 1
    2       1.685116000000        1.000000000000
  6 C     2 shells
 l=0 nsto= 1
    2       1.808665000000        1.000000000000
 l=1 nsto= 1
    2       1.685116000000        1.000000000000
  7 C     2 shells
 l=0 nsto= 1
    2       1.808665000000        1.000000000000
 l=1 nsto= 1
    2       1.685116000000        1.000000000000
  8 C     2 shells
 l=0 nsto= 1
    2       1.808665000000        1.000000000000
 l=1 nsto= 1
    2       1.685116000000        1.000000000000
  9 C     2 shells
 l=0 nsto= 1
    2       1.808665000000        1.000000000000
 l=1 nsto= 1
    2       1.685116000000        1.000000000000
 10 C     2 shells
 l=0 nsto= 1
    2       1.808665000000        1.000000000000
 l=1 nsto= 1
    2       1.685116000000        1.000000000000
 11 C     2 shells
 l=0 nsto= 1
    2       1.808665000000        1.000000000000
 l=1 nsto= 1
    2       1.685116000000        1.000000000000
 12 C     2 shells
 l=0 nsto= 1
    2       1.808665000000        1.000000000000
 l=1 nsto= 1
    2       1.685116000000        1.000000000000
 13 C     2 shells
 l=0 nsto= 1
    2       1.808665000000        1.000000000000
 l=1 nsto= 1
    2       1.685116000000        1.000000000000
 14 C     2 shells
 l=0 nsto= 1
    2       1.808665000000        1.000000000000
 l=1 nsto= 1
    2       1.685116000000        1.000000000000
 15 C     2 shells
 l=0 nsto= 1
    2       1.808665000000        1.000000000000
 l=1 nsto= 1
    2       1.685116000000        1.000000000000
 16 C     2 shells
 l=0 nsto= 1
    2       1.808665000000        1.000000000000
 l=1 nsto= 1
    2       1.685116000000        1.000000000000
 17 C     2 shells
 l=0 nsto= 1
    2       1.808665000000        1.000000000000
 l=1 nsto= 1
    2       1.685116000000        1.000000000000
 18 C     2 shells
 l=0 nsto= 1
    2       1.808665000000        1.000000000000
 l=1 nsto= 1
    2       1.685116000000        1.000000000000
 19 C     2 shells
 l=0 nsto= 1
    2       1.808665000000        1.000000000000
 l=1 nsto= 1
    2       1.685116000000        1.000000000000
 20 C     2 shells
 l=0 nsto= 1
    2       1.808665000000        1.000000000000
 l=1 nsto= 1
    2       1.685116000000        1.000000000000
 21 C     2 shells
 l=0 nsto= 1
    2       1.808665000000        1.000000000000
 l=1 nsto= 1
    2       1.685116000000        1.000000000000
 22 C     2 shells
 l=0 nsto= 1
    2       1.808665000000        1.000000000000
 l=1 nsto= 1
    2       1.685116000000        1.000000000000
 23 C     2 shells
 l=0 nsto= 1
    2       1.808665000000        1.000000000000
 l=1 nsto= 1
    2       1.685116000000        1.000000000000
 24 C     2 shells
 l=0 nsto= 1
    2       1.808665000000        1.000000000000
 l=1 nsto= 1
    2       1.685116000000        1.000000000000
 25 C     2 shells
 l=0 nsto= 1
    2       1.808665000000        1.000000000000
 l=1 nsto= 1
    2       1.685116000000        1.000000000000
 26 C     2 shells
 l=0 nsto= 1
    2       1.808665000000        1.000000000000
 l=1 nsto= 1
    2       1.685116000000        1.000000000000
 27 C     2 shells
 l=0 nsto= 1
    2       1.808665000000        1.000000000000
 l=1 nsto= 1
    2       1.685116000000        1.000000000000
 28 C     2 shells
 l=0 nsto= 1
    2       1.808665000000        1.000000000000
 l=1 nsto= 1
    2       1.685116000000        1.000000000000
 29 C     2 shells
 l=0 nsto= 1
    2       1.808665000000        1.000000000000
 l=1 nsto= 1
    2       1.685116000000        1.000000000000
 30 C     2 shells
 l=0 nsto= 1
    2       1.808665000000        1.000000000000
 l=1 nsto= 1
    2       1.685116000000        1.000000000000
 31 C     2 shells
 l=0 nsto= 1
    2       1.808665000000        1.000000000000
 l=1 nsto= 1
    2       1.685116000000        1.000000000000
 32 C     2 shells
 l=0 nsto= 1
    2       1.808665000000        1.000000000000
 l=1 nsto= 1
    2       1.685116000000        1.000000000000
 33 C     2 shells
 l=0 nsto= 1
    2       1.808665000000        1.000000000000
 l=1 nsto= 1
    2       1.685116000000        1.000000000000
 34 C     2 shells
 l=0 nsto= 1
    2       1.808665000000        1.000000000000
 l=1 nsto= 1
    2       1.685116000000        1.000000000000
 35 C     2 shells
 l=0 nsto= 1
    2       1.808665000000        1.000000000000
 l=1 nsto= 1
    2       1.685116000000        1.000000000000
 36 C     2 shells
 l=0 nsto= 1
    2       1.808665000000        1.000000000000
 l=1 nsto= 1
    2       1.685116000000        1.000000000000
 37 C     2 shells
 l=0 nsto= 1
    2       1.808665000000        1.000000000000
 l=1 nsto= 1
    2       1.685116000000        1.000000000000
 38 C     2 shells
 l=0 nsto= 1
    2       1.808665000000        1.000000000000
 l=1 nsto= 1
    2       1.685116000000        1.000000000000
 39 C     2 shells
 l=0 nsto= 1
    2       1.808665000000        1.000000000000
 l=1 nsto= 1
    2       1.685116000000        1.000000000000
 40 C     2 shells
 l=0 nsto= 1
    2       1.808665000000        1.000000000000
 l=1 nsto= 1
    2       1.685116000000        1.000000000000
 41 C     2 shells
 l=0 nsto= 1
    2       1.808665000000        1.000000000000
 l=1 nsto= 1
    2       1.685116000000        1.000000000000
 42 C     2 shells
 l=0 nsto= 1
    2       1.808665000000        1.000000000000
 l=1 nsto= 1
    2       1.685116000000        1.000000000000
 43 C     2 shells
 l=0 nsto= 1
    2       1.808665000000        1.000000000000
 l=1 nsto= 1
    2       1.685116000000        1.000000000000
 44 C     2 shells
 l=0 nsto= 1
    2       1.808665000000        1.000000000000
 l=1 nsto= 1
    2       1.685116000000        1.000000000000
 45 C     2 shells
 l=0 nsto= 1
    2       1.808665000000        1.000000000000
 l=1 nsto= 1
    2       1.685116000000        1.000000000000
 46 C     2 shells
 l=0 nsto= 1
    2       1.808665000000        1.000000000000
 l=1 nsto= 1
    2       1.685116000000        1.000000000000
 47 C     2 shells
 l=0 nsto= 1
    2       1.808665000000        1.000000000000
 l=1 nsto= 1
    2       1.685116000000        1.000000000000
 48 C     2 shells
 l=0 nsto= 1
    2       1.808665000000        1.000000000000
 l=1 nsto= 1
    2       1.685116000000        1.000000000000
 49 C     2 shells
 l=0 nsto= 1
    2       1.808665000000        1.000000000000
 l=1 nsto= 1
    2       1.685116000000        1.000000000000
 50 C     2 shells
 l=0 nsto= 1
    2       1.808665000000        1.000000000000
 l=1 nsto= 1
    2       1.685116000000        1.000000000000
 51 C     2 shells
 l=0 nsto= 1
    2       1.808665000000        1.000000000000
 l=1 nsto= 1
    2       1.685116000000        1.000000000000
 52 C     2 shells
 l=0 nsto= 1
    2       1.808665000000        1.000000000000
 l=1 nsto= 1
    2       1.685116000000        1.000000000000
 53 C     2 shells
 l=0 nsto= 1
    2       1.808665000000        1.000000000000
 l=1 nsto= 1
    2       1.685116000000        1.000000000000
 54 C     2 shells
 l=0 nsto= 1
    2       1.808665000000        1.000000000000
 l=1 nsto= 1
    2       1.685116000000        1.000000000000
 55 C     2 shells
 l=0 nsto= 1
    2       1.808665000000        1.000000000000
 l=1 nsto= 1
    2       1.685116000000        1.000000000000
 56 C     2 shells
 l=0 nsto= 1
    2       1.808665000000        1.000000000000
 l=1 nsto= 1
    2       1.685116000000        1.000000000000
 57 C     2 shells
 l=0 nsto= 1
    2       1.808665000000        1.000000000000
 l=1 nsto= 1
    2       1.685116000000        1.000000000000
 58 C     2 shells
 l=0 nsto= 1
    2       1.808665000000        1.000000000000
 l=1 nsto= 1
    2       1.685116000000        1.000000000000
 59 C     2 shells
 l=0 nsto= 1
    2       1.808665000000        1.000000000000
 l=1 nsto= 1
    2       1.685116000000        1.000000000000
 60 C     2 shells
 l=0 nsto= 1
    2       1.808665000000        1.000000000000
 l=1 nsto= 1
    2       1.685116000000        1.000000000000
 61 C     2 shells
 l=0 nsto= 1
    2       1.808665000000        1.000000000000
 l=1 nsto= 1
    2       1.685116000000        1.000000000000
 62 C     2 shells
 l=0 nsto= 1
    2       1.808665000000        1.000000000000
 l=1 nsto= 1
    2       1.685116000000        1.000000000000
 63 C     2 shells
 l=0 nsto= 1
    2       1.808665000000        1.000000000000
 l=1 nsto= 1
    2       1.685116000000        1.000000000000
 64 C     2 shells
 l=0 nsto= 1
    2       1.808665000000        1.000000000000
 l=1 nsto= 1
    2       1.685116000000        1.000000000000
 65 C     2 shells
 l=0 nsto= 1
    2       1.808665000000        1.000000000000
 l=1 nsto= 1
    2       1.685116000000        1.000000000000
 66 C     2 shells
 l=0 nsto= 1
    2       1.808665000000        1.000000000000
 l=1 nsto= 1
    2       1.685116000000        1.000000000000
 67 C     2 shells
 l=0 nsto= 1
    2       1.808665000000        1.000000000000
 l=1 nsto= 1
    2       1.685116000000        1.000000000000
 68 C     2 shells
 l=0 nsto= 1
    2       1.808665000000        1.000000000000
 l=1 nsto= 1
    2       1.685116000000        1.000000000000
 69 C     2 shells
 l=0 nsto= 1
    2       1.808665000000        1.000000000000
 l=1 nsto= 1
    2       1.685116000000        1.000000000000
 70 C     2 shells
 l=0 nsto= 1
    2       1.808665000000        1.000000000000
 l=1 nsto= 1
    2       1.685116000000        1.000000000000
 71 C     2 shells
 l=0 nsto= 1
    2       1.808665000000        1.000000000000
 l=1 nsto= 1
    2       1.685116000000        1.000000000000
 72 H     1 shells
 l=0 nsto= 1
    1       1.188078000000        1.000000000000
 73 H     1 shells
 l=0 nsto= 1
    1       1.188078000000        1.000000000000
 74 H     1 shells
 l=0 nsto= 1
    1       1.188078000000        1.000000000000
 75 H     1 shells
 l=0 nsto= 1
    1       1.188078000000        1.000000000000
 76 H     1 shells
 l=0 nsto= 1
    1       1.188078000000        1.000000000000
 77 H     1 shells
 l=0 nsto= 1
    1       1.188078000000        1.000000000000
 78 H     1 shells
 l=0 nsto= 1
    1       1.188078000000        1.000000000000
 79 H     1 shells
 l=0 nsto= 1
    1       1.188078000000        1.000000000000
 80 H     1 shells
 l=0 nsto= 1
    1       1.188078000000        1.000000000000
 81 H     1 shells
 l=0 nsto= 1
    1       1.188078000000        1.000000000000
 82 H     1 shells
 l=0 nsto= 1
    1       1.188078000000        1.000000000000
 83 H     1 shells
 l=0 nsto= 1
    1       1.188078000000        1.000000000000
 84 H     1 shells
 l=0 nsto= 1
    1       1.188078000000        1.000000000000
 85 H     1 shells
 l=0 nsto= 1
    1       1.188078000000        1.000000000000
 86 O     2 shells
 l=0 nsto= 1
    2       3.108032000000        1.000000000000
 l=1 nsto= 1
    2       2.524039000000        1.000000000000
 87 O     2 shells
 l=0 nsto= 1
    2       3.108032000000        1.000000000000
 l=1 nsto= 1
    2       2.524039000000        1.000000000000
------------------------------------------------------------------------------
                           ORCA NDO INTEGRAL CALCULATION
------------------------------------------------------------------------------

--------------
NDO PARAMETERS
--------------

Gamma integral treatment              ... MOPAC
Nuclear repulsuion treatment          ... AM1-style
Interaction factors:
s-s (sigma) =    1.0000
s-p (sigma) =    1.0000
s-d (sigma) =    1.0000
p-p (sigma) =    1.0000  p-p(pi) =    1.0000
p-d (sigma) =    1.0000  p-d(pi) =    1.0000
d-d (sigma) =    1.0000  d-d(pi) =    1.0000 d-d (delta) =    1.0000

--------------------------
Parameters for Element H :
--------------------------
 One-electron parameters (in eV)
  U(s)  =   -11.396427 Beta(s) =     6.173787 Neff(s) =     1.000000
 One-center electron repulsion parameters (in eV)
  G(s,s)=    12.848000
--------------------------
Parameters for Element C :
--------------------------
 One-electron parameters (in eV)
  U(s)  =   -52.028658 Beta(s) =    15.715783 Neff(s) =     2.000000
  U(p)  =   -39.614239 Beta(p) =     7.719283 Neff(p) =     2.000000 
 One-center electron repulsion parameters (in eV)
  G(s,s)=    12.230000
  G(s,p)=    11.470000 G(p,p)  =    10.253300
 Slater-Condon parameters (in eV)
 F2(p,p)=     5.1667 G1(s,p)=    7.2900
--------------------------
Parameters for Element O :
--------------------------
 One-electron parameters (in eV)
  U(s)  =   -97.830000 Beta(s) =    29.272773 Neff(s) =     2.000000
  U(p)  =   -78.262380 Beta(p) =    29.272773 Neff(p) =     4.000000 
 One-center electron repulsion parameters (in eV)
  G(s,s)=    15.420000
  G(s,p)=    14.480000 G(p,p)  =    13.493330
 Slater-Condon parameters (in eV)
 F2(p,p)=     6.4167 G1(s,p)=   11.8200

 Number of atoms                    ....   88
 Number of basis functions          ....  310

 Overlap integrals                  .... done
 One electron matrix                .... done
 Nuclear repulsion                  .... done
 Integral list                      .... done
 Electron-electron repulsion        .... done
-------------------------------------------------------------------------------
                                 ORCA SCF
-------------------------------------------------------------------------------

------------
SCF SETTINGS
------------
Hamiltonian:
 ZDO-Hamiltonian        Method          .... NDDO


General Settings:
 Integral files         IntName         .... PCB_1_122
 Hartree-Fock type      HFTyp           .... RHF
 Total Charge           Charge          ....    0
 Multiplicity           Mult            ....    1
 Number of Electrons    NEL             ....  314
 Basis Dimension        Dim             ....  310
 Nuclear Repulsion      ENuc            ....   5101.7252087923 Eh

Convergence Acceleration:
 DIIS                   CNVDIIS         .... on
   Start iteration      DIISMaxIt       ....    12
   Startup error        DIISStart       ....  0.200000
   # of expansion vecs  DIISMaxEq       ....     5
   Bias factor          DIISBfac        ....   1.050
   Max. coefficient     DIISMaxC        ....  10.000
 Newton-Raphson         CNVNR           .... off
 SOSCF                  CNVSOSCF        .... on
   Start iteration      SOSCFMaxIt      ....   150
   Startup grad/error   SOSCFStart      ....  0.003300
 Level Shifting         CNVShift        .... on
   Level shift para.    LevelShift      ....    0.2500
   Turn off err/grad.   ShiftErr        ....    0.0010
 Zerner damping         CNVZerner       .... off
 Static damping         CNVDamp         .... on
   Fraction old density DampFac         ....    0.7000
   Max. Damping (<1)    DampMax         ....    0.9800
   Min. Damping (>=0)   DampMin         ....    0.0000
   Turn off err/grad.   DampErr         ....    0.1000
 Fernandez-Rico         CNVRico         .... off

SCF Procedure:
 Maximum # iterations   MaxIter         ....   125
 SCF integral mode      SCFMode         .... Conventional
 Integral Buffer length BufferLength    ....  8192
 Integral index format  IndFormat       ....     1
 Integral value format  ValFormat       ....     0
 Integral Storage       Thresh          ....  1.000e-13 Eh

Convergence Tolerance:
 Convergence Check Mode ConvCheckMode   .... Total+1el-Energy
 Energy Change          TolE            ....  1.000e-10 Eh
 1-El. energy change                    ....  1.000e-07 Eh
 Orbital Gradient       TolG            ....  1.000e-06
 Orbital Rotation angle TolX            ....  1.000e-06
 DIIS Error             TolErr          ....  1.000e-10


Diagonalization of the overlap matrix:
Smallest eigenvalue                        ... 1.948e-01
Time for diagonalization                   ...    0.095 sec
Time for construction of square roots      ...    0.018 sec
Total time needed                          ...    0.114 sec

--------------
OVERLAP MATRIX
--------------
                  0          1          2          3          4          5    
      0       1.000000   0.000000   0.000000   0.000000   0.265223  -0.047063
      1       0.000000   1.000000   0.000000   0.000000   0.047063   0.161285
      2       0.000000   0.000000   1.000000   0.000000   0.123056  -0.025596
      3       0.000000   0.000000   0.000000   1.000000   0.306991  -0.063856
      4       0.265223   0.047063   0.123056   0.306991   1.000000   0.000000
      5      -0.047063   0.161285  -0.025596  -0.063856   0.000000   1.000000
      6      -0.123056  -0.025596   0.104149  -0.166962   0.000000   0.000000
      7      -0.306991  -0.063856  -0.166962  -0.245452   0.000000   0.000000
      8       0.043730   0.041360  -0.002155   0.060263   0.281572   0.278024
      9      -0.041360  -0.018648   0.002178  -0.060898  -0.278024  -0.140064
     10       0.002155   0.002178   0.023034   0.003174   0.148958   0.173397
     11      -0.060263  -0.060898   0.003174  -0.065583  -0.149652  -0.174204
     12       0.001846   0.001634   0.000386   0.003608   0.044152   0.040379
     13      -0.001634  -0.000571  -0.000343  -0.003203  -0.040379  -0.016082
     14      -0.000386  -0.000343   0.000799  -0.000757   0.005710   0.005581
     15      -0.003608  -0.003203  -0.000757  -0.006191  -0.061452  -0.060065
     16       0.000091   0.000124  -0.000020   0.000198   0.001879   0.002563
     17      -0.000124  -0.000120   0.000026  -0.000261  -0.002563  -0.002611
     18       0.000020   0.000026   0.000040   0.000041   0.001036   0.001417
     19      -0.000198  -0.000261   0.000041  -0.000371  -0.002955  -0.004043
     20       0.000003   0.000004  -0.000001   0.000009   0.000100   0.000113
     21      -0.000004  -0.000003   0.000001  -0.000010  -0.000113  -0.000075
     22       0.000001   0.000001   0.000001   0.000003   0.000068   0.000075
     23      -0.000009  -0.000010   0.000003  -0.000022  -0.000220  -0.000240
     24       0.000031   0.000037  -0.000029   0.000070   0.000387   0.000437
     25      -0.000037  -0.000026   0.000033  -0.000079  -0.000437  -0.000302
     26       0.000029   0.000033  -0.000011   0.000063   0.000500   0.000555
     27      -0.000070  -0.000079   0.000063  -0.000138  -0.000634  -0.000704
     28       0.000002   0.000003  -0.000003   0.000004   0.000014   0.000022
     29      -0.000003  -0.000004   0.000004  -0.000006  -0.000022  -0.000025
     30       0.000003   0.000004  -0.000003   0.000006   0.000025   0.000036
     31      -0.000004  -0.000006   0.000006  -0.000008  -0.000023  -0.000033
     32       0.000000   0.000000   0.000000   0.000000   0.000001   0.000001
     33       0.000000  -0.000000   0.000000  -0.000000  -0.000001  -0.000002
     34       0.000000   0.000000  -0.000000   0.000000   0.000001   0.000002
     35       0.000000  -0.000000   0.000000  -0.000000  -0.000001  -0.000002
     36       0.000000   0.000000   0.000000   0.000000   0.000000   0.000000
     37       0.000000   0.000000   0.000000   0.000000  -0.000000  -0.000001
     38       0.000000   0.000000   0.000000   0.000000   0.000000   0.000001
     39       0.000000   0.000000   0.000000   0.000000  -0.000001  -0.000001
     40       0.000000   0.000000   0.000000   0.000000   0.000002   0.000003
     41       0.000000  -0.000000   0.000000  -0.000000  -0.000003  -0.000003
     42       0.000000   0.000000   0.000000   0.000000   0.000002   0.000002
     43       0.000000  -0.000000   0.000000  -0.000001  -0.000005  -0.000007
     44       0.000000   0.000000   0.000000   0.000000   0.000000   0.000000
     45       0.000000   0.000000   0.000000   0.000000  -0.000000  -0.000000
     46       0.000000   0.000000   0.000000   0.000000   0.000000   0.000000
     47       0.000000   0.000000   0.000000   0.000000  -0.000001  -0.000001
     48       0.000000   0.000000   0.000000   0.000000   0.000000   0.000000
     49       0.000000   0.000000   0.000000   0.000000   0.000000   0.000000
     50       0.000000   0.000000   0.000000   0.000000   0.000000   0.000000
     51       0.000000   0.000000   0.000000   0.000000   0.000000   0.000000
     52       0.000000   0.000000   0.000000   0.000000   0.000000   0.000000
     53       0.000000   0.000000   0.000000   0.000000   0.000000   0.000000
     54       0.000000   0.000000   0.000000   0.000000   0.000000   0.000000
     55       0.000000   0.000000   0.000000   0.000000   0.000000   0.000000
     56       0.000000   0.000000   0.000000   0.000000   0.000000   0.000000
     57       0.000000   0.000000   0.000000   0.000000   0.000000   0.000000
     58       0.000000   0.000000   0.000000   0.000000   0.000000   0.000000
     59       0.000000   0.000000   0.000000   0.000000   0.000000   0.000000
     60       0.000000   0.000000   0.000000   0.000000   0.000000   0.000000
     61       0.000000   0.000000   0.000000   0.000000   0.000000   0.000000
     62       0.000000   0.000000   0.000000   0.000000   0.000000   0.000000
     63       0.000000   0.000000   0.000000   0.000000   0.000000   0.000000
     64       0.000000   0.000000   0.000000   0.000000   0.000000   0.000000
     65       0.000000   0.000000   0.000000   0.000000   0.000000   0.000000
     66       0.000000   0.000000   0.000000   0.000000   0.000000   0.000000
     67       0.000000   0.000000   0.000000   0.000000   0.000000   0.000000
     68       0.000000   0.000000   0.000000   0.000000   0.000000   0.000000
     69       0.000000   0.000000   0.000000   0.000000   0.000000   0.000000
     70       0.000000   0.000000   0.000000   0.000000   0.000000   0.000000
     71       0.000000   0.000000   0.000000   0.000000   0.000000   0.000000
     72       0.000000   0.000000   0.000000   0.000000   0.000000   0.000000
     73       0.000000   0.000000   0.000000   0.000000   0.000000   0.000000
     74       0.000000   0.000000   0.000000   0.000000   0.000000   0.000000
     75       0.000000   0.000000   0.000000   0.000000   0.000000   0.000000
     76       0.000000   0.000000   0.000000   0.000000   0.000000   0.000000
     77       0.000000   0.000000   0.000000   0.000000   0.000000   0.000000
     78       0.000000   0.000000   0.000000   0.000000   0.000000   0.000000
     79       0.000000   0.000000   0.000000   0.000000   0.000000   0.000000
     80       0.000000   0.000000   0.000000   0.000000   0.000000   0.000000
     81       0.000000   0.000000   0.000000   0.000000   0.000000   0.000000
     82       0.000000   0.000000   0.000000   0.000000   0.000000   0.000000
     83       0.000000   0.000000   0.000000   0.000000   0.000000   0.000000
     84       0.000000   0.000000   0.000000   0.000000   0.000000   0.000000
     85       0.000000   0.000000   0.000000   0.000000   0.000000   0.000000
     86       0.000000   0.000000   0.000000   0.000000   0.000000   0.000000
     87       0.000000   0.000000   0.000000   0.000000   0.000000   0.000000
     88       0.000000   0.000000   0.000000   0.000000   0.000000   0.000000
     89       0.000000   0.000000   0.000000   0.000000   0.000000   0.000000
     90       0.000000   0.000000   0.000000   0.000000   0.000000   0.000000
     91       0.000000   0.000000   0.000000   0.000000   0.000000   0.000000
     92       0.000000   0.000000   0.000000   0.000000   0.000000   0.000000
     93       0.000000   0.000000   0.000000   0.000000   0.000000   0.000000
     94       0.000000   0.000000   0.000000   0.000000   0.000000   0.000000
     95       0.000000   0.000000   0.000000   0.000000   0.000000   0.000000
     96       0.000000   0.000000   0.000000   0.000000   0.000000   0.000000
     97       0.000000   0.000000   0.000000   0.000000   0.000000   0.000000
     98       0.000000   0.000000   0.000000   0.000000   0.000000   0.000000
     99       0.000000   0.000000   0.000000   0.000000   0.000000   0.000000
    100       0.000000   0.000000   0.000000   0.000000   0.000000   0.000000
    101       0.000000   0.000000   0.000000   0.000000   0.000000   0.000000
    102       0.000000   0.000000   0.000000   0.000000   0.000000   0.000000
    103       0.000000   0.000000   0.000000   0.000000   0.000000   0.000000
    104       0.000000   0.000000   0.000000   0.000000   0.000000   0.000000
    105       0.000000   0.000000   0.000000   0.000000   0.000000   0.000000
    106       0.000000   0.000000   0.000000   0.000000   0.000000   0.000000
    107       0.000000   0.000000   0.000000   0.000000   0.000000   0.000000
    108       0.000000   0.000000   0.000000   0.000000   0.000000   0.000000
    109       0.000000   0.000000   0.000000   0.000000   0.000000   0.000000
    110       0.000000   0.000000   0.000000   0.000000   0.000000   0.000000
    111       0.000000   0.000000   0.000000   0.000000   0.000000   0.000000
    112       0.000000   0.000000   0.000000   0.000000   0.000000   0.000000
    113       0.000000   0.000000   0.000000   0.000000   0.000000   0.000000
    114       0.000000   0.000000   0.000000   0.000000   0.000000   0.000000
    115       0.000000   0.000000   0.000000   0.000000   0.000000   0.000000
    116       0.000000   0.000000   0.000000   0.000000   0.000000   0.000000
    117       0.000000   0.000000   0.000000   0.000000   0.000000   0.000000
    118       0.000000   0.000000   0.000000   0.000000   0.000000   0.000000
    119       0.000000   0.000000   0.000000   0.000000   0.000000   0.000000
    120       0.000000   0.000000   0.000000   0.000000   0.000000   0.000000
    121       0.000000   0.000000   0.000000   0.000000   0.000000   0.000000
    122       0.000000   0.000000   0.000000   0.000000   0.000000   0.000000
    123       0.000000   0.000000   0.000000   0.000000   0.000000   0.000000
    124       0.000000   0.000000   0.000000   0.000000   0.000000   0.000000
    125       0.000000   0.000000   0.000000   0.000000   0.000000   0.000000
    126       0.000000   0.000000   0.000000   0.000000   0.000000   0.000000
    127       0.000000   0.000000   0.000000   0.000000   0.000000   0.000000
    128       0.000000   0.000000   0.000000   0.000000   0.000000   0.000000
    129       0.000000  -0.000000   0.000000  -0.000000  -0.000000  -0.000000
    130       0.000000   0.000000  -0.000000   0.000000   0.000000   0.000000
    131       0.000000  -0.000000   0.000000  -0.000000  -0.000000  -0.000000
    132       0.000001   0.000002  -0.000003   0.000003   0.000005   0.000006
    133      -0.000002  -0.000001   0.000003  -0.000003  -0.000006  -0.000004
    134       0.000003   0.000003  -0.000005   0.000005   0.000013   0.000014
    135      -0.000003  -0.000003   0.000005  -0.000005  -0.000007  -0.000008
    136       0.000011   0.000007  -0.000022   0.000023   0.000042   0.000022
    137      -0.000007   0.000002   0.000013  -0.000013  -0.000022   0.000010
    138       0.000022   0.000013  -0.000034   0.000042   0.000095   0.000047
    139      -0.000023  -0.000013   0.000042  -0.000038  -0.000057  -0.000028
    140       0.000070   0.000036  -0.000089   0.000154   0.000575   0.000248
    141      -0.000036   0.000015   0.000045  -0.000077  -0.000248   0.000168
    142       0.000089   0.000045  -0.000077   0.000191   0.000951   0.000404
    143      -0.000154  -0.000077   0.000191  -0.000296  -0.000902  -0.000383
    144       0.000028  -0.000002  -0.000030   0.000070   0.000352  -0.000062
    145       0.000002   0.000013  -0.000002   0.000004   0.000062   0.000156
    146       0.000030  -0.000002  -0.000017   0.000071   0.000500  -0.000086
    147      -0.000070   0.000004   0.000071  -0.000156  -0.000672   0.000116
    148       0.000004  -0.000000  -0.000002   0.000011   0.000102  -0.000013
    149       0.000000   0.000002  -0.000000   0.000000   0.000013   0.000047
    150       0.000002  -0.000000   0.000001   0.000005   0.000089  -0.000011
    151      -0.000011   0.000000   0.000005  -0.000028  -0.000244   0.000030
    152       0.000001   0.000001  -0.000000   0.000004   0.000050   0.000024
    153      -0.000001   0.000000   0.000000  -0.000002  -0.000024   0.000013
    154       0.000000   0.000000   0.000001   0.000001   0.000029   0.000013
    155      -0.000004  -0.000002   0.000001  -0.000010  -0.000128  -0.000058
    156       0.000000   0.000000   0.000000   0.000000   0.000001   0.000001
    157       0.000000   0.000000   0.000000   0.000000  -0.000001   0.000000
    158       0.000000   0.000000   0.000000   0.000000   0.000001   0.000000
    159       0.000000   0.000000   0.000000   0.000000  -0.000003  -0.000002
    160       0.000000   0.000000   0.000000   0.000000   0.000000   0.000000
    161       0.000000   0.000000   0.000000   0.000000  -0.000000   0.000000
    162       0.000000   0.000000   0.000000   0.000000   0.000000   0.000000
    163       0.000000   0.000000   0.000000   0.000000  -0.000000  -0.000000
    164       0.000000   0.000000   0.000000   0.000000   0.000000   0.000000
    165       0.000000   0.000000   0.000000   0.000000   0.000000   0.000000
    166       0.000000   0.000000   0.000000   0.000000   0.000000   0.000000
    167       0.000000   0.000000   0.000000   0.000000   0.000000   0.000000
    168       0.000000   0.000000   0.000000   0.000000   0.000000   0.000000
    169       0.000000   0.000000   0.000000   0.000000   0.000000   0.000000
    170       0.000000   0.000000   0.000000   0.000000   0.000000   0.000000
    171       0.000000   0.000000   0.000000   0.000000   0.000000   0.000000
    172       0.000000   0.000000   0.000000   0.000000   0.000000   0.000000
    173       0.000000   0.000000   0.000000   0.000000   0.000000   0.000000
    174       0.000000   0.000000   0.000000   0.000000   0.000000   0.000000
    175       0.000000   0.000000   0.000000   0.000000   0.000000   0.000000
    176       0.000000   0.000000   0.000000   0.000000   0.000000   0.000000
    177       0.000000   0.000000   0.000000   0.000000   0.000000   0.000000
    178       0.000000   0.000000   0.000000   0.000000   0.000000   0.000000
    179       0.000000   0.000000   0.000000   0.000000   0.000000   0.000000
    180       0.000000   0.000000   0.000000   0.000000   0.000000   0.000000
    181       0.000000   0.000000   0.000000   0.000000   0.000000   0.000000
    182       0.000000   0.000000   0.000000   0.000000   0.000000   0.000000
    183       0.000000   0.000000   0.000000   0.000000   0.000000   0.000000
    184       0.000000   0.000000   0.000000   0.000000   0.000000   0.000000
    185       0.000000   0.000000   0.000000   0.000000   0.000000   0.000000
    186       0.000000   0.000000   0.000000   0.000000   0.000000   0.000000
    187       0.000000   0.000000   0.000000   0.000000   0.000000   0.000000
    188       0.000000   0.000000   0.000000   0.000000   0.000000   0.000000
    189       0.000000   0.000000   0.000000   0.000000   0.000000   0.000000
    190       0.000000   0.000000   0.000000   0.000000   0.000000   0.000000
    191       0.000000   0.000000   0.000000   0.000000   0.000000   0.000000
    192       0.000000   0.000000   0.000000   0.000000   0.000000  -0.000000
    193       0.000000   0.000000   0.000000   0.000000   0.000000   0.000000
    194       0.000000   0.000000   0.000000   0.000000   0.000000  -0.000000
    195       0.000000   0.000000   0.000000   0.000000  -0.000000   0.000000
    196       0.000000  -0.000000  -0.000000   0.000000   0.000004  -0.000002
    197       0.000000   0.000000  -0.000000   0.000000   0.000002   0.000001
    198       0.000000  -0.000000   0.000000   0.000000   0.000004  -0.000002
    199      -0.000000   0.000000   0.000000  -0.000001  -0.000010   0.000006
    200       0.000000  -0.000000  -0.000000   0.000000   0.000002  -0.000001
    201       0.000000  -0.000000  -0.000000   0.000000   0.000001  -0.000000
    202       0.000000  -0.000000  -0.000000   0.000000   0.000003  -0.000002
    203      -0.000000   0.000000   0.000000  -0.000001  -0.000004   0.000003
    204       0.000000   0.000000   0.000000   0.000000   0.000000   0.000000
    205       0.000000   0.000000   0.000000   0.000000   0.000000   0.000000
    206       0.000000   0.000000   0.000000   0.000000   0.000000   0.000000
    207       0.000000   0.000000   0.000000   0.000000   0.000000   0.000000
    208       0.000000   0.000000   0.000000   0.000000   0.000000   0.000000
    209       0.000000   0.000000   0.000000   0.000000   0.000000   0.000000
    210       0.000000   0.000000   0.000000   0.000000   0.000000   0.000000
    211       0.000000   0.000000   0.000000   0.000000   0.000000   0.000000
    212       0.000000   0.000000   0.000000   0.000000   0.000000   0.000000
    213       0.000000   0.000000   0.000000   0.000000   0.000000   0.000000
    214       0.000000   0.000000   0.000000   0.000000   0.000000   0.000000
    215       0.000000   0.000000   0.000000   0.000000   0.000000   0.000000
    216       0.000000   0.000000   0.000000   0.000000   0.000000   0.000000
    217       0.000000   0.000000   0.000000   0.000000   0.000000   0.000000
    218       0.000000   0.000000   0.000000   0.000000   0.000000   0.000000
    219       0.000000   0.000000   0.000000   0.000000   0.000000   0.000000
    220       0.000000   0.000000   0.000000   0.000000   0.000000   0.000000
    221       0.000000   0.000000   0.000000   0.000000   0.000000   0.000000
    222       0.000000   0.000000   0.000000   0.000000   0.000000   0.000000
    223       0.000000   0.000000   0.000000   0.000000   0.000000   0.000000
    224       0.000000   0.000000   0.000000   0.000000   0.000000   0.000000
    225       0.000000   0.000000   0.000000   0.000000   0.000000   0.000000
    226       0.000000   0.000000   0.000000   0.000000   0.000000   0.000000
    227       0.000000   0.000000   0.000000   0.000000   0.000000   0.000000
    228       0.000000   0.000000   0.000000   0.000000   0.000000   0.000000
    229       0.000000   0.000000   0.000000   0.000000   0.000000   0.000000
    230       0.000000   0.000000   0.000000   0.000000   0.000000   0.000000
    231       0.000000   0.000000   0.000000   0.000000   0.000000   0.000000
    232       0.000000   0.000000   0.000000   0.000000   0.000000   0.000000
    233       0.000000   0.000000   0.000000   0.000000   0.000000   0.000000
    234       0.000000   0.000000   0.000000   0.000000   0.000000   0.000000
    235       0.000000   0.000000   0.000000   0.000000   0.000000   0.000000
    236       0.000000   0.000000   0.000000   0.000000   0.000000   0.000000
    237       0.000000   0.000000   0.000000   0.000000   0.000000   0.000000
    238       0.000000   0.000000   0.000000   0.000000   0.000000   0.000000
    239       0.000000   0.000000   0.000000   0.000000   0.000000  -0.000000
    240       0.000000   0.000000   0.000000   0.000000   0.000000   0.000000
    241       0.000000   0.000000   0.000000   0.000000   0.000000   0.000000
    242       0.000000   0.000000   0.000000   0.000000   0.000000   0.000000
    243       0.000000   0.000000   0.000000   0.000000   0.000000   0.000000
    244       0.000000   0.000000   0.000000   0.000000   0.000000   0.000000
    245       0.000000   0.000000   0.000000   0.000000   0.000000   0.000000
    246       0.000000   0.000000   0.000000   0.000000   0.000000  -0.000000
    247       0.000000   0.000000   0.000000   0.000000   0.000000   0.000000
    248       0.000001  -0.000000  -0.000001   0.000001   0.000003  -0.000001
    249       0.000000   0.000000  -0.000001   0.000001   0.000001   0.000001
    250       0.000001  -0.000001  -0.000002   0.000003   0.000006  -0.000003
    251      -0.000001   0.000001   0.000003  -0.000003  -0.000005   0.000002
    252       0.000001   0.000000  -0.000003   0.000003   0.000003   0.000000
    253      -0.000000   0.000001   0.000000  -0.000000  -0.000000   0.000002
    254       0.000003   0.000000  -0.000006   0.000006   0.000009   0.000000
    255      -0.000003  -0.000000   0.000006  -0.000005  -0.000005  -0.000000
    256       0.000002  -0.000001  -0.000004   0.000006   0.000020  -0.000013
    257       0.000001   0.000001  -0.000002   0.000003   0.000013   0.000002
    258       0.000004  -0.000002  -0.000004   0.000009   0.000036  -0.000023
    259      -0.000006   0.000003   0.000009  -0.000014  -0.000039   0.000025
    260       0.000018   0.000037  -0.000001   0.000035   0.000277   0.000561
    261      -0.000037  -0.000063   0.000001  -0.000068  -0.000561  -0.000981
    262       0.000001   0.000001   0.000009   0.000001   0.000092   0.000182
    263      -0.000035  -0.000068   0.000001  -0.000056  -0.000355  -0.000703
    264       0.000018   0.000043  -0.000007   0.000026   0.000111   0.000261
    265      -0.000043  -0.000089   0.000015  -0.000059  -0.000261  -0.000537
    266       0.000007   0.000015   0.000007   0.000009   0.000075   0.000169
    267      -0.000026  -0.000059   0.000009  -0.000027  -0.000083  -0.000189
    268       0.000001   0.000004  -0.000000   0.000002   0.000006   0.000018
    269      -0.000004  -0.000010   0.000001  -0.000004  -0.000018  -0.000045
    270       0.000000   0.000001   0.000001   0.000000   0.000003   0.000008
    271      -0.000002  -0.000004   0.000000  -0.000001  -0.000003  -0.000009
    272       0.000000   0.000000   0.000000   0.000000   0.000001   0.000003
    273      -0.000000  -0.000001  -0.000000  -0.000001  -0.000003  -0.000008
    274      -0.000000  -0.000000   0.000000  -0.000000  -0.000000  -0.000000
    275      -0.000000  -0.000001  -0.000000  -0.000000  -0.000001  -0.000002
    276       0.000000   0.000000   0.000000   0.000000   0.000002   0.000006
    277      -0.000000  -0.000001  -0.000000  -0.000001  -0.000006  -0.000014
    278      -0.000000  -0.000000   0.000000  -0.000000  -0.000001  -0.000002
    279      -0.000000  -0.000001  -0.000000  -0.000000  -0.000003  -0.000007
    280       0.000001   0.000003   0.000001   0.000003   0.000030   0.000068
    281      -0.000003  -0.000006  -0.000001  -0.000006  -0.000068  -0.000130
    282      -0.000001  -0.000001   0.000000  -0.000001  -0.000007  -0.000014
    283      -0.000003  -0.000006  -0.000001  -0.000005  -0.000046  -0.000099
    284       0.069446  -0.049918   0.009107  -0.097764   0.002886  -0.002052
    285       0.049918  -0.000882   0.007103  -0.076256   0.002052  -0.000088
    286      -0.009107   0.007103   0.036758   0.013912   0.000623  -0.000447
    287       0.097764  -0.076256   0.013912  -0.111292   0.005646  -0.004051
    288       0.109423  -0.040311   0.023596   0.139682   0.539988  -0.394048
    289       0.099701   0.020557   0.099949   0.089418   0.528539   0.052203
    290       0.039502   0.028533  -0.023539   0.045561   0.115078   0.080338
    291       0.034564   0.042521   0.003428   0.029528   0.114900   0.150651
    292       0.002605   0.000777   0.000315   0.004413   0.043484   0.011813
    293       0.002032   0.001557   0.001155   0.002959   0.034549   0.030611
    294       0.000232   0.000361  -0.000125   0.000201   0.000628   0.000993
    295       0.000007   0.000013  -0.000002   0.000004   0.000015   0.000028
    296       0.000000   0.000001   0.000000   0.000000   0.000002   0.000003
    297       0.000000   0.000001   0.000000   0.000000   0.000004   0.000007
    298       0.000007   0.000008   0.000003   0.000010   0.000104   0.000142
    299       0.018183  -0.015387   0.006896  -0.022997   0.001441  -0.001100
    300       0.052026  -0.041135  -0.020972  -0.059797   0.003028  -0.002076
    301       0.052370  -0.006318   0.005925  -0.075509   0.003115  -0.000575
    302       0.214675  -0.219644   0.186897  -0.173053   0.017027  -0.016279
    303       0.165885  -0.031067   0.162077  -0.150071   0.014710  -0.003035
    304      -0.141153   0.162077   0.021496   0.127697  -0.001862   0.001797
    305       0.130698  -0.150071   0.127697   0.041170   0.029222  -0.028209
    306       0.293211   0.179932  -0.355580  -0.156564   0.015294   0.003395
    307      -0.129225   0.135162   0.181156   0.079764  -0.003077   0.009326
    308       0.255372   0.181156  -0.131168  -0.157629   0.018703   0.004182
    309       0.112442   0.079764  -0.157629   0.157426   0.023004   0.005143
                  6          7          8          9         10         11    
      0      -0.123056  -0.306991   0.043730  -0.041360   0.002155  -0.060263
      1      -0.025596  -0.063856   0.041360  -0.018648   0.002178  -0.060898
      2       0.104149  -0.166962  -0.002155   0.002178   0.023034   0.003174
      3      -0.166962  -0.245452   0.060263  -0.060898   0.003174  -0.065583
      4       0.000000   0.000000   0.281572  -0.278024   0.148958  -0.149652
      5       0.000000   0.000000   0.278024  -0.140064   0.173397  -0.174204
      6       1.000000   0.000000  -0.148958   0.173397   0.090672   0.093334
      7       0.000000   1.000000   0.149652  -0.174204   0.093334   0.089805
      8      -0.148958   0.149652   1.000000   0.000000   0.000000   0.000000
      9       0.173397  -0.174204   0.000000   1.000000   0.000000   0.000000
     10       0.090672   0.093334   0.000000   0.000000   1.000000   0.000000
     11       0.093334   0.089805   0.000000   0.000000   0.000000   1.000000
     12      -0.005710   0.061452   0.277289   0.038632   0.102260   0.327461
     13       0.005581  -0.060065  -0.038632   0.173944  -0.016771  -0.053703
     14       0.022597   0.008493  -0.102260  -0.016771   0.135886  -0.142156
     15       0.008493  -0.068025  -0.327461  -0.053703  -0.142156  -0.274936
     16      -0.001036   0.002955   0.041944   0.034691  -0.009605   0.060556
     17       0.001417  -0.004043  -0.034691  -0.008476   0.008477  -0.053445
     18       0.000324   0.001633   0.009605   0.008477   0.019794   0.014798
     19       0.001633  -0.003764  -0.060556  -0.053445   0.014798  -0.071152
     20      -0.000068   0.000220   0.002044   0.001137  -0.000785   0.004153
     21       0.000075  -0.000240  -0.001137   0.000341   0.000438  -0.002320
     22       0.000003   0.000145   0.000785   0.000438   0.000673   0.001602
     23       0.000145  -0.000420  -0.004153  -0.002320   0.001602  -0.007500
     24      -0.000500   0.000634   0.009915   0.005569  -0.010720   0.014617
     25       0.000555  -0.000704  -0.005569   0.001665   0.006208  -0.008466
     26      -0.000451   0.000805   0.010720   0.006208  -0.007060   0.016296
     27       0.000805  -0.000837  -0.014617  -0.008466   0.016296  -0.017331
     28      -0.000025   0.000023   0.000584   0.000595  -0.000909   0.000807
     29       0.000036  -0.000033  -0.000595  -0.000321   0.000914  -0.000812
     30      -0.000035   0.000038   0.000909   0.000914  -0.001119   0.001240
     31       0.000038  -0.000027  -0.000807  -0.000812   0.001240  -0.000824
     32      -0.000001   0.000001   0.000032   0.000046  -0.000047   0.000056
     33       0.000002  -0.000002  -0.000046  -0.000049   0.000065  -0.000078
     34      -0.000001   0.000002   0.000047   0.000065  -0.000051   0.000080
     35       0.000002  -0.000002  -0.000056  -0.000078   0.000080  -0.000080
     36      -0.000000   0.000001   0.000011   0.000017  -0.000011   0.000026
     37       0.000001  -0.000001  -0.000017  -0.000017   0.000015  -0.000036
     38      -0.000000   0.000001   0.000011   0.000015  -0.000004   0.000024
     39       0.000001  -0.000001  -0.000026  -0.000036   0.000024  -0.000050
     40      -0.000002   0.000005   0.000061   0.000062  -0.000029   0.000144
     41       0.000002  -0.000007  -0.000062  -0.000032   0.000029  -0.000142
     42      -0.000000   0.000004   0.000029   0.000029   0.000016   0.000067
     43       0.000004  -0.000011  -0.000144  -0.000142   0.000067  -0.000300
     44      -0.000000   0.000001   0.000004   0.000003  -0.000001   0.000012
     45       0.000000  -0.000001  -0.000003   0.000000   0.000001  -0.000008
     46       0.000000   0.000000   0.000001   0.000001   0.000002   0.000003
     47       0.000000  -0.000002  -0.000012  -0.000008   0.000003  -0.000030
     48       0.000000   0.000000   0.000000   0.000000  -0.000000   0.000000
     49       0.000000   0.000000  -0.000000  -0.000000   0.000000  -0.000000
     50       0.000000   0.000000   0.000000   0.000000   0.000000   0.000000
     51       0.000000   0.000000  -0.000000  -0.000000   0.000000  -0.000001
     52       0.000000   0.000000   0.000000   0.000000   0.000000   0.000000
     53       0.000000   0.000000   0.000000   0.000000   0.000000   0.000000
     54       0.000000   0.000000   0.000000   0.000000   0.000000   0.000000
     55       0.000000   0.000000   0.000000   0.000000   0.000000   0.000000
     56       0.000000   0.000000   0.000000   0.000000   0.000000   0.000000
     57       0.000000   0.000000   0.000000   0.000000   0.000000   0.000000
     58       0.000000   0.000000   0.000000   0.000000   0.000000   0.000000
     59       0.000000   0.000000   0.000000   0.000000   0.000000   0.000000
     60       0.000000   0.000000   0.000000   0.000000   0.000000   0.000000
     61       0.000000   0.000000   0.000000   0.000000   0.000000   0.000000
     62       0.000000   0.000000   0.000000   0.000000   0.000000   0.000000
     63       0.000000   0.000000   0.000000   0.000000   0.000000   0.000000
     64       0.000000   0.000000   0.000000   0.000000   0.000000   0.000000
     65       0.000000   0.000000   0.000000   0.000000   0.000000   0.000000
     66       0.000000   0.000000   0.000000   0.000000   0.000000   0.000000
     67       0.000000   0.000000   0.000000   0.000000   0.000000   0.000000
     68       0.000000   0.000000   0.000000   0.000000   0.000000   0.000000
     69       0.000000   0.000000   0.000000   0.000000   0.000000   0.000000
     70       0.000000   0.000000   0.000000   0.000000   0.000000   0.000000
     71       0.000000   0.000000   0.000000   0.000000   0.000000   0.000000
     72       0.000000   0.000000   0.000000   0.000000   0.000000   0.000000
     73       0.000000   0.000000   0.000000   0.000000   0.000000   0.000000
     74       0.000000   0.000000   0.000000   0.000000   0.000000   0.000000
     75       0.000000   0.000000   0.000000   0.000000   0.000000   0.000000
     76       0.000000   0.000000   0.000000   0.000000   0.000000   0.000000
     77       0.000000   0.000000   0.000000   0.000000   0.000000   0.000000
     78       0.000000   0.000000   0.000000   0.000000   0.000000   0.000000
     79       0.000000   0.000000   0.000000   0.000000   0.000000   0.000000
     80       0.000000   0.000000   0.000000   0.000000   0.000000   0.000000
     81       0.000000   0.000000   0.000000   0.000000   0.000000   0.000000
     82       0.000000   0.000000   0.000000   0.000000   0.000000   0.000000
     83       0.000000   0.000000   0.000000   0.000000   0.000000   0.000000
     84       0.000000   0.000000   0.000000   0.000000   0.000000   0.000000
     85       0.000000   0.000000   0.000000   0.000000   0.000000   0.000000
     86       0.000000   0.000000   0.000000   0.000000   0.000000   0.000000
     87       0.000000   0.000000   0.000000   0.000000   0.000000   0.000000
     88       0.000000   0.000000   0.000000   0.000000   0.000000   0.000000
     89       0.000000   0.000000   0.000000   0.000000   0.000000   0.000000
     90       0.000000   0.000000   0.000000   0.000000   0.000000   0.000000
     91       0.000000   0.000000   0.000000   0.000000   0.000000   0.000000
     92       0.000000   0.000000   0.000000   0.000000   0.000000   0.000000
     93       0.000000   0.000000   0.000000   0.000000   0.000000   0.000000
     94       0.000000   0.000000   0.000000   0.000000   0.000000   0.000000
     95       0.000000   0.000000   0.000000   0.000000   0.000000   0.000000
     96       0.000000   0.000000   0.000000   0.000000   0.000000   0.000000
     97       0.000000   0.000000   0.000000   0.000000   0.000000   0.000000
     98       0.000000   0.000000   0.000000   0.000000   0.000000   0.000000
     99       0.000000   0.000000   0.000000   0.000000   0.000000   0.000000
    100       0.000000   0.000000   0.000000   0.000000  -0.000000   0.000001
    101       0.000000   0.000000  -0.000000  -0.000000   0.000000  -0.000001
    102       0.000000   0.000000   0.000000   0.000000  -0.000000   0.000001
    103       0.000000   0.000000  -0.000001  -0.000001   0.000001  -0.000001
    104       0.000000   0.000000   0.000000   0.000000   0.000000   0.000000
    105       0.000000   0.000000   0.000000  -0.000000   0.000000  -0.000000
    106       0.000000   0.000000   0.000000   0.000000  -0.000000   0.000000
    107       0.000000   0.000000   0.000000  -0.000000   0.000000  -0.000000
    108       0.000000   0.000000   0.000000   0.000000   0.000000   0.000000
    109       0.000000   0.000000   0.000000   0.000000   0.000000   0.000000
    110       0.000000   0.000000   0.000000   0.000000   0.000000   0.000000
    111       0.000000   0.000000   0.000000   0.000000   0.000000   0.000000
    112       0.000000   0.000000   0.000000   0.000000   0.000000   0.000000
    113       0.000000   0.000000   0.000000   0.000000   0.000000   0.000000
    114       0.000000   0.000000   0.000000   0.000000   0.000000   0.000000
    115       0.000000   0.000000   0.000000   0.000000   0.000000   0.000000
    116       0.000000   0.000000   0.000000   0.000000   0.000000   0.000000
    117       0.000000   0.000000   0.000000   0.000000   0.000000   0.000000
    118       0.000000   0.000000   0.000000   0.000000   0.000000   0.000000
    119       0.000000   0.000000   0.000000   0.000000   0.000000   0.000000
    120       0.000000   0.000000   0.000000   0.000000  -0.000001   0.000001
    121       0.000000   0.000000  -0.000000  -0.000000   0.000001  -0.000001
    122       0.000000   0.000000   0.000001   0.000001  -0.000002   0.000001
    123       0.000000   0.000000  -0.000001  -0.000001   0.000001  -0.000001
    124       0.000000   0.000000   0.000001   0.000001  -0.000002   0.000002
    125       0.000000   0.000000  -0.000001  -0.000001   0.000002  -0.000002
    126       0.000000   0.000000   0.000002   0.000002  -0.000003   0.000003
    127       0.000000   0.000000  -0.000002  -0.000002   0.000003  -0.000002
    128      -0.000000   0.000000   0.000003   0.000003  -0.000009   0.000005
    129       0.000000  -0.000000  -0.000003  -0.000000   0.000007  -0.000003
    130      -0.000001   0.000000   0.000009   0.000007  -0.000021   0.000011
    131       0.000000  -0.000000  -0.000005  -0.000003   0.000011  -0.000004
    132      -0.000013   0.000007   0.000153   0.000097  -0.000328   0.000175
    133       0.000014  -0.000008  -0.000097   0.000014   0.000202  -0.000107
    134      -0.000025   0.000016   0.000328   0.000202  -0.000608   0.000363
    135       0.000016  -0.000007  -0.000175  -0.000107   0.000363  -0.000120
    136      -0.000095   0.000057   0.000563  -0.000052  -0.001156   0.000609
    137       0.000047  -0.000028   0.000052   0.000262  -0.000106   0.000056
    138      -0.000186   0.000123   0.001156  -0.000106  -0.002073   0.001233
    139       0.000123  -0.000053  -0.000609   0.000056   0.001233  -0.000383
    140      -0.000951   0.000902   0.006351  -0.001486  -0.009124   0.008512
    141       0.000404  -0.000383   0.001486   0.002737  -0.002183   0.002037
    142      -0.001280   0.001472   0.009124  -0.002183  -0.010314   0.012507
    143       0.001472  -0.001122  -0.008512   0.002037   0.012507  -0.008575
    144      -0.000500   0.000672   0.001640  -0.001396  -0.001863   0.002697
    145      -0.000086   0.000116   0.001396  -0.000408  -0.001587   0.002298
    146      -0.000531   0.000937   0.001863  -0.001587  -0.001337   0.003067
    147       0.000937  -0.001090  -0.002697   0.002298   0.003067  -0.003660
    148      -0.000089   0.000244   0.000459  -0.000355  -0.000258   0.000986
    149      -0.000011   0.000030   0.000355  -0.000052  -0.000196   0.000750
    150      -0.000026   0.000206   0.000258  -0.000196   0.000075   0.000545
    151       0.000206  -0.000519  -0.000986   0.000750   0.000545  -0.001866
    152      -0.000029   0.000128   0.000446  -0.000063  -0.000114   0.001041
    153       0.000013  -0.000058   0.000063   0.000203  -0.000016   0.000145
    154       0.000009   0.000070   0.000114  -0.000016   0.000183   0.000263
    155       0.000070  -0.000290  -0.001041   0.000145   0.000263  -0.002181
    156      -0.000001   0.000003   0.000012   0.000000  -0.000002   0.000033
    157       0.000000  -0.000002  -0.000000   0.000006   0.000000  -0.000001
    158       0.000000   0.000002   0.000002   0.000000   0.000005   0.000005
    159       0.000002  -0.000009  -0.000033  -0.000001   0.000005  -0.000084
    160      -0.000000   0.000000   0.000001  -0.000000  -0.000000   0.000002
    161       0.000000  -0.000000   0.000000   0.000000  -0.000000   0.000001
    162       0.000000   0.000000   0.000000  -0.000000   0.000000   0.000001
    163       0.000000  -0.000001  -0.000002   0.000001   0.000001  -0.000005
    164       0.000000   0.000000   0.000000   0.000000   0.000000   0.000000
    165       0.000000   0.000000   0.000000   0.000000   0.000000   0.000000
    166       0.000000   0.000000   0.000000   0.000000   0.000000   0.000000
    167       0.000000   0.000000   0.000000   0.000000   0.000000   0.000000
    168       0.000000   0.000000   0.000000   0.000000   0.000000   0.000000
[...]
      px      :     0.999826
      py      :     0.980366
 70 C s       :     1.187717  s :     1.187717
      pz      :     0.957284  p :     2.910499
      px      :     0.960001
      py      :     0.993214
 71 C s       :     1.167714  s :     1.167714
      pz      :     1.029139  p :     2.843233
      px      :     1.008551
      py      :     0.805544
 72 H s       :     0.900172  s :     0.900172
 73 H s       :     0.894680  s :     0.894680
 74 H s       :     0.904914  s :     0.904914
 75 H s       :     0.909680  s :     0.909680
 76 H s       :     0.907886  s :     0.907886
 77 H s       :     0.903527  s :     0.903527
 78 H s       :     0.870206  s :     0.870206
 79 H s       :     0.875350  s :     0.875350
 80 H s       :     0.876890  s :     0.876890
 81 H s       :     0.877176  s :     0.877176
 82 H s       :     0.877541  s :     0.877541
 83 H s       :     0.914458  s :     0.914458
 84 H s       :     0.928306  s :     0.928306
 85 H s       :     0.930107  s :     0.930107
 86 O s       :     1.861186  s :     1.861186
      pz      :     1.592208  p :     4.416654
      px      :     1.556958
      py      :     1.267488
 87 O s       :     1.873828  s :     1.873828
      pz      :     1.488625  p :     4.443395
      px      :     1.273114
      py      :     1.681656


                      *****************************
                      * MAYER POPULATION ANALYSIS *
                      *****************************

  NA   - Mulliken gross atomic population
  ZA   - Total nuclear charge
  QA   - Mulliken gross atomic charge
  VA   - Mayer's total valence
  BVA  - Mayer's bonded valence
  FA   - Mayer's free valence

  ATOM       NA         ZA         QA         VA         BVA        FA
  0 C      3.5661     4.0000     0.4339     3.7683     3.7683    -0.0000
  1 C      4.3217     4.0000    -0.3217     3.7535     3.7535    -0.0000
  2 C      4.2781     4.0000    -0.2781     3.7555     3.7555     0.0000
  3 C      4.2460     4.0000    -0.2460     3.7444     3.7444    -0.0000
  4 C      3.9292     4.0000     0.0708     3.7962     3.7962     0.0000
  5 C      4.0633     4.0000    -0.0633     3.8121     3.8121    -0.0000
  6 C      4.0621     4.0000    -0.0621     3.8134     3.8134    -0.0000
  7 C      4.0008     4.0000    -0.0008     3.8220     3.8220     0.0000
  8 C      3.9988     4.0000     0.0012     3.8208     3.8208     0.0000
  9 C      4.0032     4.0000    -0.0032     3.8197     3.8197     0.0000
 10 C      3.9968     4.0000     0.0032     3.8201     3.8201     0.0000
 11 C      4.0037     4.0000    -0.0037     3.8228     3.8228    -0.0000
 12 C      4.0068     4.0000    -0.0068     3.8206     3.8206     0.0000
 13 C      3.9999     4.0000     0.0001     3.8217     3.8217     0.0000
 14 C      3.9992     4.0000     0.0008     3.8191     3.8191     0.0000
 15 C      3.9989     4.0000     0.0011     3.8221     3.8221    -0.0000
 16 C      4.0011     4.0000    -0.0011     3.8215     3.8215    -0.0000
 17 C      4.0027     4.0000    -0.0027     3.8229     3.8229     0.0000
 18 C      4.0048     4.0000    -0.0048     3.8226     3.8226    -0.0000
 19 C      4.0005     4.0000    -0.0005     3.8223     3.8223    -0.0000
 20 C      4.0000     4.0000     0.0000     3.8222     3.8222     0.0000
 21 C      3.9997     4.0000     0.0003     3.8216     3.8216    -0.0000
 22 C      4.0019     4.0000    -0.0019     3.8225     3.8225    -0.0000
 23 C      3.9964     4.0000     0.0036     3.8209     3.8209     0.0000
 24 C      4.0071     4.0000    -0.0071     3.8213     3.8213     0.0000
 25 C      3.9973     4.0000     0.0027     3.8222     3.8222     0.0000
 26 C      4.0001     4.0000    -0.0001     3.8230     3.8230    -0.0000
 27 C      4.0002     4.0000    -0.0002     3.8213     3.8213    -0.0000
 28 C      4.0073     4.0000    -0.0073     3.8214     3.8214    -0.0000
 29 C      3.9982     4.0000     0.0018     3.8201     3.8201    -0.0000
 30 C      4.0053     4.0000    -0.0053     3.8218     3.8218    -0.0000
 31 C      3.9999     4.0000     0.0001     3.8221     3.8221    -0.0000
 32 C      4.0058     4.0000    -0.0058     3.8222     3.8222    -0.0000
 33 C      3.9975     4.0000     0.0025     3.8221     3.8221     0.0000
 34 C      4.0007     4.0000    -0.0007     3.8220     3.8220    -0.0000
 35 C      3.9971     4.0000     0.0029     3.8200     3.8200    -0.0000
 36 C      4.0136     4.0000    -0.0136     3.8190     3.8190    -0.0000
 37 C      4.0105     4.0000    -0.0105     3.8204     3.8204    -0.0000
 38 C      4.0000     4.0000     0.0000     3.8221     3.8221     0.0000
 39 C      4.0002     4.0000    -0.0002     3.8226     3.8226    -0.0000
 40 C      4.0067     4.0000    -0.0067     3.8222     3.8222    -0.0000
 41 C      3.9991     4.0000     0.0009     3.8213     3.8213    -0.0000
 42 C      3.9998     4.0000     0.0002     3.8208     3.8208     0.0000
 43 C      4.0018     4.0000    -0.0018     3.8217     3.8217     0.0000
 44 C      4.0019     4.0000    -0.0019     3.8226     3.8226     0.0000
 45 C      3.9999     4.0000     0.0001     3.8239     3.8239    -0.0000
 46 C      4.0017     4.0000    -0.0017     3.8232     3.8232    -0.0000
 47 C      3.9989     4.0000     0.0011     3.8223     3.8223    -0.0000
 48 C      4.0036     4.0000    -0.0036     3.8217     3.8217    -0.0000
 49 C      4.0048     4.0000    -0.0048     3.8218     3.8218    -0.0000
 50 C      3.9992     4.0000     0.0008     3.8221     3.8221    -0.0000
 51 C      4.0045     4.0000    -0.0045     3.8221     3.8221    -0.0000
 52 C      3.9992     4.0000     0.0008     3.8230     3.8230    -0.0000
 53 C      4.0030     4.0000    -0.0030     3.8230     3.8230    -0.0000
 54 C      4.0022     4.0000    -0.0022     3.8207     3.8207    -0.0000
 55 C      4.0010     4.0000    -0.0010     3.8224     3.8224    -0.0000
 56 C      3.9972     4.0000     0.0028     3.8217     3.8217    -0.0000
 57 C      4.0018     4.0000    -0.0018     3.8213     3.8213    -0.0000
 58 C      3.9980     4.0000     0.0020     3.8213     3.8213    -0.0000
 59 C      4.0023     4.0000    -0.0023     3.8208     3.8208    -0.0000
 60 C      3.9998     4.0000     0.0002     3.8201     3.8201    -0.0000
 61 C      3.9976     4.0000     0.0024     3.8216     3.8216    -0.0000
 62 C      4.0041     4.0000    -0.0041     3.8217     3.8217     0.0000
 63 C      4.0041     4.0000    -0.0041     3.8207     3.8207    -0.0000
 64 C      3.9981     4.0000     0.0019     3.8236     3.8236    -0.0000
 65 C      4.0901     4.0000    -0.0901     3.8265     3.8265    -0.0000
 66 C      4.1656     4.0000    -0.1656     3.7690     3.7690    -0.0000
 67 C      4.1986     4.0000    -0.1986     3.7711     3.7711     0.0000
 68 C      4.1922     4.0000    -0.1922     3.7727     3.7727     0.0000
 69 C      4.1994     4.0000    -0.1994     3.7687     3.7687     0.0000
 70 C      4.1755     4.0000    -0.1755     3.7698     3.7698    -0.0000
 71 C      4.2059     4.0000    -0.2059     3.6416     3.6416    -0.0000
 72 H      0.8301     1.0000     0.1699     0.9711     0.9711    -0.0000
 73 H      0.8256     1.0000     0.1744     0.9696     0.9696    -0.0000
 74 H      0.8338     1.0000     0.1662     0.9724     0.9724    -0.0000
 75 H      0.8402     1.0000     0.1598     0.9745     0.9745     0.0000
 76 H      0.8392     1.0000     0.1608     0.9741     0.9741     0.0000
 77 H      0.8348     1.0000     0.1652     0.9727     0.9727    -0.0000
 78 H      0.7868     1.0000     0.2132     0.9545     0.9545    -0.0000
 79 H      0.7892     1.0000     0.2108     0.9556     0.9556     0.0000
 80 H      0.7917     1.0000     0.2083     0.9566     0.9566     0.0000
 81 H      0.7874     1.0000     0.2126     0.9548     0.9548     0.0000
 82 H      0.7910     1.0000     0.2090     0.9563     0.9563    -0.0000
 83 H      0.8412     1.0000     0.1588     0.9748     0.9748    -0.0000
 84 H      0.8590     1.0000     0.1410     0.9801     0.9801     0.0000
 85 H      0.8618     1.0000     0.1382     0.9809     0.9809    -0.0000
 86 O      6.3316     6.0000    -0.3316     2.1695     2.1695    -0.0000
 87 O      6.3766     6.0000    -0.3766     2.1183     2.1183    -0.0000

  Mayer bond orders larger than 0.1
B(  0-C ,  1-C ) :   0.8258 B(  0-C , 86-O ) :   1.0304 B(  0-C , 87-O ) :   1.8500 
B(  1-C ,  2-C ) :   0.9227 B(  1-C , 72-H ) :   0.9123 B(  1-C , 73-H ) :   0.9112 
B(  2-C ,  3-C ) :   0.9183 B(  2-C , 74-H ) :   0.9132 B(  2-C , 75-H ) :   0.9153 
B(  3-C ,  4-C ) :   0.8932 B(  3-C , 76-H ) :   0.9128 B(  3-C , 77-H ) :   0.9127 
B(  4-C ,  5-C ) :   0.8746 B(  4-C ,  6-C ) :   0.8792 B(  4-C , 65-C ) :   0.9039 
B(  5-C ,  6-C ) :   0.8009 B(  5-C , 10-C ) :   0.9477 B(  5-C , 38-C ) :   0.9425 
B(  6-C ,  7-C ) :   0.9483 B(  6-C , 35-C ) :   0.9426 B(  7-C ,  8-C ) :   1.4928 
B(  7-C , 33-C ) :   1.0587 B(  8-C ,  9-C ) :   0.9785 B(  8-C , 31-C ) :   1.0470 
B(  9-C , 10-C ) :   1.4865 B(  9-C , 25-C ) :   1.0504 B( 10-C , 11-C ) :   1.0625 
B( 11-C , 12-C ) :   1.3785 B( 11-C , 39-C ) :   1.0576 B( 12-C , 13-C ) :   1.0443 
B( 12-C , 24-C ) :   1.0605 B( 13-C , 14-C ) :   1.0468 B( 13-C , 41-C ) :   1.4023 
B( 14-C , 15-C ) :   1.3849 B( 14-C , 23-C ) :   1.0516 B( 15-C , 16-C ) :   1.0605 
B( 15-C , 43-C ) :   1.0469 B( 16-C , 17-C ) :   1.0462 B( 16-C , 21-C ) :   1.3832 
B( 17-C , 18-C ) :   1.3986 B( 17-C , 44-C ) :   1.0525 B( 18-C , 19-C ) :   1.0449 
B( 18-C , 54-C ) :   1.0514 B( 19-C , 20-C ) :   1.4166 B( 19-C , 56-C ) :   1.0340 
B( 20-C , 21-C ) :   1.0505 B( 20-C , 28-C ) :   1.0298 B( 21-C , 22-C ) :   1.0545 
B( 22-C , 23-C ) :   1.3930 B( 22-C , 27-C ) :   1.0493 B( 23-C , 24-C ) :   1.0425 
B( 24-C , 25-C ) :   1.3906 B( 25-C , 26-C ) :   1.0517 B( 26-C , 27-C ) :   1.3785 
B( 26-C , 31-C ) :   1.0626 B( 27-C , 28-C ) :   1.0575 B( 28-C , 29-C ) :   1.4094 
B( 29-C , 30-C ) :   1.0458 B( 29-C , 57-C ) :   1.0361 B( 30-C , 31-C ) :   1.3816 
B( 30-C , 32-C ) :   1.0648 B( 32-C , 33-C ) :   1.3881 B( 32-C , 58-C ) :   1.0381 
B( 33-C , 34-C ) :   1.0467 B( 34-C , 35-C ) :   1.0931 B( 34-C , 63-C ) :   1.3537 
B( 35-C , 36-C ) :   1.4575 B( 36-C , 37-C ) :   0.9736 B( 36-C , 64-C ) :   1.0746 
B( 37-C , 38-C ) :   1.4761 B( 37-C , 49-C ) :   1.0602 B( 38-C , 39-C ) :   1.0824 
B( 39-C , 40-C ) :   1.3499 B( 40-C , 41-C ) :   1.0576 B( 40-C , 48-C ) :   1.0757 
B( 41-C , 42-C ) :   1.0334 B( 42-C , 43-C ) :   1.4207 B( 42-C , 47-C ) :   1.0388 
B( 43-C , 44-C ) :   1.0297 B( 44-C , 45-C ) :   1.4105 B( 45-C , 46-C ) :   1.0271 
B( 45-C , 53-C ) :   1.0639 B( 46-C , 47-C ) :   1.4161 B( 46-C , 51-C ) :   1.0560 
B( 47-C , 48-C ) :   1.0394 B( 48-C , 49-C ) :   1.3795 B( 49-C , 50-C ) :   1.0521 
B( 50-C , 51-C ) :   1.3875 B( 50-C , 64-C ) :   1.0514 B( 51-C , 52-C ) :   1.0462 
B( 52-C , 53-C ) :   1.0412 B( 52-C , 61-C ) :   1.4117 B( 53-C , 54-C ) :   1.3889 
B( 54-C , 55-C ) :   1.0487 B( 55-C , 56-C ) :   1.0629 B( 55-C , 60-C ) :   1.3830 
B( 56-C , 57-C ) :   1.3926 B( 57-C , 58-C ) :   1.0617 B( 58-C , 59-C ) :   1.3896 
B( 59-C , 60-C ) :   1.0565 B( 59-C , 63-C ) :   1.0460 B( 60-C , 61-C ) :   1.0440 
B( 61-C , 62-C ) :   1.0368 B( 62-C , 63-C ) :   1.0816 B( 62-C , 64-C ) :   1.3699 
B( 65-C , 66-C ) :   1.3437 B( 65-C , 68-C ) :   0.1134 B( 65-C , 70-C ) :   1.2976 
B( 66-C , 67-C ) :   1.3089 B( 66-C , 69-C ) :   0.1124 B( 66-C , 78-H ) :   0.8855 
B( 67-C , 68-C ) :   1.3559 B( 67-C , 70-C ) :   0.1110 B( 67-C , 79-H ) :   0.8850 
B( 68-C , 69-C ) :   1.3046 B( 68-C , 80-H ) :   0.8860 B( 69-C , 70-C ) :   1.3579 
B( 69-C , 81-H ) :   0.8830 B( 70-C , 82-H ) :   0.8868 B( 71-C , 83-H ) :   0.8968 
B( 71-C , 84-H ) :   0.8998 B( 71-C , 85-H ) :   0.9006 B( 71-C , 86-O ) :   0.8923 
B( 86-O , 87-O ) :   0.1740 

-------
TIMINGS
-------

Total SCF time: 0 days 0 hours 0 min 1 sec 

Total time                  ....       1.711 sec
Sum of individual times     ....       1.625 sec  ( 94.9%)

Fock matrix formation       ....       0.122 sec  (  7.1%)
Diagonalization             ....       0.361 sec  ( 21.1%)
Density matrix formation    ....       0.133 sec  (  7.8%)
Population analysis         ....       0.165 sec  (  9.7%)
Initial guess               ....       0.035 sec  (  2.0%)
Orbital Transformation      ....       0.000 sec  (  0.0%)
Orbital Orthonormalization  ....       0.067 sec  (  3.9%)
DIIS solution               ....       0.067 sec  (  3.9%)
SOSCF solution              ....       0.741 sec  ( 43.3%)

-------------------------   --------------------
FINAL SINGLE POINT ENERGY      -367.991622101489
-------------------------   --------------------

------------------------------------------------------------------------------
                          SCF GRADIENT FOR NDO METHODS
------------------------------------------------------------------------------

The cartesian gradient:
   1   C   :   -0.221391299   -0.246579268    0.041712416
   2   C   :    0.041313302    0.043048260   -0.050106249
   3   C   :   -0.050868085   -0.038655105    0.043033167
   4   C   :    0.058501164    0.027177033   -0.057603278
   5   C   :    0.003779959    0.001829718   -0.010773339
   6   C   :    0.010125749    0.033657812   -0.003050159
   7   C   :   -0.032775861   -0.016009544    0.003439321
   8   C   :   -0.002357497    0.014726383    0.006151875
   9   C   :    0.009674118    0.005407885   -0.010331919
  10   C   :   -0.019666143   -0.010056395    0.001339698
  11   C   :   -0.001141213    0.007437762   -0.007631535
  12   C   :    0.002406157   -0.016615961   -0.025168885
  13   C   :   -0.016115823    0.005144673    0.005713368
  14   C   :   -0.012261224   -0.002613114   -0.006640477
  15   C   :    0.015839343   -0.010659856    0.009574228
  16   C   :   -0.027704642   -0.010690758   -0.027647403
  17   C   :    0.018029481    0.000981490   -0.028160208
  18   C   :    0.019377777   -0.006244738    0.000293291
  19   C   :    0.010313078   -0.005846104    0.010616179
  20   C   :    0.012195947   -0.005938886   -0.003870645
  21   C   :    0.015662880    0.010085406   -0.011790094
  22   C   :   -0.001611757   -0.030082345    0.019404449
  23   C   :   -0.011176677   -0.015690958   -0.007378052
  24   C   :    0.000006042   -0.008051943   -0.008348888
  25   C   :   -0.002360588   -0.002618569   -0.006418824
  26   C   :   -0.019122192   -0.002265197   -0.004990831
  27   C   :    0.027018502   -0.031220528   -0.012377228
  28   C   :   -0.016662373    0.027241184   -0.024249094
  29   C   :    0.017215434    0.005242419    0.001126741
  30   C   :    0.001205094   -0.008292775   -0.015383630
  31   C   :    0.003291649   -0.010871376   -0.017784819
  32   C   :    0.009558078    0.023892819   -0.001441445
  33   C   :   -0.005110678    0.023740433    0.013732507
  34   C   :    0.008870868    0.004623027   -0.015194319
  35   C   :    0.028230316    0.004976861    0.032331247
  36   C   :   -0.016569241   -0.004118169    0.005897503
  37   C   :   -0.001356334    0.019608573   -0.018819824
  38   C   :   -0.005026666   -0.000561047    0.011935578
  39   C   :   -0.006668565    0.019543261   -0.007094468
  40   C   :   -0.007598550   -0.041612624    0.031630539
  41   C   :   -0.031255024    0.030682080   -0.024133359
  42   C   :    0.005607719   -0.020035113    0.000013613
  43   C   :   -0.007093894   -0.015295659   -0.011776281
  44   C   :   -0.006021434   -0.005824162    0.020697106
  45   C   :   -0.003564065   -0.019259574    0.002079297
  46   C   :   -0.016353061   -0.026223848    0.011500419
  47   C   :   -0.001993186   -0.017087866    0.010608647
  48   C   :   -0.010900020   -0.001199953    0.013528599
  49   C   :    0.001644122    0.005986870    0.019192427
  50   C   :   -0.012963131    0.000110349    0.001200126
  51   C   :    0.013577156   -0.031353167    0.026831834
  52   C   :   -0.035383971    0.034623248    0.011756245
  53   C   :    0.005007209    0.002090535    0.014211705
  54   C   :    0.048174607    0.017719149   -0.004051645
  55   C   :   -0.008987855   -0.014306292    0.026029928
  56   C   :   -0.002075835    0.022670896    0.025779850
  57   C   :    0.011471228    0.018406134   -0.028390245
  58   C   :    0.014195578   -0.011790385    0.001742728
  59   C   :    0.005998356    0.014252246    0.016140713
  60   C   :    0.010184235    0.002567970   -0.010531839
  61   C   :    0.019435092   -0.005037124   -0.008343786
  62   C   :    0.009590852    0.010753584    0.006065706
  63   C   :    0.003965162    0.003710007    0.010337713
  64   C   :   -0.022823685    0.023386231   -0.024837736
  65   C   :    0.005738368    0.020162813    0.004393847
  66   C   :    0.004730103   -0.006594455    0.038823401
  67   C   :   -0.040247195   -0.026009013   -0.018333510
  68   C   :   -0.026830687   -0.050061572    0.049818666
  69   C   :    0.012201139   -0.024069915    0.065037410
  70   C   :    0.076341274    0.046678737    0.038581369
  71   C   :    0.040514251    0.050489285   -0.024320375
  72   C   :   -0.054411251   -0.123413038   -0.012971705
  73   H   :    0.023260264   -0.051624331    0.086395031
  74   H   :   -0.080624693    0.007742104   -0.008969053
  75   H   :    0.101822993    0.003278578    0.011347333
  76   H   :   -0.023042616    0.053047729   -0.084090438
  77   H   :    0.012215877   -0.048268993    0.081604062
  78   H   :   -0.086159705   -0.003076648   -0.026593597
  79   H   :    0.073685837    0.044099151    0.039820274
  80   H   :    0.061083300    0.085414694   -0.057888358
  81   H   :   -0.033493674    0.029717634   -0.109959786
  82   H   :   -0.110984041   -0.064782781   -0.060354715
  83   H   :   -0.059123001   -0.087337739    0.058712855
  84   H   :   -0.107526665    0.064356226    0.110866061
  85   H   :    0.157688805   -0.014277288    0.060436986
  86   H   :   -0.004720234    0.077216686   -0.149562232
  87   O   :   -0.102867858    0.107727077    0.123518197
  88   O   :    0.336243723    0.136969163   -0.177639982

Norm of the cartesian gradient     ...    0.798985236
RMS gradient                       ...    0.049174142
MAX gradient                       ...    0.336243723

                            ***************************************
                            *     ORCA property calculations      *
                            ***************************************

                                    ---------------------
                                    Active property flags
                                    ---------------------
   (+) Dipole Moment


------------------------------------------------------------------------------
                       ORCA ELECTRIC PROPERTIES CALCULATION
------------------------------------------------------------------------------

Dipole Moment Calculation                       ... on
Quadrupole Moment Calculation                   ... off
Polarizability Calculation                      ... off
GBWName                                         ... PCB_1_122.gbw
Electron density file                           ... PCB_1_122.scfp.tmp

-------------
DIPOLE MOMENT
-------------
                                X             Y             Z
Electronic contribution:    -95.85438     111.03487     -30.57647
Nuclear contribution   :     67.69782     -99.59726       4.28267
                        -----------------------------------------
Total Dipole Moment    :    -28.15656      11.43761     -26.29380
                        -----------------------------------------
Magnitude (a.u.)       :     40.18675
Magnitude (Debye)      :    102.14660


Timings for individual modules:

Sum of individual times         ...        4.456 sec (=   0.074 min)
STO integral calculation        ...        0.604 sec (=   0.010 min)  13.6 %
SCF iterations                  ...        3.105 sec (=   0.052 min)  69.7 %
SCF Gradient evaluation         ...        0.747 sec (=   0.012 min)  16.8 %
                             ****ORCA TERMINATED NORMALLY****
TOTAL RUN TIME: 0 days 0 hours 0 minutes 7 seconds 286 msec
