
                                 *****************
                                 * O   R   C   A *
                                 *****************

           --- An Ab Initio, DFT and Semiempirical electronic structure package ---

                  ######################################################
                  #                        -***-                       #
                  #  Department of molecular theory and spectroscopy   #
                  #              Directorship: Frank Neese             #
                  #   Max Planck Institute for Bioinorganic Chemistry  #
                  #                  D-45470 Muelheim/Ruhr             #
                  #                       Germany                      #
                  #                                                    #
                  #                  All rights reserved               #
                  #                        -***-                       #
                  ######################################################


                         Program Version 2.9.1 -  RELEASE  -


 With contributions from (in alphabetic order):
   Ute Becker             : Parallelization
   Dmitry Ganyushin       : Spin-Orbit,Spin-Spin,Magnetic field MRCI
   Andreas Hansen         : Spin unrestricted coupled pair/coupled cluster methods
   Dimitrios Liakos       : Parallel MDCI
   Robert Izsak           : Overlap fitted RIJCOSX
   Christian Kollmar      : KDIIS, orbital optimized coupled pair methods, Brueckner methods
   Simone Kossmann        : Meta GGA functionals, improved MP2 methods
   Taras Petrenko         : TD-DFT gradient, Resonance Raman, ABS, fluorescence, XAS, NRVS
   Christoph Reimann      : Effective Core Potentials
   Michael Roemelt        : Restricted open shell CI
   Christoph Riplinger    : Improved optimizer, TS searches, QM/MM
   Barbara Sandhoefer     : DKH, picture change effects
   Igor Schapiro          : Molecular dynamics
   Kantharuban Sivalingam : CASSCF and multireference perturbation theory
   Boris Wezisla          : Elementary symmetry handling
   Frank Wennmohs         : Technical directorship


 We gratefully acknowledge several collegues who have allowed us to
 interface, adapt or use parts of their codes:
   Stefan Grimme                                : VdW corrections, initial TS optimization
                                                  and many helpful discussions
   Ed Valeev                                    : LibInt (2-el integral package), F12 methods
   Andreas Klamt, Michael Diedenhofen           : otool_cosmo (COSMO solvation model)
   Frank Weinhold                               : gennbo (NPA and NBO analysis)


 Your calculation uses the libint2 library for the computation of 2-el integrals
 For citations please refer to: http://libint.valeyev.net

Your calculation utilizes the basis: cc-VDZ
Cite in your paper:
 H     : T.H. Dunning, Jr. J. Chem. Phys. 90, 1007 (1989).
 He    : D.E. Woon and T.H. Dunning, Jr. J. Chem. Phys. 100, 2975 (1994).
Li - Ne: T.H. Dunning, Jr. J. Chem. Phys. 90, 1007 (1989).
Na - Mg: D.E. Woon and T.H. Dunning, Jr.  (to be published)
Al - Ar: D.E. Woon and T.H. Dunning, Jr.  J. Chem. Phys. 98, 1358 (1993).

Your calculation utilizes polarization functions from the basis: cc-pVDZ
Cite in your paper:
 H     : T.H. Dunning, Jr. J. Chem. Phys. 90, 1007 (1989).
 He    : D.E. Woon and T.H. Dunning, Jr. J. Chem. Phys. 100, 2975 (1994).
Li - Ne: T.H. Dunning, Jr. J. Chem. Phys. 90, 1007 (1989).
Na - Mg: D.E. Woon and T.H. Dunning, Jr.  (to be published)
Al - Ar: D.E. Woon and T.H. Dunning, Jr.  J. Chem. Phys. 98, 1358 (1993).

================================================================================
                                        WARNINGS
                       Please study these warnings very carefully!
================================================================================
Now building the actual basis set


INFO   : the flag for use of LIBINT has been found!

================================================================================
                                       INPUT FILE
================================================================================
NAME = prova.inp
|  1> ! B3LYP/G cc-pVDZ NormalPrint
|  2> * xyz 0 1                                                                       
|  3> O     0.5541    -0.7168     2.5451
|  4> O    -0.4144    -0.6445     1.7332
|  5> O    -0.5393     0.4071     1.0372
|  6> O     2.5562    -2.3144     1.1906
|  7> H     2.5049    -1.4849     1.7839
|  8> H     3.4118    -2.6741     1.5288
|  9> O     1.9395    -1.3655    -1.0638
| 10> H     2.7195    -0.8391    -1.0652
| 11> H     2.0366    -1.8494    -0.2154
| 12> *
| 13> 
| 14>                          ****END OF INPUT****
================================================================================

                       ****************************
                       * Single Point Calculation *
                       ****************************

---------------------------------
CARTESIAN COORDINATES (ANGSTROEM)
---------------------------------
  O      0.554100   -0.716800    2.545100
  O     -0.414400   -0.644500    1.733200
  O     -0.539300    0.407100    1.037200
  O      2.556200   -2.314400    1.190600
  H      2.504900   -1.484900    1.783900
  H      3.411800   -2.674100    1.528800
  O      1.939500   -1.365500   -1.063800
  H      2.719500   -0.839100   -1.065200
  H      2.036600   -1.849400   -0.215400

----------------------------
CARTESIAN COORDINATES (A.U.)
----------------------------
  NO LB      ZA    FRAG    MASS        X           Y           Z
   0 O     8.0000    0    15.999    1.047097   -1.354556    4.809542
   1 O     8.0000    0    15.999   -0.783103   -1.217928    3.275273
   2 O     8.0000    0    15.999   -1.019129    0.769308    1.960024
   3 O     8.0000    0    15.999    4.830518   -4.373582    2.249908
   4 H     1.0000    0     1.008    4.733575   -2.806054    3.371082
   5 H     1.0000    0     1.008    6.447368   -5.053317    2.889013
   6 O     8.0000    0    15.999    3.665124   -2.580421   -2.010291
   7 H     1.0000    0     1.008    5.139110   -1.585669   -2.012936
   8 H     1.0000    0     1.008    3.848616   -3.494860   -0.407047

--------------------------------
INTERNAL COORDINATES (ANGSTROEM)
--------------------------------
 O      0   0   0   0.000000     0.000     0.000
 O      1   0   0   1.265860     0.000     0.000
 O      2   1   0   1.267233   118.364     0.000
 O      1   2   3   2.897482   105.089   260.157
 H      4   1   2   1.021130    41.042   139.792
 H      4   1   2   0.987833   129.733   187.203
 O      4   1   2   2.522509    92.375    34.760
 H      7   4   1   0.941010    90.522   105.359
 H      7   4   1   0.981514    10.841   277.084

---------------------------
INTERNAL COORDINATES (A.U.)
---------------------------
 O      0   0   0   0.000000     0.000     0.000
 O      1   0   0   2.392128     0.000     0.000
 O      2   1   0   2.394723   118.364     0.000
 O      1   2   3   5.475447   105.089   260.157
 H      4   1   2   1.929656    41.042   139.792
 H      4   1   2   1.866734   129.733   187.203
 O      4   1   2   4.766850    92.375    34.760
 H      7   4   1   1.778250    90.522   105.359
 H      7   4   1   1.854793    10.841   277.084

---------------------
BASIS SET INFORMATION
---------------------
There are 2 groups of distinct atoms

 Group   1 Type O   : 17s4p1d contracted to 3s2p1d pattern {881/31/1}
 Group   2 Type H   : 4s1p contracted to 2s1p pattern {31/1}

Atom   0O    basis set group =>   1
Atom   1O    basis set group =>   1
Atom   2O    basis set group =>   1
Atom   3O    basis set group =>   1
Atom   4H    basis set group =>   2
Atom   5H    basis set group =>   2
Atom   6O    basis set group =>   1
Atom   7H    basis set group =>   2
Atom   8H    basis set group =>   2
------------------------------------------------------------------------------
                           ORCA GTO INTEGRAL CALCULATION
------------------------------------------------------------------------------

                         BASIS SET STATISTICS AND STARTUP INFO

 # of primitive gaussian shells          ...  130
 # of primitive gaussian functions       ...  198
 # of contracted shell                   ...   42
 # of contracted basis functions         ...   90
 Highest angular momentum                ...    2
 Maximum contraction depth               ...    8
 Integral package used                   ... LIBINT
 Integral threshhold             Thresh  ...  1.000e-10
 Primitive cut-off               TCut    ...  1.000e-11


                              INTEGRAL EVALUATION

 One electron integrals                  ... done
 Pre-screening matrix                    ... done
 Shell pair data                         ... done (   0.001 sec)

-------------------------------------------------------------------------------
                                 ORCA SCF
-------------------------------------------------------------------------------

------------
SCF SETTINGS
------------
Hamiltonian:
 Density Functional     Method          .... DFT(GTOs)
 Exchange Functional    Exchange        .... B88
   X-Alpha parameter    XAlpha          ....  0.666667
   Becke's b parameter  XBeta           ....  0.004200
 Correlation Functional Correlation     .... LYP
 LDA part of GGA corr.  LDAOpt          .... VWN-3
 Gradients option       PostSCFGGA      .... off
 Hybrid DFT is turned on
   Fraction HF Exchange ScalHFX         ....  0.200000
   Scaling of DF-GGA-X  ScalDFX         ....  0.720000
   Scaling of DF-GGA-C  ScalDFC         ....  0.810000
   Scaling of DF-LDA-C  ScalLDAC        ....  1.000000
   Perturbative correction              ....  0.000000


General Settings:
 Integral files         IntName         .... prova
 Hartree-Fock type      HFTyp           .... RHF
 Total Charge           Charge          ....    0
 Multiplicity           Mult            ....    1
 Number of Electrons    NEL             ....   44
 Basis Dimension        Dim             ....   90
 Nuclear Repulsion      ENuc            ....    179.0403935221 Eh

Convergence Acceleration:
 DIIS                   CNVDIIS         .... on
   Start iteration      DIISMaxIt       ....    12
   Startup error        DIISStart       ....  0.200000
   # of expansion vecs  DIISMaxEq       ....     5
   Bias factor          DIISBfac        ....   1.050
   Max. coefficient     DIISMaxC        ....  10.000
 Newton-Raphson         CNVNR           .... off
 SOSCF                  CNVSOSCF        .... on
   Start iteration      SOSCFMaxIt      ....   150
   Startup grad/error   SOSCFStart      ....  0.003300
 Level Shifting         CNVShift        .... on
   Level shift para.    LevelShift      ....    0.2500
   Turn off err/grad.   ShiftErr        ....    0.0010
 Zerner damping         CNVZerner       .... off
 Static damping         CNVDamp         .... on
   Fraction old density DampFac         ....    0.7000
   Max. Damping (<1)    DampMax         ....    0.9800
   Min. Damping (>=0)   DampMin         ....    0.0000
   Turn off err/grad.   DampErr         ....    0.1000
 Fernandez-Rico         CNVRico         .... off

SCF Procedure:
 Maximum # iterations   MaxIter         ....   125
 SCF integral mode      SCFMode         .... Direct
   Integral package                     .... LIBINT
 Reset frequeny         DirectResetFreq ....    20
 Integral Threshold     Thresh          ....  1.000e-10 Eh
 Primitive CutOff       TCut            ....  1.000e-11 Eh

Convergence Tolerance:
 Convergence Check Mode ConvCheckMode   .... Total+1el-Energy
 Energy Change          TolE            ....  1.000e-06 Eh
 1-El. energy change                    ....  1.000e-03 Eh
 Orbital Gradient       TolG            ....  5.000e-05
 Orbital Rotation angle TolX            ....  5.000e-05
 DIIS Error             TolErr          ....  1.000e-06


Diagonalization of the overlap matrix:
Smallest eigenvalue                        ... 1.722e-02
Time for diagonalization                   ...    0.006 sec
Time for construction of square roots      ...    0.001 sec
Total time needed                          ...    0.007 sec

-------------------
DFT GRID GENERATION
-------------------

General Integration Accuracy     IntAcc      ...  4.340
Radial Grid Type                 RadialGrid  ... Gauss-Chebyshev
Angular Grid (max. acc.)         AngularGrid ... Lebedev-110
Angular grid pruning method      GridPruning ... 3 (G Style)
Weight generation scheme         WeightScheme... Becke
Basis function cutoff            BFCut       ...    1.0000e-10
Integration weight cutoff        WCut        ...    1.0000e-14
Grids for H and He will be reduced by one unit

# of grid points (after initial pruning)     ...  11756 (   0.0 sec)
# of grid points (after weights+screening)   ...  11368 (   0.0 sec)
nearest neighbour list constructed           ...    0.0 sec
Grid point re-assignment to atoms done       ...    0.0 sec
Grid point division into batches done        ...    0.0 sec
Reduced shell lists constructed in    0.2 sec

Total number of grid points                  ...    11368
Total number of batches                      ...      183
Average number of points per batch           ...       62
Average number of grid points per atom       ...     1263
Average number of shells per batch           ...    29.08 (69.24%)
Average number of basis functions per batch  ...    59.16 (65.73%)
Average number of large shells per batch     ...    21.42 (73.65%)
Average number of large basis fcns per batch ...    43.14 (72.92%)
Maximum spatial batch extension              ...  18.01, 16.16, 17.44 au
Average spatial batch extension              ...   3.98,  4.02,  4.08 au

Time for grid setup =    0.186 sec

------------------------------
INITIAL GUESS: MODEL POTENTIAL
------------------------------
Loading Hartree-Fock densities                     ... done
Calculating cut-offs                               ... done
Setting up the integral package                    ... done
Initializing the effective Hamiltonian             ... done
Starting the Coulomb interaction                   ... done (   0.0 sec)
Reading the grid                                   ... done
Mapping shells                                     ... done
Starting the XC term evaluation                    ... done (   0.6 sec)
  promolecular density results
     # of electrons  =     43.997818354
     EX              =    -42.071851720
     EC              =     -1.562496960
     EX+EC           =    -43.634348680
Transforming the Hamiltonian                       ... done (   0.0 sec)
Diagonalizing the Hamiltonian                      ... done (   0.0 sec)
Back transforming the eigenvectors                 ... done (   0.0 sec)
Now organizing SCF variables                       ... done
                      ------------------
                      INITIAL GUESS DONE (   0.7 sec)
                      ------------------
--------------
SCF ITERATIONS
--------------
               ***  Starting incremental Fock matrix formation  ***

                         ----------------------------
                         !        ITERATION     0   !
                         ----------------------------
   Total Energy        :    -377.960836651297 Eh
   Energy Change       :    -377.960836651297 Eh
   MAX-DP              :       0.100175793695
   RMS-DP              :       0.004437973661
   Actual Damping      :       0.7000
   Actual Level Shift  :       0.2500 Eh
   Int. Num. El.       :    43.99982197 (UP=   21.99991099 DN=   21.99991099)
   Exchange            :   -34.27550826
   Correlation         :    -2.02540957


                         ----------------------------
                         !        ITERATION     1   !
                         ----------------------------
   Total Energy        :    -378.118458080109 Eh
   Energy Change       :      -0.157621428812 Eh
   MAX-DP              :       0.053240648588
   RMS-DP              :       0.002375092508
   Actual Damping      :       0.7000
   Actual Level Shift  :       0.2500 Eh
   Int. Num. El.       :    43.99994143 (UP=   21.99997071 DN=   21.99997071)
   Exchange            :   -34.00291075
   Correlation         :    -2.01607243

                               ***Turning on DIIS***

                         ----------------------------
                         !        ITERATION     2   !
                         ----------------------------
   Total Energy        :    -378.164448985018 Eh
   Energy Change       :      -0.045990904909 Eh
   MAX-DP              :       0.063333545015
   RMS-DP              :       0.002764526366
   Actual Damping      :       0.0000
   Actual Level Shift  :       0.2500 Eh
   Int. Num. El.       :    43.99996104 (UP=   21.99998052 DN=   21.99998052)
   Exchange            :   -33.85381907
   Correlation         :    -2.01070299
   DIIS-Error          :       0.037336982535


                         ----------------------------
                         !        ITERATION     3   !
                         ----------------------------
   Total Energy        :    -378.258970844265 Eh
   Energy Change       :      -0.094521859248 Eh
   MAX-DP              :       0.035003852651
   RMS-DP              :       0.001607292579
   Actual Damping      :       0.0000
   Actual Level Shift  :       0.2500 Eh
   Int. Num. El.       :    43.99987363 (UP=   21.99993682 DN=   21.99993682)
   Exchange            :   -33.68104916
   Correlation         :    -2.00441714
   DIIS-Error          :       0.080314944665
   DIIS coefficients:
      0.63132   0.36868


                         ----------------------------
                         !        ITERATION     4   !
                         ----------------------------
   Total Energy        :    -378.270648954926 Eh
   Energy Change       :      -0.011678110661 Eh
   MAX-DP              :       0.018236418413
   RMS-DP              :       0.000557658503
   Actual Damping      :       0.0000
   Actual Level Shift  :       0.2500 Eh
   Int. Num. El.       :    43.99982729 (UP=   21.99991364 DN=   21.99991364)
   Exchange            :   -33.77722417
   Correlation         :    -2.00798420
   DIIS-Error          :       0.027451149009
   DIIS coefficients:
      0.32709   0.14092   0.53199


                         ----------------------------
                         !        ITERATION     5   !
                         ----------------------------
   Total Energy        :    -378.272149296246 Eh
   Energy Change       :      -0.001500341320 Eh
   MAX-DP              :       0.004193766624
   RMS-DP              :       0.000139546019
   Actual Damping      :       0.0000
   Actual Level Shift  :       0.2500 Eh
   Int. Num. El.       :    43.99983373 (UP=   21.99991686 DN=   21.99991686)
   Exchange            :   -33.79547652
   Correlation         :    -2.00864096
   DIIS-Error          :       0.004321100848
   DIIS coefficients:
      0.04887   0.03330   0.13867   0.77915

                      *** Initiating the SOSCF procedure ***
                           *** Shutting down DIIS ***
                      *** Re-Reading the Fockian *** 
                      *** Removing any level shift *** 

                         ----------------------------
                         !        ITERATION     6   !
                         ----------------------------
   Total Energy        :    -378.272199786714 Eh
   Energy Change       :      -0.000050490468 Eh
   MAX-DP              :       0.001743139755
   RMS-DP              :       0.000070508787
   Orbital gradient    :       0.000744340894
   Orbital Rotation    :       0.000744340894
   Actual Damping      :       0.0000
   Int. Num. El.       :    43.99984352 (UP=   21.99992176 DN=   21.99992176)
   Exchange            :   -33.79460537
   Correlation         :    -2.00859446

               *** Restarting incremental Fock matrix formation ***

                         ----------------------------
                         !        ITERATION     7   !
                         ----------------------------
   Total Energy        :    -378.272210362138 Eh
   Energy Change       :      -0.000010575424 Eh
   MAX-DP              :       0.003950822745
   RMS-DP              :       0.000158301323
   Orbital gradient    :       0.000908586743
   Orbital Rotation    :       0.005176670438
   Actual Damping      :       0.0000
   Int. Num. El.       :    43.99984220 (UP=   21.99992110 DN=   21.99992110)
   Exchange            :   -33.79370729
   Correlation         :    -2.00856350


                         ----------------------------
                         !        ITERATION     8   !
                         ----------------------------
   Total Energy        :    -378.272151804409 Eh
   Energy Change       :       0.000058557730 Eh
   MAX-DP              :       0.002885152712
   RMS-DP              :       0.000110080925
   Orbital gradient    :       0.004465686588
   Orbital Rotation    :       0.004540000002
   Actual Damping      :       0.0000
   Int. Num. El.       :    43.99984466 (UP=   21.99992233 DN=   21.99992233)
   Exchange            :   -33.79380518
   Correlation         :    -2.00856802


                         ----------------------------
                         !        ITERATION     9   !
                         ----------------------------
   Total Energy        :    -378.272219266824 Eh
   Energy Change       :      -0.000067462415 Eh
   MAX-DP              :       0.000887158460
   RMS-DP              :       0.000038104065
   Orbital gradient    :       0.000334060854
   Orbital Rotation    :       0.001053143883
   Actual Damping      :       0.0000
   Int. Num. El.       :    43.99984268 (UP=   21.99992134 DN=   21.99992134)
   Exchange            :   -33.79370367
   Correlation         :    -2.00856457


                         ----------------------------
                         !        ITERATION    10   !
                         ----------------------------
   Total Energy        :    -378.272217046626 Eh
   Energy Change       :       0.000002220198 Eh
   MAX-DP              :       0.000709744053
   RMS-DP              :       0.000023003799
   Orbital gradient    :       0.000861846448
   Orbital Rotation    :       0.000633308655
   Actual Damping      :       0.0000
   Int. Num. El.       :    43.99984329 (UP=   21.99992164 DN=   21.99992164)
   Exchange            :   -33.79335621
   Correlation         :    -2.00854686


                         ----------------------------
                         !        ITERATION    11   !
                         ----------------------------
   Total Energy        :    -378.272220275272 Eh
   Energy Change       :      -0.000003228646 Eh
   MAX-DP              :       0.000186515602
   RMS-DP              :       0.000010919151
   Orbital gradient    :       0.000046753854
   Orbital Rotation    :       0.000505600033
   Actual Damping      :       0.0000
   Int. Num. El.       :    43.99984314 (UP=   21.99992157 DN=   21.99992157)
   Exchange            :   -33.79365575
   Correlation         :    -2.00855787


                         ----------------------------
                         !        ITERATION    12   !
                         ----------------------------
   Total Energy        :    -378.272220266541 Eh
   Energy Change       :       0.000000008731 Eh
   MAX-DP              :       0.000115631377
   RMS-DP              :       0.000004084445
   Orbital gradient    :       0.000073539285
   Orbital Rotation    :       0.000046489939
   Actual Damping      :       0.0000
   Int. Num. El.       :    43.99984286 (UP=   21.99992143 DN=   21.99992143)
   Exchange            :   -33.79377222
   Correlation         :    -2.00856411

                 **** Energy Check signals convergence ****
              ***Rediagonalizing the Fockian in SOSCF/NRSCF***

               *****************************************************
               *                     SUCCESS                       *
               *           SCF CONVERGED AFTER  13 CYCLES          *
               *****************************************************

Setting up the final grid:

General Integration Accuracy     IntAcc      ...  4.670
Radial Grid Type                 RadialGrid  ... Gauss-Chebyshev
Angular Grid (max. acc.)         AngularGrid ... Lebedev-302
Angular grid pruning method      GridPruning ... 3 (G Style)
Weight generation scheme         WeightScheme... Becke
Basis function cutoff            BFCut       ...    1.0000e-10
Integration weight cutoff        WCut        ...    1.0000e-14
Grids for H and He will be reduced by one unit

# of grid points (after initial pruning)     ...  44636 (   0.0 sec)
# of grid points (after weights+screening)   ...  42936 (   0.1 sec)
nearest neighbour list constructed           ...    0.0 sec
Grid point re-assignment to atoms done       ...    0.0 sec
Grid point division into batches done        ...    0.1 sec
Reduced shell lists constructed in    0.6 sec

Total number of grid points                  ...    42936
Total number of batches                      ...      677
Average number of points per batch           ...       63
Average number of grid points per atom       ...     4771
Average number of shells per batch           ...    25.82 (61.49%)
Average number of basis functions per batch  ...    51.88 (57.65%)
Average number of large shells per batch     ...    18.86 (73.04%)
Average number of large basis fcns per batch ...    37.69 (72.64%)
Maximum spatial batch extension              ...  18.06, 17.69, 20.77 au
Average spatial batch extension              ...   2.76,  2.77,  2.73 au

Final grid set up in    0.8 sec
Final integration                            ... done (   0.5 sec)
Change in XC energy                          ...    -0.000427132
Integrated number of electrons               ...    44.000026980
Previous integrated no of electrons          ...    43.999842901

----------------
TOTAL SCF ENERGY
----------------

Total Energy       :         -378.27264748 Eh          -10293.32204 eV

Components:
Nuclear Repulsion  :          179.04039352 Eh            4871.93679 eV
Electronic Energy  :         -557.31304100 Eh          -15165.25883 eV

One Electron Energy:         -875.68131742 Eh          -23828.50006 eV
Two Electron Energy:          318.36827642 Eh            8663.24123 eV

Virial components:
Potential Energy   :         -754.83110051 Eh          -20539.99848 eV
Kinetic Energy     :          376.55845304 Eh           10246.67644 eV
Virial Ratio       :            2.00455227


DFT components:
N(Alpha)           :       22.000013489922 electrons
N(Beta)            :       22.000013489922 electrons
N(Total)           :       44.000026979845 electrons
E(X)               :      -33.794028588156 Eh       
E(C)               :       -2.008576580587 Eh       
E(XC)              :      -35.802605168743 Eh       

---------------
SCF CONVERGENCE
---------------

  Last Energy change         ...   -7.8447e-08  Tolerance :   1.0000e-06
  Last MAX-Density change    ...    2.5051e-05  Tolerance :   1.0000e-05
  Last RMS-Density change    ...    1.5045e-06  Tolerance :   1.0000e-06
  Last Orbital Gradient      ...    7.4122e-06  Tolerance :   5.0000e-05
  Last Orbital Rotation      ...    6.0525e-05  Tolerance :   5.0000e-05

             **** THE GBW FILE WAS UPDATED (prova.gbw) ****
             **** DENSITY FILE WAS UPDATED (prova.scfp.tmp) ****
             **** ENERGY FILE WAS UPDATED (prova.en.tmp) ****
----------------
ORBITAL ENERGIES
----------------

  NO   OCC          E(Eh)            E(eV) 
   0   2.0000     -19.434061      -528.8277 
   1   2.0000     -19.261078      -524.1206 
   2   2.0000     -19.257501      -524.0232 
   3   2.0000     -19.178549      -521.8749 
   4   2.0000     -19.071464      -518.9609 
   5   2.0000      -1.369889       -37.2766 
   6   2.0000      -1.102060       -29.9886 
   7   2.0000      -1.032780       -28.1034 
   8   2.0000      -0.950548       -25.8657 
   9   2.0000      -0.784202       -21.3392 
  10   2.0000      -0.601539       -16.3687 
  11   2.0000      -0.594378       -16.1739 
  12   2.0000      -0.590355       -16.0644 
  13   2.0000      -0.533717       -14.5232 
  14   2.0000      -0.489608       -13.3229 
  15   2.0000      -0.414929       -11.2908 
  16   2.0000      -0.364939        -9.9305 
  17   2.0000      -0.355418        -9.6714 
  18   2.0000      -0.347563        -9.4577 
  19   2.0000      -0.336641        -9.1605 
  20   2.0000      -0.301042        -8.1918 
  21   2.0000      -0.247458        -6.7337 
  22   0.0000      -0.188688        -5.1345 
  23   0.0000       0.018251         0.4966 
  24   0.0000       0.069227         1.8838 
  25   0.0000       0.100405         2.7321 
  26   0.0000       0.116050         3.1579 
  27   0.0000       0.171592         4.6692 
  28   0.0000       0.247281         6.7288 
  29   0.0000       0.484138        13.1741 
  30   0.0000       0.556241        15.1361 
  31   0.0000       0.571659        15.5556 
  32   0.0000       0.654924        17.8214 
  33   0.0000       0.751646        20.4533 
  34   0.0000       0.778103        21.1733 
  35   0.0000       0.802265        21.8307 
  36   0.0000       0.816783        22.2258 
  37   0.0000       0.843513        22.9532 
  38   0.0000       0.876728        23.8570 
  39   0.0000       0.890305        24.2264 
  40   0.0000       0.919271        25.0146 
  41   0.0000       0.939261        25.5586 
  42   0.0000       0.960023        26.1236 
  43   0.0000       0.984933        26.8014 
  44   0.0000       1.003196        27.2983 
  45   0.0000       1.040808        28.3218 
  46   0.0000       1.059177        28.8217 
  47   0.0000       1.088921        29.6310 
  48   0.0000       1.119297        30.4576 
  49   0.0000       1.172837        31.9145 
  50   0.0000       1.262229        34.3470 
  51   0.0000       1.307858        35.5886 
  52   0.0000       1.326519        36.0964 
  53   0.0000       1.456513        39.6337 
  54   0.0000       1.497943        40.7611 
  55   0.0000       1.534556        41.7574 
  56   0.0000       1.602142        43.5965 
  57   0.0000       1.682678        45.7880 
  58   0.0000       1.709234        46.5106 
  59   0.0000       1.746978        47.5377 
  60   0.0000       1.867064        50.8054 
  61   0.0000       1.954993        53.1981 
  62   0.0000       1.974757        53.7359 
  63   0.0000       2.046362        55.6843 
  64   0.0000       2.053538        55.8796 
  65   0.0000       2.124253        57.8039 
  66   0.0000       2.210716        60.1567 
  67   0.0000       2.352742        64.0214 
  68   0.0000       2.445300        66.5400 
  69   0.0000       2.472242        67.2731 
  70   0.0000       2.515911        68.4614 
  71   0.0000       2.533146        68.9304 
  72   0.0000       2.550612        69.4057 
  73   0.0000       2.648388        72.0663 
  74   0.0000       2.800365        76.2018 
  75   0.0000       2.839748        77.2735 
  76   0.0000       2.972625        80.8892 
  77   0.0000       3.003567        81.7312 
  78   0.0000       3.035653        82.6043 
  79   0.0000       3.040846        82.7456 
  80   0.0000       3.058866        83.2360 
  81   0.0000       3.210834        87.3712 
  82   0.0000       3.233804        87.9963 
  83   0.0000       3.281081        89.2827 
  84   0.0000       3.395066        92.3844 
  85   0.0000       3.547347        96.5282 
  86   0.0000       3.688581       100.3714 
  87   0.0000       3.760378       102.3251 
  88   0.0000       3.783134       102.9443 
  89   0.0000       3.858055       104.9830 

                    ********************************
                    * MULLIKEN POPULATION ANALYSIS *
                    ********************************

-----------------------
MULLIKEN ATOMIC CHARGES
-----------------------
   0 O :   -0.126909
   1 O :    0.218847
   2 O :   -0.074750
   3 O :   -0.243655
   4 H :    0.156857
   5 H :    0.152308
   6 O :   -0.310503
   7 H :    0.088167
   8 H :    0.139639
Sum of atomic charges:   -0.0000000

--------------------------------
MULLIKEN REDUCED ORBITAL CHARGES
--------------------------------
  0 O s       :     3.913521  s :     3.913521
      pz      :     1.204102  p :     4.189037
      px      :     1.167397
      py      :     1.817538
      dz2     :     0.004577  d :     0.024351
      dxz     :     0.010312
      dyz     :     0.001943
      dx2y2   :     0.004740
      dxy     :     0.002779
  1 O s       :     3.826987  s :     3.826987
      pz      :     1.190921  p :     3.891814
      px      :     1.341366
      py      :     1.359527
      dz2     :     0.012346  d :     0.062351
      dxz     :     0.012655
      dyz     :     0.013095
      dx2y2   :     0.013232
      dxy     :     0.011023
  2 O s       :     3.924672  s :     3.924672
      pz      :     1.271626  p :     4.125240
      px      :     1.706172
      py      :     1.147442
      dz2     :     0.003755  d :     0.024839
      dxz     :     0.001607
      dyz     :     0.009853
      dx2y2   :     0.005927
      dxy     :     0.003697
  3 O s       :     3.702656  s :     3.702656
      pz      :     1.616810  p :     4.531624
      px      :     1.474171
      py      :     1.440643
      dz2     :     0.000940  d :     0.009375
      dxz     :     0.001757
      dyz     :     0.003001
      dx2y2   :     0.002934
      dxy     :     0.000744
  4 H s       :     0.768300  s :     0.768300
      pz      :     0.023958  p :     0.074843
      px      :     0.017213
      py      :     0.033672
  5 H s       :     0.768335  s :     0.768335
      pz      :     0.020626  p :     0.079357
      px      :     0.036607
      py      :     0.022123
  6 O s       :     3.639706  s :     3.639706
      pz      :     1.560582  p :     4.659729
      px      :     1.515443
      py      :     1.583704
      dz2     :     0.003685  d :     0.011068
      dxz     :     0.001176
      dyz     :     0.001820
      dx2y2   :     0.001337
      dxy     :     0.003050
  7 H s       :     0.825329  s :     0.825329
      pz      :     0.021587  p :     0.086504
      px      :     0.035378
      py      :     0.029539
  8 H s       :     0.768772  s :     0.768772
      pz      :     0.045568  p :     0.091589
      px      :     0.018849
      py      :     0.027172

------------------------
MULLIKEN OVERLAP CHARGES
------------------------
B(  0-O ,  1-O ) :   0.2595 B(  0-O ,  2-O ) :  -0.1856 B(  1-O ,  2-O ) :   0.2795 
B(  3-O ,  4-H ) :   0.6126 B(  3-O ,  5-H ) :   0.6516 B(  3-O ,  6-O ) :  -0.0725 
B(  3-O ,  8-H ) :   0.1303 B(  6-O ,  7-H ) :   0.7093 B(  6-O ,  8-H ) :   0.7598 
B(  7-H ,  8-H ) :  -0.1226 


                     *******************************
                     * LOEWDIN POPULATION ANALYSIS *
                     *******************************

----------------------
LOEWDIN ATOMIC CHARGES
----------------------
   0 O :   -0.149750
   1 O :    0.282292
   2 O :   -0.107955
   3 O :   -0.026804
   4 H :    0.069668
   5 H :    0.068649
   6 O :   -0.113393
   7 H :    0.006256
   8 H :   -0.028963

-------------------------------
LOEWDIN REDUCED ORBITAL CHARGES
-------------------------------
  0 O s       :     3.739529  s :     3.739529
      pz      :     1.280773  p :     4.364951
      px      :     1.272884
      py      :     1.811294
      dz2     :     0.006644  d :     0.045270
      dxz     :     0.021456
      dyz     :     0.003224
      dx2y2   :     0.009281
      dxy     :     0.004665
  1 O s       :     3.546309  s :     3.546309
      pz      :     1.239746  p :     4.055320
      px      :     1.391332
      py      :     1.424242
      dz2     :     0.020981  d :     0.116079
      dxz     :     0.025564
      dyz     :     0.025969
      dx2y2   :     0.024096
      dxy     :     0.019470
  2 O s       :     3.753828  s :     3.753828
      pz      :     1.330583  p :     4.308451
      px      :     1.706119
      py      :     1.271749
      dz2     :     0.005425  d :     0.045675
      dxz     :     0.002599
      dyz     :     0.019784
      dx2y2   :     0.011936
      dxy     :     0.005931
  3 O s       :     3.423818  s :     3.423818
      pz      :     1.602992  p :     4.584378
      px      :     1.518583
      py      :     1.462802
      dz2     :     0.001341  d :     0.018608
      dxz     :     0.003357
      dyz     :     0.006145
      dx2y2   :     0.005861
      dxy     :     0.001905
  4 H s       :     0.752891  s :     0.752891
      pz      :     0.064974  p :     0.177441
      px      :     0.036550
      py      :     0.075916
  5 H s       :     0.740881  s :     0.740881
      pz      :     0.055789  p :     0.190470
      px      :     0.088813
      py      :     0.045869
  6 O s       :     3.381391  s :     3.381391
      pz      :     1.562599  p :     4.711360
      px      :     1.565641
      py      :     1.583120
      dz2     :     0.006997  d :     0.020643
      dxz     :     0.000720
      dyz     :     0.003911
      dx2y2   :     0.001941
      dxy     :     0.007074
  7 H s       :     0.776836  s :     0.776836
      pz      :     0.051404  p :     0.216908
      px      :     0.093476
      py      :     0.072028
  8 H s       :     0.759908  s :     0.759908
      pz      :     0.146992  p :     0.269055
      px      :     0.050595
      py      :     0.071468

---------------------------------
LOEWDIN BOND ORDERS (THRESH 0.05)
---------------------------------
B(  0-O ,  1-O ) :   1.7614 B(  0-O ,  2-O ) :   0.5915 B(  1-O ,  2-O ) :   1.8067 
B(  3-O ,  4-H ) :   1.1063 B(  3-O ,  5-H ) :   1.1466 B(  3-O ,  8-H ) :   0.2618 
B(  4-H ,  5-H ) :   0.0615 B(  6-O ,  7-H ) :   1.2262 B(  6-O ,  8-H ) :   1.1090 
B(  7-H ,  8-H ) :   0.0687 

------------------------------------------
LOEWDIN REDUCED ORBITAL POPULATIONS PER MO
-------------------------------------------
THRESHOLD FOR PRINTING IS 0.1%
                      0         1         2         3         4         5   
                 -19.43406 -19.26108 -19.25750 -19.17855 -19.07146  -1.36989
                   2.00000   2.00000   2.00000   2.00000   2.00000   2.00000
                  --------  --------  --------  --------  --------  --------
 0 O  s               0.0       0.0      99.8       0.0       0.0      15.5
 0 O  pz              0.1       0.0       0.0       0.0       0.0       3.1
 0 O  px              0.1       0.0       0.0       0.0       0.0       4.0
 0 O  py              0.0       0.0       0.0       0.0       0.0       0.1
 0 O  dxz             0.0       0.0       0.0       0.0       0.0       0.4
 0 O  dx2y2           0.0       0.0       0.0       0.0       0.0       0.1
 1 O  s              99.6       0.0       0.0       0.0       0.0      49.2
 1 O  px              0.0       0.0       0.1       0.0       0.0       1.8
 1 O  py              0.0       0.1       0.0       0.0       0.0       2.4
 1 O  dxz             0.0       0.0       0.0       0.0       0.0       0.1
 1 O  dyz             0.0       0.0       0.0       0.0       0.0       0.1
 2 O  s               0.0      99.8       0.0       0.0       0.0      15.3
 2 O  pz              0.1       0.0       0.0       0.0       0.0       2.4
 2 O  px              0.0       0.0       0.0       0.0       0.0       0.2
 2 O  py              0.1       0.0       0.0       0.0       0.0       4.6
 2 O  dyz             0.0       0.0       0.0       0.0       0.0       0.3
 2 O  dx2y2           0.0       0.0       0.0       0.0       0.0       0.1
 3 O  s               0.0       0.0       0.0      99.4       0.0       0.0
 4 H  py              0.0       0.0       0.0       0.1       0.0       0.0
 5 H  px              0.0       0.0       0.0       0.2       0.0       0.0
 6 O  s               0.0       0.0       0.0       0.0      99.1       0.0
 7 H  px              0.0       0.0       0.0       0.0       0.3       0.0
 7 H  py              0.0       0.0       0.0       0.0       0.1       0.0
 8 H  pz              0.0       0.0       0.0       0.0       0.2       0.0

                      6         7         8         9        10        11   
                  -1.10206  -1.03278  -0.95055  -0.78420  -0.60154  -0.59438
                   2.00000   2.00000   2.00000   2.00000   2.00000   2.00000
                  --------  --------  --------  --------  --------  --------
 0 O  s              29.7       0.0       0.0      25.1       0.6      15.0
 0 O  pz              0.8       0.0       0.0       2.2       4.8      17.3
 0 O  px              1.4       0.0       0.0       5.4      10.3      12.6
 0 O  py              0.1       0.0       0.0       0.3       2.9       0.1
 0 O  dz2             0.0       0.0       0.0       0.0       0.2       0.0
 0 O  dxz             0.1       0.0       0.0       0.2       0.0       0.4
 1 O  s               0.0       0.0       0.0      21.7       0.0       0.6
 1 O  pz             16.4       0.0       0.0       0.1      39.2       3.9
 1 O  px              8.7       0.0       0.0       5.2      13.5      25.1
 1 O  py              9.2       0.0       0.0       7.1       9.5       0.7
 1 O  dxz             0.3       0.0       0.0       0.2       0.0       0.0
 1 O  dyz             0.3       0.0       0.0       0.1       0.1       0.0
 1 O  dx2y2           0.6       0.0       0.0       0.0       0.1       0.0
 2 O  s              29.8       0.0       0.0      24.7       0.4       4.9
 2 O  pz              0.5       0.0       0.0       1.2       6.2       2.1
 2 O  px              0.0       0.0       0.0       0.1       3.8       4.6
 2 O  py              1.7       0.0       0.0       5.8       6.1      10.6
 2 O  dz2             0.0       0.0       0.0       0.0       0.2       0.0
 2 O  dyz             0.1       0.0       0.0       0.2       0.0       0.1
 2 O  dx2y2           0.1       0.0       0.0       0.1       0.1       0.1
 3 O  s               0.0      59.2       1.4       0.0       0.0       0.0
 3 O  pz              0.0       0.6       0.4       0.0       0.0       0.1
 3 O  px              0.0       0.7       0.1       0.0       0.4       0.2
 3 O  py              0.0       0.2       0.0       0.0       0.4       0.3
 4 H  s               0.2      12.9       0.3       0.2       0.5       0.7
 4 H  pz              0.0       1.1       0.0       0.0       0.0       0.0
 4 H  py              0.0       2.5       0.1       0.0       0.0       0.0
 5 H  s               0.0      14.4       0.5       0.0       0.3       0.1
 5 H  pz              0.0       0.4       0.0       0.0       0.0       0.0
 5 H  px              0.0       2.9       0.1       0.0       0.0       0.0
 5 H  py              0.0       0.7       0.0       0.0       0.0       0.0
 6 O  s               0.0       0.9      56.7       0.0       0.0       0.0
 6 O  pz              0.0       0.1       0.8       0.0       0.0       0.0
 6 O  px              0.0       0.0       1.2       0.0       0.0       0.0
 7 H  s               0.0       0.3      16.9       0.0       0.0       0.0
 7 H  px              0.0       0.0       2.7       0.0       0.0       0.0
 7 H  py              0.0       0.0       1.4       0.0       0.0       0.0
 8 H  s               0.0       2.7      13.2       0.0       0.1       0.0
 8 H  pz              0.0       0.0       2.9       0.0       0.0       0.0
 8 H  py              0.0       0.0       1.1       0.0       0.0       0.0

                     12        13        14        15        16        17   
                  -0.59036  -0.53372  -0.48961  -0.41493  -0.36494  -0.35542
                   2.00000   2.00000   2.00000   2.00000   2.00000   2.00000
                  --------  --------  --------  --------  --------  --------
 0 O  s               0.3       0.5       0.1       0.0       0.0       0.0
 0 O  pz              1.1       0.3       0.1       0.1      23.3       5.0
 0 O  px              0.8       0.2       0.0       0.0      14.5       2.9
 0 O  py             11.1       0.0       0.0       0.0       8.1       3.3
 0 O  dyz             0.1       0.0       0.0       0.0       0.0       0.0
 0 O  dxy             0.2       0.0       0.0       0.0       0.0       0.0
 1 O  s               2.3       0.0       0.0       0.0       0.0       0.0
 1 O  pz              0.6       1.1       0.1       0.0       0.0       0.0
 1 O  px              9.4       0.0       0.0       0.0       0.0       0.1
 1 O  py             34.6       0.2       0.0       0.0       0.0       0.2
 1 O  dz2             0.0       0.0       0.0       0.0       0.8       0.1
 1 O  dxy             0.1       0.0       0.0       0.0       0.3       0.0
 2 O  s              12.5       0.0       0.0       0.0       0.0       0.0
 2 O  pz             12.9       0.3       0.0       0.0      23.2       0.1
 2 O  px              6.2       0.0       0.0       0.0      13.3       6.3
 2 O  py              7.2       0.5       0.1       0.0       7.4       0.5
 2 O  dyz             0.3       0.0       0.0       0.0       0.0       0.0
 3 O  s               0.0       0.2       2.1       7.1       0.0       0.9
 3 O  pz              0.0       0.0      23.6      18.4       0.9      13.9
 3 O  px              0.0      26.6       1.3      16.4       1.9      21.4
 3 O  py              0.0      32.0       6.4       5.4       4.1      15.3
 3 O  dyz             0.0       0.2       0.1       0.0       0.0       0.0
 3 O  dx2y2           0.0       0.3       0.0       0.0       0.0       0.0
 4 H  s               0.0      12.3       6.4       3.1       0.2       0.2
 4 H  pz              0.0       0.7       0.0       0.1       0.2       0.3
 4 H  px              0.0       0.4       0.1       0.5       0.2       0.5
 4 H  py              0.0       0.1       0.2       0.0       0.0       0.5
 5 H  s               0.0      17.6       0.1       3.1       0.0       0.4
 5 H  pz              0.0       0.3       0.4       0.3       0.0       0.4
 5 H  px              0.0       0.5       0.0       0.0       0.0       0.4
 5 H  py              0.0       0.0       0.2       0.4       0.1       0.5
 6 O  s               0.0       0.2       0.1       2.2       0.2       3.9
 6 O  pz              0.0       1.5      12.3       2.1       0.4       7.2
 6 O  px              0.0       0.3       5.6      14.9       0.5      11.5
 6 O  py              0.0       0.9      15.7      11.8       0.1       0.2
 6 O  dz2             0.0       0.0       0.2       0.1       0.0       0.0
 6 O  dyz             0.0       0.0       0.1       0.0       0.0       0.0
 6 O  dxy             0.0       0.0       0.1       0.1       0.0       0.0
 7 H  s               0.0       0.7       9.3       8.3       0.1       1.6
 7 H  pz              0.0       0.0       0.3       0.1       0.0       0.3
 7 H  px              0.0       0.0       0.4       0.0       0.0       0.1
 8 H  s               0.0       1.7      14.3       1.7       0.0       0.9
 8 H  pz              0.0       0.1       0.0       2.5       0.0       0.2
 8 H  px              0.0       0.0       0.1       0.8       0.0       0.7
 8 H  py              0.0       0.0       0.1       0.2       0.0       0.1

                     18        19        20        21        22        23   
                  -0.34756  -0.33664  -0.30104  -0.24746  -0.18869   0.01825
                   2.00000   2.00000   2.00000   2.00000   0.00000   0.00000
                  --------  --------  --------  --------  --------  --------
 0 O  s               0.0       0.2       0.0       0.0       0.0       0.8
 0 O  pz              5.5       0.2       0.0       0.0      15.6       1.2
 0 O  px              0.5      11.0       0.0       0.0       9.3       0.3
 0 O  py             39.1      25.3       0.1       0.0       5.3       0.0
 0 O  dz2             0.0       0.0       0.0       0.0       0.2       0.0
 1 O  s               0.0       3.9       0.0       0.0       0.0       0.3
 1 O  pz              0.3       0.1       0.0       0.0      17.3       0.1
 1 O  px              0.2       5.4       0.0       0.0      10.5       0.7
 1 O  py              0.2       7.1       0.0       0.0       5.7       0.1
 1 O  dz2             0.0       0.1       0.0       0.0       0.0       0.0
 1 O  dxz             0.2       0.4       0.0       0.0       0.0       0.1
 1 O  dyz             0.2       0.5       0.0       0.0       0.1       0.0
 1 O  dx2y2           0.4       0.0       0.0       0.0       0.1       0.0
 1 O  dxy             0.0       0.5       0.0       0.0       0.0       0.0
 2 O  s               0.0       0.2       0.0       0.0       0.0       0.0
 2 O  pz             15.3       1.9       0.2       0.0      17.7       0.1
 2 O  px             25.5      25.4       0.0       0.0      10.7       0.2
 2 O  py              2.2      16.7       0.0       0.0       5.8       0.1
 2 O  dz2             0.0       0.0       0.0       0.0       0.1       0.0
 3 O  s               0.2       0.0       0.6       0.0       0.0       8.0
 3 O  pz              1.3       0.0      20.9       0.0       0.2       2.5
 3 O  px              2.6       0.2       4.1       0.0       0.1       3.3
 3 O  py              1.6       0.3       7.0       0.0       0.1       0.7
 4 H  s               0.0       0.1       0.2       0.1       0.4      23.2
 4 H  pz              0.0       0.0       0.6       0.0       0.0       1.4
 4 H  py              0.0       0.0       0.2       0.0       0.1       3.4
 5 H  s               0.1       0.0       0.4       0.0       0.0      37.3
 5 H  pz              0.0       0.0       0.8       0.0       0.0       0.6
 5 H  px              0.1       0.0       0.2       0.0       0.0       5.1
 5 H  py              0.1       0.0       0.2       0.0       0.0       1.4
 6 O  s               0.6       0.0       5.2       0.0       0.0       0.5
 6 O  pz              1.4       0.1      32.1      20.4       0.1       0.9
 6 O  px              1.8       0.1      19.6      22.8       0.0       0.4
 6 O  py              0.0       0.0       0.3      50.1       0.1       0.0
 7 H  s               0.2       0.0       1.3       0.0       0.0       3.6
 7 H  pz              0.1       0.0       1.1       0.8       0.0       0.0
 7 H  px              0.0       0.0       0.2       0.8       0.0       0.3
 7 H  py              0.0       0.0       0.1       1.9       0.0       0.2
 8 H  s               0.2       0.0       3.1       0.0       0.0       2.2
 8 H  pz              0.0       0.0       0.6       0.7       0.0       0.4
 8 H  px              0.1       0.0       0.1       0.7       0.0       0.0
 8 H  py              0.0       0.0       0.5       1.5       0.0       0.2

                     24        25        26        27        28        29   
                   0.06923   0.10040   0.11605   0.17159   0.24728   0.48414
                   0.00000   0.00000   0.00000   0.00000   0.00000   0.00000
                  --------  --------  --------  --------  --------  --------
 0 O  s               3.1       0.2       0.3       3.0       0.1       0.5
 0 O  pz             11.6       0.1       0.0       5.8       0.5       0.0
 0 O  px              9.5       1.8       0.5      15.4       0.1       0.8
 0 O  py              1.6       0.4       0.3       0.4       0.0       0.0
 0 O  dxz             1.2       0.1       0.0       1.6       0.0       0.0
 0 O  dx2y2           0.4       0.0       0.0       0.6       0.0       0.0
 0 O  dxy             0.2       0.0       0.0       0.1       0.0       0.0
 1 O  s              12.9       1.6       0.5       0.0       0.1       0.0
 1 O  pz              0.3       0.3       0.6      19.0       0.6       0.0
 1 O  px              8.4       0.0       0.1      10.3       0.2       0.1
 1 O  py              8.9       2.5       1.7       9.7       0.2       0.0
 1 O  dxz             1.6       0.1       0.0       1.2       0.1       0.0
 1 O  dyz             1.0       0.2       0.2       1.0       0.0       0.0
 1 O  dx2y2           0.0       0.1       0.1       2.3       0.0       0.0
 2 O  s               1.9       0.6       0.5       3.5       0.1       0.0
 2 O  pz              8.5       2.0       0.9       2.9       0.0       0.0
 2 O  px              2.2       0.1       0.0       0.2       0.1       0.0
 2 O  py             10.0       3.2       2.2      13.9       0.1       0.0
 2 O  dyz             1.0       0.3       0.2       0.9       0.0       0.0
 2 O  dx2y2           0.3       0.1       0.1       0.9       0.0       0.0
 2 O  dxy             0.3       0.0       0.0       0.0       0.0       0.0
 3 O  s               0.2       0.0       0.1       0.1       2.2       0.0
 3 O  pz              0.1       0.1       2.9       0.2       5.1       0.5
 3 O  px              1.1       3.8       0.2       0.2       2.2       2.6
 3 O  py              1.2       8.6       1.5       0.9       0.1       4.0
 3 O  dz2             0.0       0.0       0.0       0.0       0.0       0.1
 3 O  dxz             0.0       0.1       0.0       0.0       0.1       1.1
 3 O  dyz             0.0       0.2       0.2       0.1       0.0       2.8
 3 O  dx2y2           0.1       0.3       0.1       0.0       0.0       2.8
 3 O  dxy             0.0       0.1       0.0       0.0       0.0       0.7
 4 H  s               2.4      20.3      11.6       3.1       0.3      29.8
 4 H  pz              0.4       1.8       1.1       0.2       0.1       0.4
 4 H  px              0.0       0.1       0.0       0.0       0.0       0.3
 4 H  py              0.3       3.1       2.2       0.6       0.1       0.2
 5 H  s               7.0      22.6       0.2       0.4       1.5      32.3
 5 H  pz              0.3       0.7       0.1       0.0       0.0       2.2
 5 H  px              1.1       4.1       0.0       0.1       0.2       1.5
 5 H  py              0.1       0.4       0.0       0.0       0.1       0.1
 6 O  s               0.1       1.2       4.5       0.0       3.9       0.1
 6 O  pz              0.0       0.0       0.0       0.0       4.4       2.2
 6 O  px              0.0       0.9       4.0       0.1       1.5       0.2
 6 O  py              0.0       0.8       1.6       0.0       4.9       0.5
 6 O  dz2             0.0       0.0       0.0       0.0       0.1       0.5
 6 O  dyz             0.0       0.0       0.0       0.0       0.1       0.2
 6 O  dxy             0.0       0.0       0.1       0.0       0.0       0.1
 7 H  s               0.2      13.5      49.3       0.6       4.4       0.9
 7 H  pz              0.0       0.0       0.0       0.0       0.0       0.2
 7 H  px              0.0       1.6       6.2       0.1       0.6       0.1
 7 H  py              0.0       0.7       2.9       0.0       0.2       0.0
 8 H  s               0.3       0.9       2.4       0.1      60.6       8.3
 8 H  pz              0.1       0.0       0.1       0.0       2.7       3.4
 8 H  px              0.0       0.0       0.1       0.0       0.1       0.0
 8 H  py              0.0       0.0       0.1       0.0       1.9       0.1

                     30        31        32        33        34        35   
                   0.55624   0.57166   0.65492   0.75165   0.77810   0.80226
                   0.00000   0.00000   0.00000   0.00000   0.00000   0.00000
                  --------  --------  --------  --------  --------  --------
 0 O  s               0.2       0.5       0.0       1.0       0.1       2.7
 0 O  pz              1.1       0.0       1.5       8.7       9.5      21.8
 0 O  px              0.3       0.1       0.1      12.1       1.4       0.4
 0 O  py              0.1       0.0       0.1       3.1      24.8       8.5
 0 O  dxz             0.0       0.0       0.0       0.6       0.0       0.0
 0 O  dx2y2           0.0       0.0       0.0       0.3       0.0       0.0
 0 O  dxy             0.0       0.0       0.0       0.1       0.0       0.0
 1 O  s               0.2       0.2       0.1       5.8       0.1       0.0
 1 O  pz              0.6       0.2       0.8       0.2       6.6      29.1
 1 O  px              0.3       0.6       0.0      19.0       0.8       0.1
 1 O  py              0.5       0.5       0.1      16.1      12.2       5.9
 1 O  dz2             0.0       0.0       0.0       0.1       0.0       0.0
 1 O  dxz             0.0       0.0       0.0       0.1       0.0       0.1
 1 O  dyz             0.0       0.0       0.0       0.1       0.0       0.3
 1 O  dx2y2           0.0       0.0       0.0       0.0       0.0       0.3
 1 O  dxy             0.0       0.0       0.0       0.4       0.0       0.0
 2 O  s               0.1       0.1       0.1       0.9       0.4       3.9
 2 O  pz              0.0       0.0       0.2      14.4       4.9       7.5
 2 O  px              0.2       0.5       0.6       1.1       0.1       1.6
 2 O  py              0.2       0.1       0.1      11.4       4.4       3.1
 2 O  dyz             0.0       0.0       0.0       0.6       0.0       0.1
 2 O  dx2y2           0.0       0.0       0.0       0.3       0.0       0.0
 2 O  dxy             0.0       0.0       0.0       0.2       0.0       0.1
 3 O  s               0.0       3.3       0.1       0.0       0.0       0.0
 3 O  pz              5.1       1.2       0.1       0.0       2.3       0.1
 3 O  px              1.3       1.4       2.9       0.3      18.4       1.1
 3 O  py              0.8       2.6       0.4       0.7       0.1       4.5
 3 O  dz2             0.9       0.0       0.3       0.0       0.0       0.0
 3 O  dxz             0.0       0.5       0.1       0.0       0.0       0.0
 3 O  dyz             0.0       0.9       0.0       0.0       0.0       0.1
 3 O  dx2y2           0.3       0.1       0.0       0.0       0.1       0.0
 3 O  dxy             0.5       1.2       0.1       0.0       0.1       0.0
 4 H  s               0.0      41.3       1.1       0.0       0.6       0.1
 4 H  pz              0.5       1.3       0.5       0.1       0.1       0.1
 4 H  px              1.4       1.1       0.5       0.6       3.3       0.8
 4 H  py              0.5       3.2       0.5       0.1       0.0       0.2
 5 H  s              14.0      18.5       2.3       0.0       1.1       0.3
 5 H  pz              0.0       0.0       0.2       0.1       0.2       0.1
 5 H  px              2.3       1.9       0.5       0.0       0.5       0.0
 5 H  py              0.4       2.9       0.5       0.0       0.1       0.3
 6 O  s               0.0       0.4       1.5       0.0       0.1       0.1
 6 O  pz              3.7       0.5       4.2       0.2       0.5       2.9
 6 O  px              1.4       0.3       7.6       0.3       0.3       0.3
 6 O  py              4.1       0.3       0.7       0.1       1.9       1.2
 6 O  dz2             2.8       0.2       0.4       0.0       0.2       0.0
 6 O  dyz             1.6       0.7       0.5       0.0       0.3       0.0
 6 O  dx2y2           0.6       0.0       0.2       0.0       0.0       0.0
 6 O  dxy             1.4       0.0       3.2       0.0       0.0       0.0
 7 H  s              14.0       0.3      42.9       0.2       0.2       0.8
 7 H  pz              1.1       0.8       0.4       0.0       0.8       0.0
 7 H  px              2.2       0.1       6.5       0.1       0.0       0.2
 7 H  py              0.1       0.5       4.6       0.0       0.1       0.0
 8 H  s              28.7       9.1       7.6       0.3       2.6       0.5
 8 H  pz              3.6       1.2       1.7       0.0       0.1       0.3
 8 H  px              1.9       0.0       1.5       0.0       0.6       0.0
 8 H  py              0.6       1.3       2.7       0.0       0.1       0.1

                     36        37        38        39        40        41   
                   0.81678   0.84351   0.87673   0.89030   0.91927   0.93926
                   0.00000   0.00000   0.00000   0.00000   0.00000   0.00000
                  --------  --------  --------  --------  --------  --------
 0 O  s               1.9       0.3       0.4       0.1       1.5       0.7
 0 O  pz              4.7       7.0       4.4       0.9       0.1       2.0
 0 O  px              5.8       0.0       3.5      24.8       0.1       0.1
 0 O  py              9.6       0.1      12.0       1.1       1.1       0.4
 0 O  dxz             0.2       0.1       0.3       0.4       0.0       0.0
 0 O  dx2y2           0.1       0.0       0.1       0.2       0.0       0.1
 0 O  dxy             0.0       0.2       0.0       0.0       0.1       0.0
 1 O  s               0.2       0.5       0.8       0.1       3.6       0.4
 1 O  pz              1.5       2.0       9.5       1.1       0.0      11.0
 1 O  px             17.4      15.0       3.5       1.1       1.9      10.3
 1 O  py              0.4      11.2       0.1       0.5      14.7       2.4
 1 O  dxz             0.3       0.0       0.4       0.3       0.0       0.0
 1 O  dyz             0.0       0.1       0.3       0.1       0.3       0.1
 1 O  dx2y2           0.1       0.3       0.5       0.5       0.4       0.1
 2 O  s               0.1       3.1       0.6       0.5       3.8       0.4
 2 O  pz             11.5       5.4       4.9       2.3       4.4      18.0
 2 O  px             32.2       7.8       0.0      12.2       4.6       8.4
 2 O  py              0.0      15.4       9.1       8.6      25.9       2.8
 2 O  dz2             0.0       0.0       0.0       0.0       0.1       0.2
 2 O  dyz             0.1       0.0       0.3       0.2       0.5       0.1
 2 O  dx2y2           0.1       0.0       0.1       0.1       0.5       0.0
 2 O  dxy             0.0       0.1       0.1       0.0       0.0       0.2
 3 O  s               0.1       0.1       0.0       0.1       0.1       0.1
 3 O  pz              0.1       2.0       1.0      13.2       7.5       1.5
 3 O  px              3.8      15.8       0.0       0.3       1.1       1.7
 3 O  py              1.7       2.9      25.0       0.2       7.0       0.4
 3 O  dz2             0.0       0.1       0.1       0.2       0.0       0.3
 3 O  dxz             0.0       0.0       0.1       0.4       0.1       0.1
 3 O  dyz             0.1       0.0       0.4       0.0       0.3       0.0
 3 O  dx2y2           0.0       0.1       0.1       0.0       0.1       0.0
 3 O  dxy             0.1       0.1       0.1       0.5       0.1       0.4
 4 H  s               0.7       0.4       0.5       0.1       0.5       0.1
 4 H  pz              0.0       0.0       0.7       1.4       0.3       0.9
 4 H  px              1.9       2.6       0.7       7.5       0.8       3.1
 4 H  py              0.0       0.0       0.8       0.2       0.0       0.3
 5 H  s               0.3       0.1       0.6       0.1       0.4       0.3
 5 H  pz              0.4       0.1       0.5       4.0       1.4       1.8
 5 H  px              0.1       0.3       0.0       0.0       0.1       0.0
 5 H  py              0.7       0.2       0.2       1.4       1.4       1.2
 6 O  s               0.0       0.1       0.3       0.4       0.4       0.0
 6 O  pz              0.6       2.7       6.3       1.1       0.3       9.9
 6 O  px              0.0       1.4       2.9      10.3      11.0       4.4
 6 O  py              0.4       0.0       0.2       0.2       0.5      13.6
 6 O  dyz             0.2       0.0       0.5       0.1       0.0       0.0
 6 O  dxy             0.0       0.0       0.1       0.1       0.1       0.0
 7 H  s               0.0       0.3       0.1       0.2       0.1       0.0
 7 H  pz              0.5       0.3       1.7       0.6       0.0       0.3
 7 H  px              0.0       0.2       0.3       0.3       0.1       0.0
 7 H  py              0.1       0.0       0.3       0.1       0.0       0.1
 8 H  s               1.2       0.0       1.7       0.4       0.1       0.1
 8 H  pz              0.0       0.0       0.5       0.0       0.5       0.2
 8 H  px              0.2       1.4       0.5       1.5       1.3       0.2
 8 H  py              0.1       0.0       2.7       0.2       0.5       0.7

                     42        43        44        45        46        47   
                   0.96002   0.98493   1.00320   1.04081   1.05918   1.08892
                   0.00000   0.00000   0.00000   0.00000   0.00000   0.00000
                  --------  --------  --------  --------  --------  --------
 0 O  s               1.6       0.7       0.4       4.3       1.6       0.4
 0 O  pz             10.3       0.4       4.9       6.7       8.0       0.8
 0 O  px              1.1      14.7       0.1       9.8       0.3       3.8
 0 O  py              4.5       1.2       0.2       4.8      20.0       0.2
 0 O  dz2             0.2       0.0       0.1       0.1       0.3       0.0
 0 O  dxz             0.3       0.4       0.2       0.4       0.1       0.0
 0 O  dyz             0.1       0.0       0.0       0.0       1.0       0.0
 0 O  dx2y2           0.0       0.2       0.0       0.2       0.1       0.0
 0 O  dxy             0.2       0.0       0.0       0.0       1.1       0.0
 1 O  s               1.4       0.7       0.2       1.5       0.4       0.8
 1 O  pz              6.8       0.3       3.6       0.2      11.7       2.7
 1 O  px              1.0       6.2       0.3       3.1       3.5       0.0
 1 O  py             11.2       2.1       0.1       0.7       9.5       0.0
 1 O  dz2             0.0       0.0       0.0       0.2       0.1       0.1
 1 O  dxz             0.2       0.2       0.2       0.3       0.5       0.2
 1 O  dyz             0.0       0.1       0.1       0.3       1.5       0.0
 1 O  dx2y2           0.2       0.0       0.1       0.0       2.1       0.0
 2 O  s               0.8       0.1       0.1       2.9       0.5       0.6
 2 O  pz              6.1       1.2       2.2       3.6       9.1       0.2
 2 O  px              5.2       4.8       0.9       0.8      13.7       0.6
 2 O  py              8.5       0.6       0.2       1.7       0.1       0.0
 2 O  dz2             0.2       0.0       0.1       0.0       0.2       0.1
 2 O  dxz             0.0       0.0       0.0       0.1       0.6       0.0
 2 O  dyz             0.0       0.1       0.1       0.1       0.9       0.0
 2 O  dx2y2           0.2       0.0       0.0       0.1       0.0       0.1
 2 O  dxy             0.1       0.1       0.0       0.1       0.7       0.0
 3 O  s               0.5       1.7       0.8       0.1       0.0       0.7
 3 O  pz              0.5       4.7      14.3       0.0       1.0       4.4
 3 O  px              0.2       0.0       4.9      12.2       0.6       1.7
 3 O  py              4.8      21.1       2.3       4.6       0.9       0.2
 3 O  dz2             0.3       0.2       0.6       1.0       0.0       1.1
 3 O  dxz             0.0       0.0       0.1       0.1       0.2       0.0
 3 O  dyz             0.0       0.7       0.2       0.1       0.0       0.0
 3 O  dx2y2           0.0       0.5       0.1       0.1       0.1       0.1
 3 O  dxy             0.1       0.0       0.0       0.2       0.0       0.6
 4 H  s               0.9       2.0       1.6       0.1       0.0       0.6
 4 H  pz              0.6       1.4       2.6       2.8       0.0       4.9
 4 H  px              0.0       1.1       0.2       0.2       0.4       0.0
 4 H  py              0.6       0.0       1.0       1.9       0.1       2.5
 5 H  s               0.5       1.3       0.0       0.5       0.0       0.1
 5 H  pz              0.7       0.5       5.0       0.1       1.8       2.9
 5 H  px              0.0       0.0       1.4       0.1       0.6       0.0
 5 H  py              0.0       2.5       1.5       0.0       0.3       2.9
 6 O  s               0.1       0.7       1.1       0.2       0.2       3.6
 6 O  pz              0.8       2.6      26.1       8.7       3.2       8.7
 6 O  px             11.9       0.7       7.0      18.0       0.1       5.2
 6 O  py             13.7      21.1       0.1       0.6       1.1      30.0
 6 O  dz2             0.0       0.0       0.1       0.5       0.1       0.9
 6 O  dxz             0.0       0.0       0.0       0.1       0.0       0.5
 6 O  dyz             0.1       0.0       1.3       0.0       0.1       0.1
 6 O  dx2y2           0.0       0.2       0.0       0.0       0.0       0.2
 6 O  dxy             0.0       0.3       0.9       0.1       0.0       1.6
 7 H  s               0.1       0.3       3.0       0.3       0.4       1.7
 7 H  pz              0.1       0.0       4.3       1.3       0.2       0.3
 7 H  px              0.2       0.1       0.1       0.6       0.0       0.2
 7 H  py              0.4       1.0       1.0       0.3       0.1       0.6
 8 H  s               0.1       0.0       1.3       0.2       0.2       4.3
 8 H  pz              0.2       0.4       0.9       0.1       0.1       0.3
 8 H  px              1.5       0.1       1.7       0.5       0.1       6.9
 8 H  py              1.0       0.1       0.4       2.0       0.0       1.4

                     48        49        50        51        52        53   
                   1.11930   1.17284   1.26223   1.30786   1.32652   1.45651
                   0.00000   0.00000   0.00000   0.00000   0.00000   0.00000
                  --------  --------  --------  --------  --------  --------
 0 O  s              15.8       0.1       0.7       0.8       0.3       0.4
 0 O  pz              1.0       0.0       0.1       0.0       0.4       0.1
 0 O  px              0.4       0.8       4.6       0.7       3.8       2.1
 0 O  py              1.7       0.0       3.1       0.3       1.8       0.4
 0 O  dxz             1.3       0.0       0.1       0.0       0.1       0.3
 0 O  dx2y2           0.7       0.0       0.0       0.0       0.0       0.0
 1 O  s              11.3       0.2       1.3       0.1       1.2       0.8
 1 O  pz              0.2       0.2       0.4       0.0       0.3       0.2
 1 O  px              6.9       0.0       0.0       0.0       0.0       0.0
 1 O  py              1.6       0.0       0.3       0.1       0.1       0.0
 1 O  dz2             0.0       0.0       0.1       0.0       0.1       0.1
 1 O  dxz             2.3       0.0       0.1       0.0       0.2       0.2
 1 O  dyz             0.8       0.0       0.0       0.0       0.0       0.0
 1 O  dx2y2           0.0       0.0       0.1       0.0       0.1       0.0
 2 O  s              19.1       0.2       1.4       0.3       2.3       2.4
 2 O  pz              0.2       0.0       0.1       0.0       0.1       0.0
 2 O  px              3.3       0.0       0.0       0.0       0.0       0.1
 2 O  py              1.3       0.0       0.1       0.0       0.1       0.1
 2 O  dz2             0.2       0.0       0.0       0.0       0.0       0.1
 2 O  dxz             0.1       0.0       0.0       0.0       0.0       0.0
 2 O  dyz             0.7       0.0       0.0       0.0       0.1       0.1
 2 O  dx2y2           1.1       0.0       0.1       0.0       0.2       0.3
 2 O  dxy             0.3       0.0       0.0       0.0       0.0       0.0
 3 O  s               0.7       0.1       1.2       0.1       0.4       1.3
 3 O  pz              0.1       1.1       1.1       4.7       5.0       2.0
 3 O  px              4.3       2.3       5.0       8.0       0.9       0.4
 3 O  py              0.0       0.5       0.6       0.5       2.4       1.6
 3 O  dz2             0.7       0.0       0.0       0.1       0.1       1.1
 3 O  dxz             0.4       0.3       0.5       3.6       2.7       0.1
 3 O  dyz             0.1       2.4       0.9       0.1       0.5       0.0
 3 O  dx2y2           0.0       3.6       2.7       0.0       0.1       0.1
 3 O  dxy             0.1       1.1       0.1       0.3       1.1       0.8
 4 H  s               0.3       0.7       0.4       0.7       1.3       0.2
 4 H  pz              3.0       4.1       9.4       4.3       0.3       0.1
 4 H  px              2.5       1.0       3.4       2.5      11.4      10.6
 4 H  py              2.2       1.9       4.3       3.3       0.5       0.2
 5 H  s               0.2       0.4       0.3       0.8       0.2       0.1
 5 H  pz              0.5       1.8      13.0       9.7       2.2       8.6
 5 H  px              0.1       7.8       4.9       0.0       0.0       0.6
 5 H  py              0.3      27.3       4.2       3.1       1.9       0.1
 6 O  s               0.0       5.3       0.5       0.5       0.3       0.4
 6 O  pz              2.6       5.8       1.6       1.0       0.0       1.5
 6 O  px              4.1       4.2       2.7       1.0       1.6       1.7
 6 O  py              2.4       0.3       0.4       0.3       0.3       2.8
 6 O  dz2             0.2       0.3       0.1       0.8       0.2       3.4
 6 O  dxz             0.1       2.1       3.0       4.6       0.0       0.1
 6 O  dyz             0.0       0.0       0.4       0.2       0.0       1.7
 6 O  dx2y2           0.0       1.0       1.2       0.6       6.1       1.0
 6 O  dxy             0.2       0.0       0.0       0.1       0.1       1.2
 7 H  s               0.3       2.0       0.3       0.2       0.1       0.0
 7 H  pz              0.5       3.4      12.0      20.7       0.6       9.0
 7 H  px              0.0       1.5       1.8       2.5      12.6       3.7
 7 H  py              0.0       1.1       2.5       6.2      26.1       9.6
 8 H  s               1.6       1.7       0.8       0.8       0.4       0.5
 8 H  pz              0.0       1.3       1.2       0.8       4.0       4.9
 8 H  px              0.9       7.2       5.0       9.3       0.2       6.6
 8 H  py              1.0       4.9       1.5       6.0       4.9      16.1

                     54        55        56        57        58        59   
                   1.49794   1.53456   1.60214   1.68268   1.70923   1.74698
                   0.00000   0.00000   0.00000   0.00000   0.00000   0.00000
                  --------  --------  --------  --------  --------  --------
 0 O  s               0.2       0.4      37.9       3.4      11.6       1.5
 0 O  pz              0.0       0.0       1.4       0.0       0.2       0.0
 0 O  px              0.3       0.0       0.1       0.4       0.2       0.1
 0 O  py              0.0       0.1       0.1       0.2       0.1       0.0
 0 O  dz2             0.0       0.0       0.0       0.7       0.2       0.0
 0 O  dxz             0.0       0.0       4.5       0.3       0.4       0.0
 0 O  dyz             0.0       0.0       0.0       0.2       0.2       0.1
 0 O  dx2y2           0.0       0.0       1.3       0.0       0.4       0.0
 0 O  dxy             0.0       0.0       0.2       1.7       1.0       0.4
 1 O  s               0.0       0.0       0.3      27.2      13.2       3.8
 1 O  pz              0.0       0.0       0.7       0.0       0.0       0.0
 1 O  px              0.0       0.0       0.3       0.0       0.1       0.1
 1 O  py              0.0       0.0       0.5       0.1       0.0       0.0
 1 O  dz2             0.0       0.0       0.0       0.2       0.1       0.0
 1 O  dxz             0.0       0.0       0.0       5.2       3.0       0.8
 1 O  dyz             0.0       0.0       0.2       4.2       2.4       0.8
 1 O  dx2y2           0.0       0.0       0.3       0.2       0.0       0.0
 1 O  dxy             0.0       0.0       0.0       0.1       0.2       0.3
 2 O  s               0.2       0.0      34.3      11.1       1.5       0.4
 2 O  pz              0.0       0.0       0.8       0.0       0.0       0.0
 2 O  px              0.0       0.0       0.4       0.0       0.1       0.0
 2 O  py              0.0       0.0       0.7       0.1       0.0       0.0
 2 O  dz2             0.0       0.0       0.2       0.5       0.2       0.0
 2 O  dxz             0.0       0.0       0.2       0.1       0.0       0.1
 2 O  dyz             0.0       0.0       3.8       1.3       0.0       0.0
 2 O  dx2y2           0.0       0.0       2.0       0.0       0.0       0.0
 2 O  dxy             0.0       0.0       0.1       1.4       1.4       0.5
 3 O  s              10.4      44.5       0.0       0.6       0.9       0.1
 3 O  pz             16.5       1.7       0.1       0.1       0.4       1.1
 3 O  px              0.0       0.4       0.8       1.7       2.2       0.9
 3 O  py              0.8       0.1       0.9       2.7       2.0       2.0
 3 O  dz2             2.3       1.5       0.0       0.0       0.0       0.0
 3 O  dxz             4.1       1.2       0.0       0.0       0.4       0.1
 3 O  dyz             1.3       1.9       0.3       1.0       0.8       0.0
 3 O  dx2y2           0.0       0.1       0.3       0.6       0.6       0.1
 3 O  dxy             3.2       0.7       0.4       0.0       0.0       0.1
 4 H  s               0.4       0.0       0.3       0.3       0.3       0.2
 4 H  pz             15.4       0.0       0.6       2.5       3.6       0.4
 4 H  px              0.1       2.4       0.1       9.5      16.4       1.7
 4 H  py              5.7       0.7       0.0       0.1       0.1       1.5
 5 H  s               0.5       0.3       0.0       0.2       0.2       0.0
 5 H  pz              7.2       2.5       0.3       5.1       6.1       0.7
 5 H  px              3.8       0.4       0.1       0.3       0.2       2.0
 5 H  py              3.3       0.4       0.8       7.3       7.7       3.0
 6 O  s               0.5      13.9       0.1       2.1       4.9      36.3
 6 O  pz              2.0       0.7       0.3       0.2       1.3       2.5
 6 O  px              0.4       1.2       0.1       0.2       0.1       0.3
 6 O  py              1.0       1.6       0.0       0.1       0.2       2.1
 6 O  dz2             0.3       0.1       0.5       0.9       2.4       0.9
 6 O  dxz             0.3       0.0       0.0       0.2       0.3       2.2
 6 O  dyz             1.6       0.0       0.1       0.3       0.8       5.9
 6 O  dx2y2           0.0       0.2       0.0       0.0       0.1       0.2
 6 O  dxy             0.7       3.1       0.0       0.0       0.6       1.1
 7 H  s               0.0       0.5       0.0       0.0       0.0       0.1
 7 H  pz              0.1       5.5       0.5       0.5       3.4      10.4
 7 H  px              1.6       1.5       0.0       0.0       0.4       1.4
 7 H  py              1.7       2.5       0.0       0.0       0.1       2.2
 8 H  s               2.1       0.9       0.2       0.2       1.4       1.5
 8 H  pz              4.9       3.9       0.1       0.1       0.4       1.9
 8 H  px              3.9       2.0       1.3       2.7       4.0       5.5
 8 H  py              3.0       3.0       1.3       1.9       1.1       2.4

                     60        61        62        63        64        65   
                   1.86706   1.95499   1.97476   2.04636   2.05354   2.12425
                   0.00000   0.00000   0.00000   0.00000   0.00000   0.00000
                  --------  --------  --------  --------  --------  --------
 0 O  s               0.0       0.2       0.1       0.1       0.0       0.0
 0 O  pz              0.0       0.3       0.0       0.1       0.0       0.1
 0 O  px              0.0       0.3       0.2       0.2       0.0       0.1
 0 O  py              0.0       0.1       0.0       0.2       0.0       0.0
 0 O  dz2             0.0      13.3       0.1       0.3       0.1      15.6
 0 O  dxz             0.0       1.2       0.0       0.0       0.0       0.0
 0 O  dyz             0.1       2.2       0.0       8.5       1.4       0.0
 0 O  dx2y2           0.1       5.1       0.2       3.6       0.8       0.4
 0 O  dxy             0.0       1.8       0.0       3.8       0.6       4.4
 1 O  s               0.4       0.0       0.0       3.0       0.7       0.0
 1 O  pz              0.0       0.0       0.0       0.0       0.0       0.2
 1 O  px              0.0       0.0       0.0       0.2       0.0       0.2
 1 O  py              0.0       0.0       0.0       0.3       0.0       0.1
 1 O  dz2             0.0      35.8       0.1      11.4       2.2       1.0
[...]
 5 H  s               0.0       0.3       0.0       0.0       0.0       0.0
 5 H  pz              0.2       4.7       0.0       0.0       0.0       0.0
 5 H  px              0.0       1.9       0.0       0.0       0.0       0.0
 5 H  py              0.1       1.1       0.0       0.0       0.0       0.0
 6 O  s               6.8      10.8       0.0       0.0       0.0       0.0
 6 O  pz              0.0       3.8       0.0       0.0       0.0       0.0
 6 O  px              8.5       0.1       0.0       0.0       0.0       0.0
 6 O  py              4.5       1.4       0.0       0.0       0.0       0.0
 6 O  dz2             2.9       0.3       0.0       0.0       0.0       0.0
 6 O  dyz             0.3       4.3       0.0       0.0       0.0       0.0
 6 O  dx2y2           2.0       0.3       0.0       0.0       0.0       0.0
 6 O  dxy            12.8       0.5       0.0       0.0       0.0       0.0
 7 H  s               2.2       0.1       0.0       0.0       0.0       0.0
 7 H  px             38.5       0.3       0.0       0.0       0.0       0.0
 7 H  py             18.4       0.3       0.0       0.0       0.0       0.0
 8 H  s               0.2       0.4       0.0       0.0       0.0       0.0
 8 H  pz              0.9      25.8       0.0       0.0       0.0       0.0
 8 H  px              0.0       1.1       0.0       0.0       0.0       0.0
 8 H  py              0.3       6.1       0.0       0.0       0.0       0.0

                     72        73        74        75        76        77   
                   2.55061   2.64839   2.80036   2.83975   2.97263   3.00357
                   0.00000   0.00000   0.00000   0.00000   0.00000   0.00000
                  --------  --------  --------  --------  --------  --------
 0 O  s               0.4       0.8       2.2       0.0       0.0       0.0
 0 O  pz              0.4       0.5       0.3       0.0       0.0       0.0
 0 O  px              0.2       0.6       0.9       0.1       0.0       0.0
 0 O  py              0.4       0.0       0.2       0.0       0.0       0.0
 0 O  dz2             1.6       5.0       2.5       0.0       0.1       0.0
 0 O  dxz             7.8       1.3       8.4       0.2       0.0       0.0
 0 O  dyz            26.5       4.2       5.0       0.0       0.0       0.0
 0 O  dx2y2           9.7      12.7       6.1       0.0       0.1       0.0
 0 O  dxy             1.0       8.1      13.5       0.5       0.1       0.0
 1 O  s               0.0       2.6       0.0       0.0       0.0       0.0
 1 O  pz              0.7       0.0       0.9       0.0       0.0       0.0
 1 O  px              0.4       0.4       0.5       0.0       0.0       0.0
 1 O  py              0.4       0.5       0.5       0.0       0.0       0.0
 1 O  dz2             0.0       1.3       0.2       0.0       0.0       0.0
 1 O  dxz             0.9      16.4       4.5       0.2       0.1       0.0
 1 O  dyz             0.8       9.2       4.1       0.1       0.1       0.0
 1 O  dx2y2           1.8       0.5       9.3       0.2       0.0       0.0
 1 O  dxy             0.0       2.6       0.0       0.0       0.0       0.0
 2 O  s               0.4       0.7       2.2       0.1       0.0       0.0
 2 O  pz              0.4       0.3       0.1       0.0       0.0       0.0
 2 O  px              0.3       0.0       0.1       0.0       0.0       0.0
 2 O  py              0.2       0.8       1.1       0.0       0.0       0.0
 2 O  dz2             0.2       1.7       6.2       0.1       0.1       0.0
 2 O  dxz            37.8       9.5       1.8       0.0       0.0       0.0
 2 O  dyz             3.2       3.7       3.4       0.1       0.0       0.0
 2 O  dx2y2           2.6       6.3      13.0       0.2       0.0       0.0
 2 O  dxy             1.5      10.1      11.2       0.2       0.0       0.0
 3 O  s               0.0       0.0       0.0       0.0       0.4       0.1
 3 O  pz              0.0       0.0       0.0       0.1       0.3       0.1
 3 O  px              0.0       0.0       0.0       0.1       0.3       0.1
 3 O  py              0.0       0.0       0.0       0.0       0.3       0.0
 3 O  dz2             0.0       0.0       0.6      23.2       8.4       1.2
 3 O  dxz             0.0       0.0       0.2      12.9       2.1       0.0
 3 O  dyz             0.0       0.0       0.2      10.0       0.3       0.8
 3 O  dx2y2           0.0       0.0       0.4      30.3       2.4       1.8
 3 O  dxy             0.1       0.0       0.2       3.9      22.2       3.4
 4 H  pz              0.0       0.0       0.0       3.8       0.0       0.0
 4 H  px              0.0       0.0       0.0       1.8       1.7       0.2
 4 H  py              0.0       0.0       0.1       1.9       0.4       0.0
 5 H  pz              0.0       0.0       0.0       0.3       0.0       0.0
 5 H  px              0.0       0.0       0.0       0.4       0.6       0.1
 5 H  py              0.0       0.0       0.0       0.3       1.5       0.4
 6 O  s               0.0       0.0       0.0       0.0       0.3       0.1
 6 O  pz              0.0       0.0       0.0       0.1       0.2       0.2
 6 O  px              0.0       0.0       0.0       0.0       0.1       0.2
 6 O  py              0.0       0.0       0.0       0.0       0.4       0.3
 6 O  dz2             0.0       0.0       0.1       4.8      19.9       0.5
 6 O  dxz             0.0       0.0       0.0       0.5       0.3       7.1
 6 O  dyz             0.0       0.0       0.0       1.7      22.9       3.1
 6 O  dx2y2           0.0       0.0       0.0       0.4       0.2      57.9
 6 O  dxy             0.0       0.0       0.0       1.0       6.7      12.5
 7 H  pz              0.0       0.0       0.0       0.0       0.6       1.3
 7 H  px              0.0       0.0       0.0       0.0       0.1       2.6
 7 H  py              0.0       0.0       0.0       0.0       0.1       5.3
 8 H  s               0.0       0.0       0.0       0.0       0.1       0.1
 8 H  pz              0.0       0.0       0.0       0.2       0.0       0.4
 8 H  px              0.0       0.0       0.0       0.1       1.4       0.0
 8 H  py              0.0       0.0       0.0       0.1       5.0       0.1

                     78        79        80        81        82        83   
                   3.03565   3.04085   3.05887   3.21083   3.23380   3.28108
                   0.00000   0.00000   0.00000   0.00000   0.00000   0.00000
                  --------  --------  --------  --------  --------  --------
 0 O  s               0.0       0.0       0.0       0.0       0.0       1.0
 0 O  pz              0.0       0.1       0.2       0.2       0.0       0.1
 0 O  px              0.0       0.1       0.2       0.2       0.0       0.0
 0 O  py              0.0       0.0       0.1       0.1       0.0       0.3
 0 O  dz2             4.0       9.3       7.5      14.3       0.2       2.6
 0 O  dxz             0.1       0.1       0.0       1.4       0.0       3.1
 0 O  dyz             0.0       0.1       0.1       2.2       0.0      10.6
 0 O  dx2y2           0.5       0.9       0.6       5.9       0.1       0.3
 0 O  dxy             1.0       2.2       1.7       2.0       0.0      11.6
 1 O  s               0.0       0.0       0.0       0.0       0.0       3.7
 1 O  pz              0.2       0.5       0.6       0.0       0.0       0.0
 1 O  px              0.1       0.3       0.4       0.0       0.0       1.2
 1 O  py              0.1       0.2       0.2       0.0       0.0       1.6
 1 O  dz2             0.1       0.3       0.0      35.2       0.4       7.8
 1 O  dxz             1.2       2.3       2.7       0.1       0.0       0.3
 1 O  dyz             2.2       5.0       5.1       0.3       0.0       0.5
 1 O  dx2y2           3.0       7.3       6.7       0.3       0.0       0.6
 1 O  dxy             0.2       0.4       0.5      11.4       0.1      24.8
 2 O  s               0.0       0.0       0.0       0.0       0.0       1.0
 2 O  pz              0.1       0.1       0.1       0.2       0.0       0.2
 2 O  px              0.0       0.1       0.1       0.1       0.0       0.3
 2 O  dz2             3.2       7.4       7.9       8.9       0.1       3.5
 2 O  dxz             0.2       0.3       0.4       2.0       0.0       7.9
 2 O  dyz             0.3       0.7       1.1       4.7       0.0       5.1
 2 O  dx2y2           0.1       0.2       0.3       3.3       0.0       0.8
 2 O  dxy             1.5       3.1       3.6       5.9       0.0      11.1
 3 O  s               0.0       0.4       0.3       0.0       0.7       0.0
 3 O  pz              0.3       0.0       0.0       0.0       0.2       0.0
 3 O  px              0.7       0.4       0.0       0.0       0.0       0.0
 3 O  py              0.0       0.0       0.1       0.0       0.1       0.0
 3 O  dz2             1.7      11.1      13.4       0.0       3.8       0.0
 3 O  dxz             3.8       9.2      20.2       0.0       0.8       0.0
 3 O  dyz             8.3       2.3       0.1       0.0       1.6       0.0
 3 O  dx2y2           7.8       2.7       0.3       0.1       1.4       0.0
 3 O  dxy            16.9       0.4       8.7       0.1       0.2       0.0
 4 H  pz              0.6       0.0       0.4       0.0       0.0       0.0
 4 H  px              1.5       0.0       1.5       0.0       0.0       0.0
 4 H  py              0.2       0.0       0.1       0.0       0.0       0.0
 5 H  pz              0.1       1.4       2.1       0.0       0.2       0.0
 5 H  px              0.4       0.3       0.0       0.0       0.0       0.0
 5 H  py              1.8       0.1       0.6       0.0       0.0       0.0
 6 O  s               0.0       0.7       0.5       0.0       2.6       0.0
 6 O  pz              0.0       0.2       0.1       0.0       1.2       0.0
 6 O  px              0.1       0.0       0.0       0.0       0.7       0.0
 6 O  py              0.1       0.1       0.1       0.0       0.1       0.0
 6 O  dz2            12.6       7.7       0.5       0.0       6.1       0.0
 6 O  dxz            11.4       9.8       1.8       0.6      51.3       0.0
 6 O  dyz             1.6       3.6       5.6       0.1       0.5       0.0
 6 O  dx2y2           4.7       0.2       0.4       0.2      14.1       0.0
 6 O  dxy             2.2       2.4       0.4       0.0       0.0       0.0
 7 H  s               0.0       0.0       0.0       0.0       0.3       0.0
 7 H  pz              0.4       0.8       0.3       0.1       3.2       0.0
 7 H  px              0.0       0.0       0.0       0.0       0.3       0.0
 7 H  py              0.1       0.0       0.0       0.0       0.7       0.0
 8 H  s               0.0       0.6       0.4       0.0       1.3       0.0
 8 H  pz              1.8       3.9       1.1       0.0       2.2       0.0
 8 H  px              0.9       0.4       0.0       0.0       4.6       0.0
 8 H  py              1.6       0.0       0.6       0.0       0.6       0.0

                     84        85        86        87        88        89   
                   3.39507   3.54735   3.68858   3.76038   3.78313   3.85806
                   0.00000   0.00000   0.00000   0.00000   0.00000   0.00000
                  --------  --------  --------  --------  --------  --------
 0 O  s               0.0       0.0       0.1       1.2       6.0       0.0
 0 O  pz              0.0       0.0       0.0       0.2       1.2       0.0
 0 O  px              0.0       0.0       0.1       0.5       1.6       0.0
 0 O  dz2             0.0       0.0       0.0       0.0       0.7       0.0
 0 O  dxz             0.0       0.0       0.7       6.9      20.5       0.0
 0 O  dyz             0.0       0.0       0.0       0.8       0.3       0.0
 0 O  dx2y2           0.1       0.0       0.5       4.1       6.6       0.0
 0 O  dxy             0.0       0.0       0.0       1.1       0.7       0.0
 1 O  s               0.0       0.0       0.2      10.9       0.7       0.0
 1 O  pz              0.0       0.0       0.0       0.1       2.3       0.0
 1 O  px              0.0       0.0       0.0       0.2       1.5       0.0
 1 O  py              0.0       0.0       0.0       0.9       0.9       0.0
 1 O  dz2             0.0       0.0       0.1       0.3       0.7       0.0
 1 O  dxz             0.0       0.1       0.9      10.1      15.4       0.0
 1 O  dyz             0.0       0.0       0.1      20.0       4.0       0.0
 1 O  dx2y2           0.0       0.0       0.1       1.8      18.1       0.0
 1 O  dxy             0.0       0.0       0.0       3.2       0.0       0.0
 2 O  s               0.0       0.0       0.0       4.5       2.9       0.0
 2 O  pz              0.0       0.0       0.0       0.5       0.5       0.0
 2 O  py              0.0       0.0       0.0       1.6       0.7       0.0
 2 O  dz2             0.0       0.0       0.1       0.6       0.1       0.0
 2 O  dxz             0.0       0.0       0.0       0.0       0.7       0.0
 2 O  dyz             0.0       0.0       0.0      15.6       8.0       0.0
 2 O  dx2y2           0.0       0.0       0.1      13.2       2.3       0.0
 2 O  dxy             0.0       0.0       0.0       0.0       1.8       0.0
 3 O  s              11.6       0.7       0.1       0.0       0.0       0.1
 3 O  pz              2.7       0.1       0.1       0.0       0.0       0.0
 3 O  px              1.5       0.2       2.2       0.1       0.0       0.1
 3 O  py              0.5       0.6       2.9       0.1       0.1       0.2
 3 O  dz2             5.8       4.1       2.3       0.1       0.1       0.6
 3 O  dxz            14.3       0.9       6.6       0.1       0.1       3.5
 3 O  dyz            26.4       0.5      17.7       0.3       0.4       2.5
 3 O  dx2y2           0.0       3.5      24.3       0.4       0.4       1.6
 3 O  dxy            15.1       0.0       4.9       0.0       0.0       0.9
 4 H  s               6.2       0.8       5.1       0.1       0.1       0.3
 4 H  pz              1.3       0.2       1.5       0.0       0.0       0.1
 4 H  py              3.2       0.3       2.7       0.1       0.1       0.2
 5 H  s               6.2       0.3       7.4       0.1       0.1       0.7
 5 H  pz              0.3       0.2       0.6       0.0       0.0       0.0
 5 H  px              2.4       0.0       3.7       0.1       0.1       0.6
 5 H  py              0.5       0.0       0.7       0.0       0.0       0.1
 6 O  s               0.1      10.6       0.5       0.0       0.0       0.2
 6 O  pz              0.0       1.2       0.1       0.0       0.0       2.3
 6 O  px              0.0       1.8       0.4       0.0       0.0       1.1
 6 O  py              0.0       0.0       0.3       0.0       0.0       2.8
 6 O  dz2             0.5       0.0       1.8       0.0       0.0      24.4
 6 O  dxz             0.0       0.6       0.2       0.0       0.0       0.3
 6 O  dyz             0.0      22.2       0.1       0.0       0.0      13.9
 6 O  dx2y2           0.1       0.7       1.2       0.0       0.0       5.2
 6 O  dxy             0.3      27.0       5.9       0.0       0.0      11.4
 7 H  s               0.0       7.9       2.2       0.0       0.0       6.6
 7 H  px              0.0       3.0       0.8       0.0       0.0       2.3
 7 H  py              0.0       0.9       0.4       0.0       0.0       1.3
 8 H  s               0.2       3.7       0.2       0.0       0.0       7.8
 8 H  pz              0.1       6.4       0.0       0.0       0.0       6.8
 8 H  px              0.1       0.5       0.1       0.0       0.0       0.2
 8 H  py              0.3       0.7       0.0       0.0       0.0       2.1



                      *****************************
                      * MAYER POPULATION ANALYSIS *
                      *****************************

  NA   - Mulliken gross atomic population
  ZA   - Total nuclear charge
  QA   - Mulliken gross atomic charge
  VA   - Mayer's total valence
  BVA  - Mayer's bonded valence
  FA   - Mayer's free valence

  ATOM       NA         ZA         QA         VA         BVA        FA
  0 O      8.1269     8.0000    -0.1269     1.8760     1.8760     0.0000
  1 O      7.7812     8.0000     0.2188     2.6831     2.6831    -0.0000
  2 O      8.0748     8.0000    -0.0748     1.8925     1.8925    -0.0000
  3 O      8.2437     8.0000    -0.2437     2.1623     2.1623    -0.0000
  4 H      0.8431     1.0000     0.1569     1.0500     1.0500    -0.0000
  5 H      0.8477     1.0000     0.1523     1.0279     1.0279    -0.0000
  6 O      8.3105     8.0000    -0.3105     2.0512     2.0512    -0.0000
  7 H      0.9118     1.0000     0.0882     1.0652     1.0652    -0.0000
  8 H      0.8604     1.0000     0.1396     1.1139     1.1139    -0.0000

  Mayer bond orders larger than 0.1
B(  0-O ,  1-O ) :   1.3123 B(  0-O ,  2-O ) :   0.5200 B(  1-O ,  2-O ) :   1.3602 
B(  3-O ,  4-H ) :   0.9783 B(  3-O ,  5-H ) :   1.0006 B(  3-O ,  8-H ) :   0.1487 
B(  6-O ,  7-H ) :   1.0512 B(  6-O ,  8-H ) :   0.9568 

-------
TIMINGS
-------

Total SCF time: 0 days 0 hours 0 min 17 sec 

Total time                  ....      17.842 sec
Sum of individual times     ....      18.686 sec  (104.7%)

Fock matrix formation       ....      16.990 sec  ( 95.2%)
  Coulomb formation         ....      14.690 sec  ( 86.5% of F)
  XC integration            ....       2.297 sec  ( 13.5% of F)
    Basis function eval.    ....       1.278 sec  ( 55.6% of XC)
    Density eval.           ....       0.352 sec  ( 15.3% of XC)
    XC-Functional eval.     ....       0.292 sec  ( 12.7% of XC)
    XC-Potential eval.      ....       0.328 sec  ( 14.3% of XC)
Diagonalization             ....       0.020 sec  (  0.1%)
Density matrix formation    ....       0.002 sec  (  0.0%)
Population analysis         ....       0.015 sec  (  0.1%)
Initial guess               ....       0.683 sec  (  3.8%)
Orbital Transformation      ....       0.000 sec  (  0.0%)
Orbital Orthonormalization  ....       0.000 sec  (  0.0%)
DIIS solution               ....       0.004 sec  (  0.0%)
SOSCF solution              ....       0.014 sec  (  0.1%)
Grid generation             ....       0.958 sec  (  5.4%)

-------------------------   --------------------
FINAL SINGLE POINT ENERGY      -378.272647476524
-------------------------   --------------------


                            ***************************************
                            *     ORCA property calculations      *
                            ***************************************

                                    ---------------------
                                    Active property flags
                                    ---------------------
   (+) Dipole Moment


------------------------------------------------------------------------------
                       ORCA ELECTRIC PROPERTIES CALCULATION
------------------------------------------------------------------------------

Dipole Moment Calculation                       ... on
Quadrupole Moment Calculation                   ... off
Polarizability Calculation                      ... off
GBWName                                         ... prova.gbw
Electron density file                           ... prova.scfp.tmp

-------------
DIPOLE MOMENT
-------------
                                X             Y             Z
Electronic contribution:     -5.73142       2.84111       3.40499
Nuclear contribution   :      6.59917      -2.80193      -2.07162
                        -----------------------------------------
Total Dipole Moment    :      0.86775       0.03918       1.33337
                        -----------------------------------------
Magnitude (a.u.)       :      1.59135
Magnitude (Debye)      :      4.04489


Timings for individual modules:

Sum of individual times         ...       18.816 sec (=   0.314 min)
GTO integral calculation        ...        0.278 sec (=   0.005 min)   1.5 %
SCF iterations                  ...       18.538 sec (=   0.309 min)  98.5 %
                             ****ORCA TERMINATED NORMALLY****
TOTAL RUN TIME: 0 days 0 hours 0 minutes 19 seconds 138 msec
