
                                 *****************
                                 * O   R   C   A *
                                 *****************

           --- An Ab Initio, DFT and Semiempirical electronic structure package ---

                  ######################################################
                  #                        -***-                       #
                  #  Department of molecular theory and spectroscopy   #
                  #              Directorship: Frank Neese             #
                  #   Max Planck Institute for Bioinorganic Chemistry  #
                  #                  D-45470 Muelheim/Ruhr             #
                  #                       Germany                      #
                  #                                                    #
                  #                  All rights reserved               #
                  #                        -***-                       #
                  ######################################################


                         Program Version 2.9.1 -  RELEASE  -


 With contributions from (in alphabetic order):
   Ute Becker             : Parallelization
   Dmitry Ganyushin       : Spin-Orbit,Spin-Spin,Magnetic field MRCI
   Andreas Hansen         : Spin unrestricted coupled pair/coupled cluster methods
   Dimitrios Liakos       : Parallel MDCI
   Robert Izsak           : Overlap fitted RIJCOSX
   Christian Kollmar      : KDIIS, orbital optimized coupled pair methods, Brueckner methods
   Simone Kossmann        : Meta GGA functionals, improved MP2 methods
   Taras Petrenko         : TD-DFT gradient, Resonance Raman, ABS, fluorescence, XAS, NRVS
   Christoph Reimann      : Effective Core Potentials
   Michael Roemelt        : Restricted open shell CI
   Christoph Riplinger    : Improved optimizer, TS searches, QM/MM
   Barbara Sandhoefer     : DKH, picture change effects
   Igor Schapiro          : Molecular dynamics
   Kantharuban Sivalingam : CASSCF and multireference perturbation theory
   Boris Wezisla          : Elementary symmetry handling
   Frank Wennmohs         : Technical directorship


 We gratefully acknowledge several collegues who have allowed us to
 interface, adapt or use parts of their codes:
   Stefan Grimme                                : VdW corrections, initial TS optimization
                                                  and many helpful discussions
   Ed Valeev                                    : LibInt (2-el integral package), F12 methods
   Andreas Klamt, Michael Diedenhofen           : otool_cosmo (COSMO solvation model)
   Frank Weinhold                               : gennbo (NPA and NBO analysis)


 Your calculation uses the libint2 library for the computation of 2-el integrals
 For citations please refer to: http://libint.valeyev.net

Your calculation utilizes the basis: 6-31G
Cite in your paper:
H - He: W.J. Hehre, R. Ditchfield and J.A. Pople, J. Chem. Phys. 56,
Li - Ne: 2257 (1972).  Note: Li and B come from J.D. Dill and J.A.
         Pople, J. Chem. Phys. 62, 2921 (1975).
Na - Ar: M.M. Francl, W.J. Pietro, W.J. Hehre, J.S. Binkley, M.S. Gordon,
         D.J. DeFrees and J.A. Pople, J. Chem. Phys. 77, 3654 (1982)
K  - Zn: V. Rassolov, J.A. Pople, M. Ratner and T.L. Windus, J. Chem. Phys.
         (accepted, 1998)
Note: He and Ne are unpublished basis sets taken from the Gaussian program



*****************************************
The coordinations will be read from file: atoms.xyz
*****************************************


================================================================================
                                        WARNINGS
                       Please study these warnings very carefully!
================================================================================
Now building the actual basis set

WARNING: Gradients are needed
  ===> : forcing at least TightSCF

WARNING: Geometry Optimization
  ===> : Switching off AutoStart
         For restart on a previous wavefunction, please use MOREAD


INFO   : the flag for use of LIBINT has been found!

================================================================================
                                       INPUT FILE
================================================================================
NAME = hf.inp
|  1> ! rhf 6-31g opt
|  2> 
|  3> * xyzfile 0 1 atoms.xyz **                         ****END OF INPUT****
================================================================================

                       *****************************
                       * Geometry Optimization Run *
                       *****************************

Geometry optimization settings:
Update method            Update   .... BFGS
Choice of coordinates    CoordSys .... Redundant Internals
Initial Hessian          InHess   .... Almoef's Model

Convergence Tolerances:
Energy Change            TolE     ....  5.0000e-06 Eh
Max. Gradient            TolMAXG  ....  3.0000e-04 Eh/bohr
RMS Gradient             TolRMSG  ....  1.0000e-04 Eh/bohr
Max. Displacement        TolMAXD  ....  4.0000e-03 bohr
RMS Displacement         TolRMSD  ....  2.0000e-03 bohr

------------------------------------------------------------------------------
                        ORCA OPTIMIZATION COORDINATE SETUP
------------------------------------------------------------------------------

The optimization will be done in new redundant internal coordinates
Making redundant internal coordinates   ...  (new redundants) done
Evaluating the initial hessian          ...  (Almloef) done
Evaluating the coordinates              ...  done
Calculating the B-matrix                .... done
Calculating the G-matrix                .... done
Diagonalizing the G-matrix              .... done
Small eigenvalue found = 1.141e-02
Small eigenvalue found = 1.718e-02
The first mode is                       ....   36
The number of degrees of freedom        ....   57

    -----------------------------------------------------------------
                    Redundant Internal Coordinates


    -----------------------------------------------------------------
         Definition                    Initial Value    Approx d2E/dq
    -----------------------------------------------------------------
      1. B(C   2,C   0)                  1.3983         0.606025   
      2. B(C   3,C   2)                  1.3933         0.617358   
      3. B(C   3,C   1)                  1.3936         0.616603   
      4. B(C   5,C   0)                  1.4051         0.591045   
      5. B(C   6,C   5)                  1.4013         0.599360   
      6. B(C   6,C   1)                  1.4006         0.601017   
      7. B(C  10,C   5)                  1.4850         0.440740   
      8. B(C  10,O   9)                  1.3438         0.663063   
      9. B(C  10,O   7)                  1.2189         1.049304   
     10. B(C  11,O   8)                  1.2241         1.029502   
     11. B(C  11,C   4)                  1.4993         0.418150   
     12. B(O  12,C  11)                  1.3900         0.559592   
     13. B(O  12,C   6)                  1.3969         0.545512   
     14. B(H  13,O   9)                  0.9806         0.482016   
     15. B(H  14,C   0)                  1.0893         0.361000   
     16. B(H  15,C   1)                  1.0865         0.364742   
     17. B(H  16,C   2)                  1.0875         0.363477   
     18. B(H  17,C   3)                  1.0871         0.363915   
     19. B(H  18,C   4)                  1.0929         0.356274   
     20. B(H  19,C   4)                  1.0945         0.354162   
     21. B(H  20,C   4)                  1.0924         0.356901   
     22. A(C   5,C   0,H  14)          120.1951         0.350215   
     23. A(C   2,C   0,C   5)          120.8334         0.428594   
     24. A(C   2,C   0,H  14)          118.9714         0.351699   
     25. A(C   3,C   1,C   6)          119.9059         0.431220   
     26. A(C   6,C   1,H  15)          120.2616         0.351819   
     27. A(C   3,C   1,H  15)          119.8309         0.353346   
     28. A(C   3,C   2,H  16)          120.0625         0.353212   
     29. A(C   0,C   2,H  16)          119.8610         0.352106   
     30. A(C   0,C   2,C   3)          120.0764         0.431958   
     31. A(C   1,C   3,H  17)          120.0596         0.353210   
     32. A(C   1,C   3,C   2)          119.8955         0.433304   
     33. A(C   2,C   3,H  17)          120.0447         0.353284   
     34. A(H  18,C   4,H  20)          110.6839         0.289946   
     35. A(C  11,C   4,H  20)          109.8520         0.329913   
     36. A(H  18,C   4,H  19)          108.4653         0.289596   
     37. A(C  11,C   4,H  19)          109.2973         0.329493   
     38. A(H  19,C   4,H  20)          108.6176         0.289676   
     39. A(C  11,C   4,H  18)          109.8880         0.329817   
     40. A(C   0,C   5,C  10)          116.5242         0.404977   
     41. A(C   0,C   5,C   6)          118.2971         0.427745   
     42. A(C   6,C   5,C  10)          125.1773         0.405978   
     43. A(C   5,C   6,O  12)          122.6968         0.418917   
     44. A(C   1,C   6,O  12)          116.2790         0.419123   
     45. A(C   1,C   6,C   5)          120.9736         0.429030   
     46. A(C  10,O   9,H  13)          103.1438         0.369568   
     47. A(O   7,C  10,O   9)          119.9950         0.477192   
     48. A(C   5,C  10,O   9)          114.9806         0.410639   
     49. A(C   5,C  10,O   7)          125.0199         0.445853   
     50. A(C   4,C  11,O  12)          108.7588         0.394858   
     51. A(C   4,C  11,O   8)          124.3447         0.440111   
     52. A(O   8,C  11,O  12)          126.8950         0.460960   
     53. A(C   6,O  12,C  11)          112.5226         0.411157   
     54. D(C   3,C   2,C   0,H  14)    179.6708         0.025346   
     55. D(H  16,C   2,C   0,C   5)    179.8946         0.025346   
     56. D(H  16,C   2,C   0,H  14)     -0.2494         0.025346   
     57. D(C   3,C   2,C   0,C   5)     -0.1851         0.025346   
     58. D(H  17,C   3,C   1,C   6)   -179.3606         0.026291   
     59. D(C   1,C   3,C   2,H  16)   -179.7545         0.026360   
     60. D(C   2,C   3,C   1,C   6)      0.4889         0.026291   
     61. D(H  17,C   3,C   2,H  16)      0.0951         0.026360   
     62. D(H  17,C   3,C   2,C   0)   -179.8251         0.026360   
     63. D(C   2,C   3,C   1,H  15)   -179.9829         0.026291   
     64. D(H  17,C   3,C   1,H  15)      0.1676         0.026291   
     65. D(C   1,C   3,C   2,C   0)      0.3254         0.026360   
     66. D(C   6,C   5,C   0,H  14)    179.3884         0.024045   
     67. D(C  10,C   5,C   0,C   2)    178.8366         0.024045   
     68. D(C   6,C   5,C   0,C   2)     -0.7574         0.024045   
     69. D(C  10,C   5,C   0,H  14)     -1.0177         0.024045   
     70. D(O  12,C   6,C   5,C  10)     -0.6580         0.024762   
     71. D(C   1,C   6,C   5,C  10)   -177.9733         0.024762   
     72. D(C   1,C   6,C   5,C   0)      1.5823         0.024762   
     73. D(O  12,C   6,C   1,H  15)      1.5268         0.024906   
     74. D(O  12,C   6,C   1,C   3)   -178.9471         0.024906   
     75. D(O  12,C   6,C   5,C   0)    178.8976         0.024762   
     76. D(C   5,C   6,C   1,H  15)    179.0072         0.024906   
     77. D(C   5,C   6,C   1,C   3)     -1.4666         0.024906   
     78. D(O   7,C  10,O   9,H  13)      0.5890         0.032601   
     79. D(C   5,C  10,O   9,H  13)    179.8629         0.032601   
     80. D(O   9,C  10,C   5,C   6)      3.2840         0.013253   
     81. D(O   9,C  10,C   5,C   0)   -176.2786         0.013253   
     82. D(O   7,C  10,C   5,C   6)   -177.4838         0.013253   
     83. D(O   7,C  10,C   5,C   0)      2.9536         0.013253   
     84. D(O   8,C  11,C   4,H  18)   -120.5464         0.012933   
     85. D(O  12,C  11,C   4,H  20)    -62.1225         0.012933   
     86. D(O  12,C  11,C   4,H  19)    178.7967         0.012933   
     87. D(O  12,C  11,C   4,H  18)     59.8802         0.012933   
     88. D(O   8,C  11,C   4,H  20)    117.4510         0.012933   
     89. D(O   8,C  11,C   4,H  19)     -1.6299         0.012933   
     90. D(C   6,O  12,C  11,O   8)      2.8520         0.022686   
     91. D(C   6,O  12,C  11,C   4)   -177.5884         0.022686   
     92. D(C  11,O  12,C   6,C   5)     86.3237         0.021507   
     93. D(C  11,O  12,C   6,C   1)    -96.2434         0.021507   
    -----------------------------------------------------------------

Number of atoms                         .... 21
Number of degrees of freedom            .... 93

         *************************************************************
         *                GEOMETRY OPTIMIZATION CYCLE   1            *
         *************************************************************
---------------------------------
CARTESIAN COORDINATES (ANGSTROEM)
---------------------------------
  C      2.056390   -0.165430    0.397270
  C      0.688900    2.028540   -0.648160
  C      2.740710    1.023270    0.125330
  C      2.057340    2.117820   -0.400160
  C     -3.593960    1.032090    0.045890
  C      0.677380   -0.275070    0.150970
  C      0.002740    0.842340   -0.358870
  O      0.632930   -2.545260    0.933600
  O     -1.764520    1.432520    1.565710
  O     -1.248940   -1.684110    0.129750
  C      0.052780   -1.588810    0.449580
  C     -2.151990    1.128410    0.445130
  O     -1.361670    0.828320   -0.658250
  H     -1.476520   -2.601110    0.392320
  H      2.609480   -1.011730    0.802840
  H      0.157080    2.882660   -1.058230
  H      3.807770    1.091260    0.323640
  H      2.590440    3.040810   -0.614050
  H     -3.816400    0.020490   -0.302870
  H     -4.224800    1.245910    0.914400
  H     -3.812960    1.765760   -0.733320

----------------------------
CARTESIAN COORDINATES (A.U.)
----------------------------
  NO LB      ZA    FRAG    MASS        X           Y           Z
   0 C     6.0000    0    12.011    3.886014   -0.312617    0.750732
   1 C     6.0000    0    12.011    1.301832    3.833385   -1.224845
   2 C     6.0000    0    12.011    5.179191    1.933700    0.236839
   3 C     6.0000    0    12.011    3.887809    4.002100   -0.756193
   4 C     6.0000    0    12.011   -6.791600    1.950367    0.086720
   5 C     6.0000    0    12.011    1.280063   -0.519807    0.285292
   6 C     6.0000    0    12.011    0.005178    1.591792   -0.678166
   7 O     8.0000    0    15.999    1.196064   -4.809844    1.764248
   8 O     8.0000    0    15.999   -3.334460    2.707070    2.958763
   9 O     8.0000    0    15.999   -2.360155   -3.182507    0.245192
  10 C     6.0000    0    12.011    0.099740   -3.002416    0.849583
  11 C     6.0000    0    12.011   -4.066672    2.132386    0.841174
  12 O     8.0000    0    15.999   -2.573183    1.565298   -1.243912
  13 H     1.0000    0     1.008   -2.790218   -4.915386    0.741377
  14 H     1.0000    0     1.008    4.931203   -1.911893    1.517148
  15 H     1.0000    0     1.008    0.296838    5.447438   -1.999765
  16 H     1.0000    0     1.008    7.195642    2.062183    0.611591
  17 H     1.0000    0     1.008    4.895222    5.746298   -1.160386
  18 H     1.0000    0     1.008   -7.211951    0.038720   -0.572341
  19 H     1.0000    0     1.008   -7.983715    2.354429    1.727966
  20 H     1.0000    0     1.008   -7.205450    3.336803   -1.385774

--------------------------------
INTERNAL COORDINATES (ANGSTROEM)
--------------------------------
 C      0   0   0   0.000000     0.000     0.000
 C      1   0   0   2.788630     0.000     0.000
 C      1   2   0   1.398304    59.885     0.000
 C      3   1   2   1.393260   120.076   359.837
 C      2   1   3   4.451686   103.723   195.319
 C      1   2   3   1.405117    60.949   179.978
 C      2   1   3   1.400562    59.766   180.816
 O      6   1   2   2.401718    91.994   180.042
 O      5   2   1   2.411856    48.035    63.797
 O      8   6   1   2.220178    62.035   183.121
 C      8   6   1   1.218871    30.422   182.644
 C      9   5   2   1.224057    30.882   339.065
 O     12   9   5   1.390003   126.895   179.495
 H     10   8   6   0.980625    74.755   180.134
 H      1   2   3   1.089321   178.847   352.755
 H      2   1   3   1.086513   179.842    80.621
 H      3   1   2   1.087459   119.861   179.917
 H      4   3   1   1.087132   120.045   180.175
 H      5   2   1   1.092908   110.686   310.695
 H      5   2   1   1.094526   129.382    89.110
 H      5   2   1   1.092429    86.063   200.057

---------------------------
INTERNAL COORDINATES (A.U.)
---------------------------
 C      0   0   0   0.000000     0.000     0.000
 C      1   0   0   5.269747     0.000     0.000
 C      1   2   0   2.642411    59.885     0.000
 C      3   1   2   2.632880   120.076   359.837
 C      2   1   3   8.412467   103.723   195.319
 C      1   2   3   2.655286    60.949   179.978
 C      2   1   3   2.646679    59.766   180.816
 O      6   1   2   4.538589    91.994   180.042
 O      5   2   1   4.557747    48.035    63.797
 O      8   6   1   4.195528    62.035   183.121
 C      8   6   1   2.303332    30.422   182.644
 C      9   5   2   2.313132    30.882   339.065
 O     12   9   5   2.626724   126.895   179.495
 H     10   8   6   1.853112    74.755   180.134
 H      1   2   3   2.058518   178.847   352.755
 H      2   1   3   2.053212   179.842    80.621
 H      3   1   2   2.054999   119.861   179.917
 H      4   3   1   2.054381   120.045   180.175
 H      5   2   1   2.065297   110.686   310.695
 H      5   2   1   2.068355   129.382    89.110
 H      5   2   1   2.064391    86.063   200.057

---------------------
BASIS SET INFORMATION
---------------------
There are 3 groups of distinct atoms

 Group   1 Type C   : 10s4p contracted to 3s2p pattern {631/31}
 Group   2 Type O   : 10s4p contracted to 3s2p pattern {631/31}
 Group   3 Type H   : 4s contracted to 2s pattern {31}

Atom   0C    basis set group =>   1
Atom   1C    basis set group =>   1
Atom   2C    basis set group =>   1
Atom   3C    basis set group =>   1
Atom   4C    basis set group =>   1
Atom   5C    basis set group =>   1
Atom   6C    basis set group =>   1
Atom   7O    basis set group =>   2
Atom   8O    basis set group =>   2
Atom   9O    basis set group =>   2
Atom  10C    basis set group =>   1
Atom  11C    basis set group =>   1
Atom  12O    basis set group =>   2
Atom  13H    basis set group =>   3
Atom  14H    basis set group =>   3
Atom  15H    basis set group =>   3
Atom  16H    basis set group =>   3
Atom  17H    basis set group =>   3
Atom  18H    basis set group =>   3
Atom  19H    basis set group =>   3
Atom  20H    basis set group =>   3
------------------------------------------------------------------------------
                           ORCA GTO INTEGRAL CALCULATION
------------------------------------------------------------------------------

                         BASIS SET STATISTICS AND STARTUP INFO

 # of primitive gaussian shells          ...  214
 # of primitive gaussian functions       ...  318
 # of contracted shell                   ...   81
 # of contracted basis functions         ...  133
 Highest angular momentum                ...    1
 Maximum contraction depth               ...    6
 Integral package used                   ... LIBINT
 Integral threshhold             Thresh  ...  2.500e-11
 Primitive cut-off               TCut    ...  2.500e-12


                              INTEGRAL EVALUATION

 One electron integrals                  ... done
 Pre-screening matrix                    ... done
 Shell pair data                         ... done (   0.003 sec)

-------------------------------------------------------------------------------
                                 ORCA SCF
-------------------------------------------------------------------------------

------------
SCF SETTINGS
------------
Hamiltonian:
 Ab initio Hamiltonian  Method          .... Hartree-Fock(GTOs)


General Settings:
 Integral files         IntName         .... hf
 Hartree-Fock type      HFTyp           .... RHF
 Total Charge           Charge          ....    0
 Multiplicity           Mult            ....    1
 Number of Electrons    NEL             ....   94
 Basis Dimension        Dim             ....  133
 Nuclear Repulsion      ENuc            ....    782.6611615805 Eh

Convergence Acceleration:
 DIIS                   CNVDIIS         .... on
   Start iteration      DIISMaxIt       ....    12
   Startup error        DIISStart       ....  0.200000
   # of expansion vecs  DIISMaxEq       ....     5
   Bias factor          DIISBfac        ....   1.050
   Max. coefficient     DIISMaxC        ....  10.000
 Newton-Raphson         CNVNR           .... off
 SOSCF                  CNVSOSCF        .... on
   Start iteration      SOSCFMaxIt      ....   150
   Startup grad/error   SOSCFStart      ....  0.003300
 Level Shifting         CNVShift        .... on
   Level shift para.    LevelShift      ....    0.2500
   Turn off err/grad.   ShiftErr        ....    0.0010
 Zerner damping         CNVZerner       .... off
 Static damping         CNVDamp         .... on
   Fraction old density DampFac         ....    0.7000
   Max. Damping (<1)    DampMax         ....    0.9800
   Min. Damping (>=0)   DampMin         ....    0.0000
   Turn off err/grad.   DampErr         ....    0.1000
 Fernandez-Rico         CNVRico         .... off

SCF Procedure:
 Maximum # iterations   MaxIter         ....   125
 SCF integral mode      SCFMode         .... Direct
   Integral package                     .... LIBINT
 Reset frequeny         DirectResetFreq ....    20
 Integral Threshold     Thresh          ....  2.500e-11 Eh
 Primitive CutOff       TCut            ....  2.500e-12 Eh

Convergence Tolerance:
 Convergence Check Mode ConvCheckMode   .... Total+1el-Energy
 Energy Change          TolE            ....  1.000e-08 Eh
 1-El. energy change                    ....  1.000e-05 Eh
 Orbital Gradient       TolG            ....  1.000e-05
 Orbital Rotation angle TolX            ....  1.000e-05
 DIIS Error             TolErr          ....  5.000e-07


Diagonalization of the overlap matrix:
Smallest eigenvalue                        ... 5.374e-04
Time for diagonalization                   ...    0.010 sec
Time for construction of square roots      ...    0.003 sec
Total time needed                          ...    0.013 sec

-------------------
DFT GRID GENERATION
-------------------

General Integration Accuracy     IntAcc      ...  4.340
Radial Grid Type                 RadialGrid  ... Gauss-Chebyshev
Angular Grid (max. acc.)         AngularGrid ... Lebedev-110
Angular grid pruning method      GridPruning ... 3 (G Style)
Weight generation scheme         WeightScheme... Becke
Basis function cutoff            BFCut       ...    1.0000e-11
Integration weight cutoff        WCut        ...    1.0000e-14
Grids for H and He will be reduced by one unit

# of grid points (after initial pruning)     ...  28120 (   0.0 sec)
# of grid points (after weights+screening)   ...  25848 (   0.5 sec)
nearest neighbour list constructed           ...    0.0 sec
Grid point re-assignment to atoms done       ...    0.0 sec
Grid point division into batches done        ...    0.0 sec
Reduced shell lists constructed in    0.7 sec

Total number of grid points                  ...    25848
Total number of batches                      ...      414
Average number of points per batch           ...       62
Average number of grid points per atom       ...     1231
Average number of shells per batch           ...    50.68 (62.56%)
Average number of basis functions per batch  ...    89.64 (67.40%)
Average number of large shells per batch     ...    36.34 (71.71%)
Average number of large basis fcns per batch ...    65.84 (73.45%)
Maximum spatial batch extension              ...  17.55, 19.49, 25.60 au
Average spatial batch extension              ...   3.29,  3.47,  3.93 au

Time for grid setup =    1.179 sec

------------------------------
INITIAL GUESS: MODEL POTENTIAL
------------------------------
Loading Hartree-Fock densities                     ... done
Calculating cut-offs                               ... done
Setting up the integral package                    ... done
Initializing the effective Hamiltonian             ... done
Starting the Coulomb interaction                   ... done (   0.3 sec)
Reading the grid                                   ... done
Mapping shells                                     ... done
Starting the XC term evaluation                    ... done (   2.1 sec)
Transforming the Hamiltonian                       ... done (   0.0 sec)
Diagonalizing the Hamiltonian                      ... done (   0.0 sec)
Back transforming the eigenvectors                 ... done (   0.0 sec)
Now organizing SCF variables                       ... done
                      ------------------
                      INITIAL GUESS DONE (   2.4 sec)
                      ------------------
--------------
SCF ITERATIONS
--------------
ITER       Energy         Delta-E        Max-DP      RMS-DP      [F,P]     Damp
               ***  Starting incremental Fock matrix formation  ***
  0   -644.2284053055   0.000000000000 0.06871701  0.00337233  0.2588247 0.7000
  1   -644.3851640069  -0.156758701368 0.04898581  0.00251184  0.1540621 0.7000
                               ***Turning on DIIS***
  2   -644.4756175307  -0.090453523808 0.09413214  0.00539826  0.0845625 0.0000
  3   -643.8745100908   0.601107439907 0.03502404  0.00164944  0.0576405 0.0000
  4   -644.6534606362  -0.778950545424 0.01052928  0.00046270  0.0114007 0.0000
  5   -644.6718889534  -0.018428317137 0.00525115  0.00027752  0.0062575 0.0000
                      *** Initiating the SOSCF procedure ***
                           *** Shutting down DIIS ***
                      *** Re-Reading the Fockian *** 
                      *** Removing any level shift *** 
ITER      Energy       Delta-E        Grad      Rot      Max-DP    RMS-DP
  6   -644.64545219   0.0264367636  0.002779  0.002779  0.003313  0.000170
               *** Restarting incremental Fock matrix formation ***
  7   -644.66117659  -0.0157243976  0.000936  0.001480  0.001412  0.000066
  8   -644.66119543  -0.0000188402  0.000512  0.001934  0.001719  0.000088
  9   -644.66120296  -0.0000075373  0.000173  0.000206  0.000316  0.000013
 10   -644.66120354  -0.0000005723  0.000033  0.000048  0.000082  0.000004
 11   -644.66120360  -0.0000000594  0.000012  0.000023  0.000048  0.000002
 12   -644.66120361  -0.0000000112  0.000006  0.000015  0.000021  0.000001
                  ***Gradient check signals convergence***
              ***Rediagonalizing the Fockian in SOSCF/NRSCF***

               *****************************************************
               *                     SUCCESS                       *
               *           SCF CONVERGED AFTER  13 CYCLES          *
               *****************************************************


----------------
TOTAL SCF ENERGY
----------------

Total Energy       :         -644.66120361 Eh          -17542.12317 eV

Components:
Nuclear Repulsion  :          782.66116158 Eh           21297.29294 eV
Electronic Energy  :        -1427.32236519 Eh          -38839.41611 eV

One Electron Energy:        -2434.03585397 Eh          -66233.48283 eV
Two Electron Energy:         1006.71348879 Eh           27394.06672 eV

Virial components:
Potential Energy   :        -1289.13462955 Eh          -35079.13666 eV
Kinetic Energy     :          644.47342594 Eh           17537.01348 eV
Virial Ratio       :            2.00029137


---------------
SCF CONVERGENCE
---------------

  Last Energy change         ...    1.1846e-10  Tolerance :   1.0000e-08
  Last MAX-Density change    ...    4.2891e-06  Tolerance :   1.0000e-07
  Last RMS-Density change    ...    1.9259e-07  Tolerance :   5.0000e-09
  Last Orbital Gradient      ...    5.1361e-07  Tolerance :   1.0000e-05
  Last Orbital Rotation      ...    2.0841e-06  Tolerance :   1.0000e-05

             **** THE GBW FILE WAS UPDATED (hf.gbw) ****
             **** DENSITY FILE WAS UPDATED (hf.scfp.tmp) ****
             **** ENERGY FILE WAS UPDATED (hf.en.tmp) ****
----------------
ORBITAL ENERGIES
----------------

  NO   OCC          E(Eh)            E(eV) 
   0   2.0000     -20.634612      -561.4963 
   1   2.0000     -20.630416      -561.3822 
   2   2.0000     -20.580861      -560.0337 
   3   2.0000     -20.574305      -559.8553 
   4   2.0000     -11.424282      -310.8705 
   5   2.0000     -11.420481      -310.7671 
   6   2.0000     -11.342484      -308.6447 
   7   2.0000     -11.283088      -307.0284 
   8   2.0000     -11.273438      -306.7658 
   9   2.0000     -11.272935      -306.7522 
  10   2.0000     -11.264276      -306.5165 
  11   2.0000     -11.260194      -306.4054 
  12   2.0000     -11.248617      -306.0904 
  13   2.0000      -1.503547       -40.9136 
  14   2.0000      -1.487763       -40.4841 
  15   2.0000      -1.394260       -37.9397 
  16   2.0000      -1.382249       -37.6129 
  17   2.0000      -1.184819       -32.2406 
  18   2.0000      -1.070226       -29.1223 
  19   2.0000      -1.057214       -28.7682 
  20   2.0000      -1.015149       -27.6236 
  21   2.0000      -0.917617       -24.9696 
  22   2.0000      -0.869131       -23.6502 
  23   2.0000      -0.827522       -22.5180 
  24   2.0000      -0.795867       -21.6566 
  25   2.0000      -0.730700       -19.8834 
  26   2.0000      -0.719728       -19.5848 
  27   2.0000      -0.701429       -19.0868 
  28   2.0000      -0.694749       -18.9051 
  29   2.0000      -0.675907       -18.3924 
  30   2.0000      -0.665701       -18.1146 
  31   2.0000      -0.648773       -17.6540 
  32   2.0000      -0.632992       -17.2246 
  33   2.0000      -0.623575       -16.9683 
  34   2.0000      -0.596717       -16.2375 
  35   2.0000      -0.585868       -15.9423 
  36   2.0000      -0.567908       -15.4536 
  37   2.0000      -0.561935       -15.2910 
  38   2.0000      -0.532457       -14.4889 
  39   2.0000      -0.523452       -14.2439 
  40   2.0000      -0.520910       -14.1747 
  41   2.0000      -0.485509       -13.2114 
  42   2.0000      -0.476210       -12.9583 
  43   2.0000      -0.466803       -12.7023 
  44   2.0000      -0.457474       -12.4485 
  45   2.0000      -0.366410        -9.9705 
  46   2.0000      -0.353922        -9.6307 
  47   0.0000       0.072251         1.9661 
  48   0.0000       0.121992         3.3196 
  49   0.0000       0.156002         4.2450 
  50   0.0000       0.212772         5.7898 
  51   0.0000       0.216467         5.8904 
  52   0.0000       0.228241         6.2108 
  53   0.0000       0.250844         6.8258 
  54   0.0000       0.279655         7.6098 
  55   0.0000       0.289959         7.8902 
  56   0.0000       0.307917         8.3788 
  57   0.0000       0.314700         8.5634 
  58   0.0000       0.325030         8.8445 
  59   0.0000       0.341830         9.3017 
  60   0.0000       0.366032         9.9602 
  61   0.0000       0.401098        10.9144 
  62   0.0000       0.410223        11.1627 
  63   0.0000       0.417532        11.3616 
  64   0.0000       0.448170        12.1953 
  65   0.0000       0.465409        12.6644 
  66   0.0000       0.494333        13.4515 
  67   0.0000       0.497879        13.5480 
  68   0.0000       0.529759        14.4155 
  69   0.0000       0.568223        15.4621 
  70   0.0000       0.586309        15.9543 
  71   0.0000       0.707657        19.2563 
  72   0.0000       0.711331        19.3563 
  73   0.0000       0.733324        19.9548 
  74   0.0000       0.741478        20.1767 
  75   0.0000       0.749653        20.3991 
  76   0.0000       0.762391        20.7457 
  77   0.0000       0.779953        21.2236 
  78   0.0000       0.802506        21.8373 
  79   0.0000       0.809204        22.0196 
  80   0.0000       0.811343        22.0778 
  81   0.0000       0.829251        22.5651 
  82   0.0000       0.845000        22.9936 
  83   0.0000       0.852685        23.2027 
  84   0.0000       0.858018        23.3479 
  85   0.0000       0.865893        23.5621 
  86   0.0000       0.870914        23.6988 
  87   0.0000       0.889593        24.2070 
  88   0.0000       0.922184        25.0939 
  89   0.0000       0.928475        25.2651 
  90   0.0000       0.951633        25.8953 
  91   0.0000       0.966396        26.2970 
  92   0.0000       0.990444        26.9513 
  93   0.0000       1.029679        28.0190 
  94   0.0000       1.040425        28.3114 
  95   0.0000       1.079983        29.3878 
  96   0.0000       1.098941        29.9037 
  97   0.0000       1.116041        30.3690 
  98   0.0000       1.117687        30.4138 
  99   0.0000       1.144573        31.1454 
 100   0.0000       1.149850        31.2890 
 101   0.0000       1.168315        31.7915 
 102   0.0000       1.194892        32.5147 
 103   0.0000       1.205071        32.7916 
 104   0.0000       1.216938        33.1146 
 105   0.0000       1.220973        33.2244 
 106   0.0000       1.230816        33.4922 
 107   0.0000       1.249180        33.9919 
 108   0.0000       1.254577        34.1388 
 109   0.0000       1.269332        34.5403 
 110   0.0000       1.275231        34.7008 
 111   0.0000       1.288220        35.0542 
 112   0.0000       1.327625        36.1265 
 113   0.0000       1.337741        36.4018 
 114   0.0000       1.366771        37.1917 
 115   0.0000       1.371842        37.3297 
 116   0.0000       1.397766        38.0351 
 117   0.0000       1.443902        39.2906 
 118   0.0000       1.470746        40.0210 
 119   0.0000       1.481791        40.3216 
 120   0.0000       1.509877        41.0859 
 121   0.0000       1.555205        42.3193 
 122   0.0000       1.578366        42.9495 
 123   0.0000       1.687324        45.9144 
 124   0.0000       1.707110        46.4528 
 125   0.0000       1.740927        47.3730 
 126   0.0000       1.758018        47.8381 
 127   0.0000       1.858311        50.5672 
 128   0.0000       2.061446        56.0948 
 129   0.0000       2.090369        56.8818 
 130   0.0000       2.199585        59.8538 
 131   0.0000       2.379038        64.7369 
 132   0.0000       2.416072        65.7446 

                    ********************************
                    * MULLIKEN POPULATION ANALYSIS *
                    ********************************

-----------------------
MULLIKEN ATOMIC CHARGES
-----------------------
   0 C :   -0.157181
   1 C :   -0.195646
   2 C :   -0.214378
   3 C :   -0.166688
   4 C :   -0.518815
   5 C :   -0.121954
   6 C :    0.383984
   7 O :   -0.560419
   8 O :   -0.540445
   9 O :   -0.719330
  10 C :    0.780312
  11 C :    0.747627
  12 O :   -0.729369
  13 H :    0.444943
  14 H :    0.272050
  15 H :    0.231435
  16 H :    0.218581
  17 H :    0.224355
  18 H :    0.217248
  19 H :    0.202352
  20 H :    0.201340
Sum of atomic charges:   -0.0000000

--------------------------------
MULLIKEN REDUCED ORBITAL CHARGES
--------------------------------
  0 C s       :     3.176830  s :     3.176830
      pz      :     0.943420  p :     2.980350
      px      :     0.956334
      py      :     1.080596
  1 C s       :     3.170103  s :     3.170103
      pz      :     1.044781  p :     3.025543
      px      :     0.973948
      py      :     1.006814
  2 C s       :     3.184500  s :     3.184500
      pz      :     1.009928  p :     3.029879
      px      :     1.117026
      py      :     0.902924
  3 C s       :     3.185071  s :     3.185071
      pz      :     0.941665  p :     2.981617
      px      :     0.962616
      py      :     1.077336
  4 C s       :     3.387567  s :     3.387567
      pz      :     1.116802  p :     3.131248
      px      :     0.873058
      py      :     1.141388
  5 C s       :     3.134406  s :     3.134406
      pz      :     1.083968  p :     2.987548
      px      :     0.979905
      py      :     0.923674
  6 C s       :     3.114410  s :     3.114410
      pz      :     0.937154  p :     2.501607
      px      :     0.566859
      py      :     0.997594
  7 O s       :     3.960327  s :     3.960327
      pz      :     1.454448  p :     4.600092
      px      :     1.683809
      py      :     1.461835
  8 O s       :     3.971383  s :     3.971383
      pz      :     1.354322  p :     4.569061
      px      :     1.779194
      py      :     1.435545
  9 O s       :     3.950326  s :     3.950326
      pz      :     1.829351  p :     4.769004
      px      :     1.419513
      py      :     1.520141
 10 C s       :     2.881799  s :     2.881799
      pz      :     0.712025  p :     2.337890
      px      :     0.684521
      py      :     0.941344
 11 C s       :     2.994264  s :     2.994264
      pz      :     0.667445  p :     2.258109
      px      :     0.906402
      py      :     0.684262
 12 O s       :     3.988182  s :     3.988182
      pz      :     1.589824  p :     4.741187
      px      :     1.320649
      py      :     1.830714
 13 H s       :     0.555057  s :     0.555057
 14 H s       :     0.727950  s :     0.727950
 15 H s       :     0.768565  s :     0.768565
 16 H s       :     0.781419  s :     0.781419
 17 H s       :     0.775645  s :     0.775645
 18 H s       :     0.782752  s :     0.782752
 19 H s       :     0.797648  s :     0.797648
 20 H s       :     0.798660  s :     0.798660


                     *******************************
                     * LOEWDIN POPULATION ANALYSIS *
                     *******************************

----------------------
LOEWDIN ATOMIC CHARGES
----------------------
   0 C :   -0.054514
   1 C :   -0.136336
   2 C :   -0.134021
   3 C :   -0.076994
   4 C :   -0.337603
   5 C :   -0.117884
   6 C :    0.182085
   7 O :   -0.376488
   8 O :   -0.347173
   9 O :   -0.386571
  10 C :    0.371354
  11 C :    0.385224
  12 O :   -0.300000
  13 H :    0.329786
  14 H :    0.156654
  15 H :    0.141748
  16 H :    0.132793
  17 H :    0.135179
  18 H :    0.151544
  19 H :    0.137170
  20 H :    0.144048

-------------------------------
LOEWDIN REDUCED ORBITAL CHARGES
-------------------------------
  0 C s       :     2.941468  s :     2.941468
      pz      :     0.950878  p :     3.113047
      px      :     1.065767
      py      :     1.096401
  1 C s       :     2.941337  s :     2.941337
      pz      :     1.040408  p :     3.194999
      px      :     1.081244
      py      :     1.073347
  2 C s       :     2.938109  s :     2.938109
      pz      :     1.026353  p :     3.195913
      px      :     1.104871
      py      :     1.064688
  3 C s       :     2.943483  s :     2.943483
      pz      :     0.959786  p :     3.133510
      px      :     1.082055
      py      :     1.091670
  4 C s       :     2.994560  s :     2.994560
      pz      :     1.149766  p :     3.343043
      px      :     1.035804
      py      :     1.157474
  5 C s       :     2.907601  s :     2.907601
      pz      :     1.085609  p :     3.210283
      px      :     1.082139
      py      :     1.042535
  6 C s       :     2.889287  s :     2.889287
      pz      :     0.975115  p :     2.928628
      px      :     0.859000
      py      :     1.094514
  7 O s       :     3.624193  s :     3.624193
      pz      :     1.471813  p :     4.752295
      px      :     1.738196
      py      :     1.542285
  8 O s       :     3.632860  s :     3.632860
      pz      :     1.452965  p :     4.714313
      px      :     1.820827
      py      :     1.440521
  9 O s       :     3.578250  s :     3.578250
      pz      :     1.822290  p :     4.808321
      px      :     1.457280
      py      :     1.528751
 10 C s       :     2.886862  s :     2.886862
      pz      :     0.779670  p :     2.741784
      px      :     0.915017
      py      :     1.047097
 11 C s       :     2.911540  s :     2.911540
      pz      :     0.954945  p :     2.703236
      px      :     1.017185
      py      :     0.731105
 12 O s       :     3.541006  s :     3.541006
      pz      :     1.608740  p :     4.758994
      px      :     1.325913
      py      :     1.824341
 13 H s       :     0.670214  s :     0.670214
 14 H s       :     0.843346  s :     0.843346
 15 H s       :     0.858252  s :     0.858252
 16 H s       :     0.867207  s :     0.867207
 17 H s       :     0.864821  s :     0.864821
 18 H s       :     0.848456  s :     0.848456
 19 H s       :     0.862830  s :     0.862830
 20 H s       :     0.855952  s :     0.855952


                      *****************************
                      * MAYER POPULATION ANALYSIS *
                      *****************************

  NA   - Mulliken gross atomic population
  ZA   - Total nuclear charge
  QA   - Mulliken gross atomic charge
  VA   - Mayer's total valence
  BVA  - Mayer's bonded valence
  FA   - Mayer's free valence

  ATOM       NA         ZA         QA         VA         BVA        FA
  0 C      6.1572     6.0000    -0.1572     3.8395     3.8395    -0.0000
  1 C      6.1956     6.0000    -0.1956     3.8275     3.8275    -0.0000
  2 C      6.2144     6.0000    -0.2144     3.8409     3.8409    -0.0000
  3 C      6.1667     6.0000    -0.1667     3.8366     3.8366    -0.0000
  4 C      6.5188     6.0000    -0.5188     3.6696     3.6696    -0.0000
  5 C      6.1220     6.0000    -0.1220     3.6896     3.6896    -0.0000
  6 C      5.6160     6.0000     0.3840     3.6224     3.6224    -0.0000
  7 O      8.5604     8.0000    -0.5604     1.8566     1.8566    -0.0000
  8 O      8.5404     8.0000    -0.5404     1.8604     1.8604     0.0000
  9 O      8.7193     8.0000    -0.7193     1.6237     1.6237    -0.0000
 10 C      5.2197     6.0000     0.7803     3.6862     3.6862    -0.0000
 11 C      5.2524     6.0000     0.7476     3.5242     3.5242    -0.0000
 12 O      8.7294     8.0000    -0.7294     1.5181     1.5181    -0.0000
 13 H      0.5551     1.0000     0.4449     0.7895     0.7895    -0.0000
 14 H      0.7280     1.0000     0.2720     0.9093     0.9093    -0.0000
 15 H      0.7686     1.0000     0.2314     0.9229     0.9229    -0.0000
 16 H      0.7814     1.0000     0.2186     0.9290     0.9290    -0.0000
 17 H      0.7756     1.0000     0.2244     0.9255     0.9255    -0.0000
 18 H      0.7828     1.0000     0.2172     0.9211     0.9211     0.0000
 19 H      0.7976     1.0000     0.2024     0.9242     0.9242     0.0000
 20 H      0.7987     1.0000     0.2013     0.9247     0.9247    -0.0000

  Mayer bond orders larger than 0.1
B(  0-C ,  2-C ) :   1.4536 B(  0-C ,  5-C ) :   1.3857 B(  0-C , 14-H ) :   0.9082 
B(  1-C ,  3-C ) :   1.4313 B(  1-C ,  6-C ) :   1.4288 B(  1-C , 15-H ) :   0.9290 
B(  2-C ,  3-C ) :   1.4287 B(  2-C , 16-H ) :   0.9365 B(  3-C , 17-H ) :   0.9320 
B(  4-C , 11-C ) :   0.9033 B(  4-C , 18-H ) :   0.9316 B(  4-C , 19-H ) :   0.9452 
B(  4-C , 20-H ) :   0.9357 B(  5-C ,  6-C ) :   1.3647 B(  5-C , 10-C ) :   0.9629 
B(  6-C , 12-O ) :   0.7287 B(  7-O , 10-C ) :   1.8021 B(  8-O , 11-C ) :   1.8184 
B(  9-O , 10-C ) :   0.8924 B(  9-O , 13-H ) :   0.7556 B( 11-C , 12-O ) :   0.8148 


-------
TIMINGS
-------

Total SCF time: 0 days 0 hours 1 min 47 sec 

Total time                  ....     107.240 sec
Sum of individual times     ....     110.848 sec  (103.4%)

Fock matrix formation       ....     106.991 sec  ( 99.8%)
Diagonalization             ....       0.094 sec  (  0.1%)
Density matrix formation    ....       0.014 sec  (  0.0%)
Population analysis         ....       0.022 sec  (  0.0%)
Initial guess               ....       2.458 sec  (  2.3%)
Orbital Transformation      ....       0.000 sec  (  0.0%)
Orbital Orthonormalization  ....       0.000 sec  (  0.0%)
DIIS solution               ....       0.021 sec  (  0.0%)
SOSCF solution              ....       0.071 sec  (  0.1%)

-------------------------   --------------------
FINAL SINGLE POINT ENERGY      -644.661203607685
-------------------------   --------------------

------------------------------------------------------------------------------
                         ORCA SCF GRADIENT CALCULATION
------------------------------------------------------------------------------

Gradient of the Hartree-Fock SCF energy:
Hartree-Fock type                ... RHF
Number of operators              ...    1
Number of atoms                  ...   21
Basis set dimensions             ...  133
Integral neglect threshold       ... 2.5e-11
Integral primitive cutoff        ... 2.5e-12

Nuclear repulsion gradient       ... done
One Electron Gradient            ... done
Pre-screening matrix             ... done
Starting the two electron gradient:
Two electron gradient done

------------------
CARTESIAN GRADIENT
------------------

   1   C   :   -0.007514380   -0.007269578    0.000923109
   2   C   :    0.000244260    0.004172226   -0.002668060
   3   C   :   -0.001351554    0.006517671   -0.002730534
   4   C   :    0.001143659    0.000235285    0.000213949
   5   C   :    0.007993537   -0.001820939   -0.010073966
   6   C   :   -0.007207274    0.001022978   -0.001367696
   7   C   :   -0.024791922   -0.007384347    0.018824829
   8   O   :    0.000097476   -0.005366916    0.002110187
   9   O   :   -0.004261965    0.010840532    0.038609159
  10   O   :    0.001762174    0.038418991   -0.015735891
  11   C   :   -0.013183852   -0.020216369    0.003736599
  12   C   :    0.031108653   -0.000417432   -0.009019451
  13   O   :   -0.011240887   -0.012079809   -0.042604266
  14   H   :    0.013073720   -0.020750848    0.011070238
  15   H   :    0.010943652   -0.008201842    0.005167896
  16   H   :   -0.002319013    0.011355291   -0.004363533
  17   H   :    0.011343102    0.001399496    0.001932670
  18   H   :    0.006037724    0.009096484   -0.001734600
  19   H   :   -0.003308336   -0.009447966    0.001899932
  20   H   :   -0.007004898    0.001288840    0.008012949
  21   H   :   -0.001563875    0.008608254   -0.002203517

Norm of the cartesian gradient     ...    0.101007098
RMS gradient                       ...    0.012725698
MAX gradient                       ...    0.042604266

-------
TIMINGS
-------

Total SCF gradient time            ...       61.117 sec

One electron gradient       ....       0.463 sec  (  0.8%)
Prescreening matrices       ....       0.104 sec  (  0.2%)
Two electron gradient       ....      59.690 sec  ( 97.7%)
------------------------------------------------------------------------------
                         ORCA GEOMETRY RELAXATION STEP
------------------------------------------------------------------------------

Reading the OPT-File                    .... done
Getting information on internals        .... done
Copying old internal coords+grads       .... done
Making the new internal coordinates     .... (new redundants).... done
Validating the new internal coordinates .... (new redundants).... done
Calculating the B-matrix                .... done
Calculating the G,G- and P matrices     .... done
Transforming gradient to internals      .... done
Projecting the internal gradient        .... done
Number of atoms                         ....  21
Number of internal coordinates          ....  93
Current Energy                          ....  -644.661203608 Eh
Current gradient norm                   ....     0.101007098 Eh/bohr
Maximum allowed component of the step   ....  0.300
Current trust radius                    ....  0.300
Evaluating the initial hessian          ....  (Almloef) done
Projecting the Hessian                  .... done
Forming the augmented Hessian           .... done
Diagonalizing the augmented Hessian     .... done
Last element of RFO vector              ....  0.965328159
Lowest eigenvalues of augmented Hessian:
 -0.020516208  0.012933006  0.013448467  0.015493179  0.019311890
Length of the computed step             ....  0.270415146
The final length of the internal step   ....  0.270415146
Converting the step to cartesian space:
 Initial RMS(Int)=    0.0280407444
Transforming coordinates:
 Iter   0:  RMS(Cart)=    0.1401902722 RMS(Int)=    1.4499551129
 Iter   1:  RMS(Cart)=    0.0118643415 RMS(Int)=    0.0047881607
 Iter   2:  RMS(Cart)=    0.0012455258 RMS(Int)=    0.0003533027
 Iter   3:  RMS(Cart)=    0.0002133886 RMS(Int)=    0.0000832932
 Iter   4:  RMS(Cart)=    0.0000234357 RMS(Int)=    0.0000080292
 Iter   5:  RMS(Cart)=    0.0000036547 RMS(Int)=    0.0000015523
 Iter   6:  RMS(Cart)=    0.0000004260 RMS(Int)=    0.0000001678
 Iter   7:  RMS(Cart)=    0.0000000638 RMS(Int)=    0.0000000298
done
Storing new coordinates                 .... done

                                .--------------------.
          ----------------------|Geometry convergence|---------------------
          Item                value                 Tolerance   Converged
          -----------------------------------------------------------------
          RMS gradient        0.01007932            0.00010000      NO
          MAX gradient        0.05220430            0.00030000      NO
          RMS step            0.02804074            0.00200000      NO
          MAX step            0.12093482            0.00400000      NO
          ....................................................
          Max(Bonds)      0.0204      Max(Angles)    6.93
          Max(Dihed)        4.83      Max(Improp)    0.00
          -----------------------------------------------------------------

The optimization has not yet converged - more geometry cycles are needed


    ---------------------------------------------------------------------------
                         Redundant Internal Coordinates
                            (Angstroem and degrees)

        Definition                    Value    dE/dq     Step     New-Value
    ----------------------------------------------------------------------------
     1. B(C   2,C   0)                1.3983  0.017206 -0.0145    1.3838   
     2. B(C   3,C   2)                1.3933  0.007463 -0.0061    1.3871   
     3. B(C   3,C   1)                1.3936  0.009402 -0.0078    1.3858   
     4. B(C   5,C   0)                1.4051  0.011591 -0.0100    1.3951   
     5. B(C   6,C   5)                1.4013  0.009732 -0.0084    1.3930   
     6. B(C   6,C   1)                1.4006  0.019873 -0.0170    1.3836   
     7. B(C  10,C   5)                1.4850  0.006504 -0.0075    1.4775   
     8. B(C  10,O   9)                1.3438 -0.014514  0.0112    1.3551   
     9. B(C  10,O   7)                1.2189  0.005096 -0.0025    1.2164   
    10. B(C  11,O   8)                1.2241  0.036689 -0.0185    1.2056   
    11. B(C  11,C   4)                1.4993  0.004453 -0.0054    1.4939   
    12. B(O  12,C  11)                1.3900  0.010509 -0.0096    1.3804   
    13. B(O  12,C   6)                1.3969 -0.008123  0.0076    1.4045   
    14. B(H  13,O   9)                0.9806  0.019335 -0.0204    0.9603   
    15. B(H  14,C   0)                1.0893  0.013853 -0.0192    1.0701   
    16. B(H  15,C   1)                1.0865  0.011708 -0.0161    1.0704   
    17. B(H  16,C   2)                1.0875  0.011570 -0.0159    1.0715   
    18. B(H  17,C   3)                1.0871  0.011025 -0.0152    1.0720   
    19. B(H  18,C   4)                1.0929  0.008812 -0.0124    1.0805   
    20. B(H  19,C   4)                1.0945  0.010647 -0.0150    1.0795   
    21. B(H  20,C   4)                1.0924  0.007667 -0.0107    1.0817   
    22. A(C   5,C   0,H  14)          120.20  0.005688   -0.86    119.33   
    23. A(C   2,C   0,C   5)          120.83 -0.001756    0.24    121.08   
    24. A(C   2,C   0,H  14)          118.97 -0.003933    0.62    119.59   
    25. A(C   3,C   1,C   6)          119.91 -0.000700    0.10    120.00   
    26. A(C   6,C   1,H  15)          120.26  0.004490   -0.68    119.58   
    27. A(C   3,C   1,H  15)          119.83 -0.003795    0.59    120.42   
    28. A(C   3,C   2,H  16)          120.06 -0.002146    0.29    120.36   
    29. A(C   0,C   2,H  16)          119.86 -0.000713    0.07    119.94   
    30. A(C   0,C   2,C   3)          120.08  0.002859   -0.37    119.71   
    31. A(C   1,C   3,H  17)          120.06  0.001125   -0.17    119.89   
    32. A(C   1,C   3,C   2)          119.90 -0.000635    0.10    119.99   
    33. A(C   2,C   3,H  17)          120.04 -0.000491    0.08    120.12   
    34. A(H  18,C   4,H  20)          110.68  0.003733   -1.25    109.43   
    35. A(C  11,C   4,H  20)          109.85 -0.001083    0.04    109.89   
    36. A(H  18,C   4,H  19)          108.47 -0.002709    0.80    109.27   
    37. A(C  11,C   4,H  19)          109.30  0.000146    0.23    109.53   
    38. A(H  19,C   4,H  20)          108.62 -0.001414    0.54    109.16   
    39. A(C  11,C   4,H  18)          109.89  0.001246   -0.33    109.55   
    40. A(C   0,C   5,C  10)          116.52  0.002660   -0.35    116.17   
    41. A(C   0,C   5,C   6)          118.30 -0.000407    0.05    118.35   
    42. A(C   6,C   5,C  10)          125.18 -0.002259    0.31    125.49   
    43. A(C   5,C   6,O  12)          122.70  0.001967   -0.26    122.44   
    44. A(C   1,C   6,O  12)          116.28 -0.002568    0.33    116.61   
    45. A(C   1,C   6,C   5)          120.97  0.000620   -0.10    120.88   
    46. A(C  10,O   9,H  13)          103.14 -0.034679    5.09    108.24   
    47. A(O   7,C  10,O   9)          120.00  0.001934   -0.25    119.74   
    48. A(C   5,C  10,O   9)          114.98 -0.010108    1.31    116.29   
    49. A(C   5,C  10,O   7)          125.02  0.008156   -1.03    123.99   
    50. A(C   4,C  11,O  12)          108.76 -0.013704    1.77    110.53   
    51. A(C   4,C  11,O   8)          124.34 -0.012506    1.45    125.79   
    52. A(O   8,C  11,O  12)          126.89  0.026209   -3.22    123.67   
    53. A(C   6,O  12,C  11)          112.52 -0.052204    6.93    119.45   
    54. D(C   3,C   2,C   0,H  14)    179.67 -0.000481    0.60    180.27   
    55. D(H  16,C   2,C   0,C   5)    179.89  0.000072   -0.09    179.81   
    56. D(H  16,C   2,C   0,H  14)     -0.25 -0.000302    0.38      0.13   
    57. D(C   3,C   2,C   0,C   5)     -0.19 -0.000108    0.13     -0.05   
    58. D(H  17,C   3,C   1,C   6)   -179.36  0.000400   -0.50   -179.87   
    59. D(C   1,C   3,C   2,H  16)   -179.75  0.000066   -0.07   -179.83   
    60. D(C   2,C   3,C   1,C   6)      0.49  0.000137   -0.20      0.29   
    61. D(H  17,C   3,C   2,H  16)      0.10 -0.000193    0.23      0.32   
    62. D(H  17,C   3,C   2,C   0)   -179.83 -0.000014    0.01   -179.82   
    63. D(C   2,C   3,C   1,H  15)   -179.98 -0.000519    0.62   -179.37   
    64. D(H  17,C   3,C   1,H  15)      0.17 -0.000257    0.31      0.48   
    65. D(C   1,C   3,C   2,C   0)      0.33  0.000245   -0.29      0.03   
    66. D(C   6,C   5,C   0,H  14)    179.39 -0.000063    0.05    179.44   
    67. D(C  10,C   5,C   0,C   2)    178.84 -0.001255    1.61    180.44   
    68. D(C   6,C   5,C   0,C   2)     -0.76 -0.000456    0.52     -0.24   
    69. D(C  10,C   5,C   0,H  14)     -1.02 -0.000863    1.13      0.12   
    70. D(O  12,C   6,C   5,C  10)     -0.66  0.002113   -2.80     -3.46   
    71. D(C   1,C   6,C   5,C  10)   -177.97  0.001701   -2.21   -180.18   
    72. D(C   1,C   6,C   5,C   0)      1.58  0.000849   -1.02      0.56   
    73. D(O  12,C   6,C   1,H  15)      1.53 -0.000522    0.62      2.15   
    74. D(O  12,C   6,C   1,C   3)   -178.95 -0.001221    1.45   -177.50   
    75. D(O  12,C   6,C   5,C   0)    178.90  0.001261   -1.62    177.28   
    76. D(C   5,C   6,C   1,H  15)    179.01 -0.000024    0.05    179.06   
    77. D(C   5,C   6,C   1,C   3)     -1.47 -0.000723    0.88     -0.59   
    78. D(O   7,C  10,O   9,H  13)      0.59  0.000876   -1.24     -0.65   
    79. D(C   5,C  10,O   9,H  13)    179.86 -0.000581    0.92    180.78   
    80. D(O   9,C  10,C   5,C   6)      3.28  0.001760   -2.91      0.38   
    81. D(O   9,C  10,C   5,C   0)   -176.28  0.002610   -4.08   -180.36   
    82. D(O   7,C  10,C   5,C   6)   -177.48  0.000158   -0.62   -178.10   
    83. D(O   7,C  10,C   5,C   0)      2.95  0.001008   -1.79      1.17   
    84. D(O   8,C  11,C   4,H  18)   -120.55  0.002374   -0.78   -121.33   
    85. D(O  12,C  11,C   4,H  20)    -62.12 -0.002431    0.95    -61.17   
    86. D(O  12,C  11,C   4,H  19)    178.80 -0.000141    0.12    178.92   
    87. D(O  12,C  11,C   4,H  18)     59.88  0.002331   -0.80     59.08   
    88. D(O   8,C  11,C   4,H  20)    117.45 -0.002388    0.97    118.42   
    89. D(O   8,C  11,C   4,H  19)     -1.63 -0.000098    0.14     -1.49   
    90. D(C   6,O  12,C  11,O   8)      2.85  0.000433   -0.48      2.37   
    91. D(C   6,O  12,C  11,C   4)   -177.59  0.000261   -0.44   -178.03   
    92. D(C  11,O  12,C   6,C   5)     86.32  0.003099   -4.26     82.07   
    93. D(C  11,O  12,C   6,C   1)    -96.24  0.003566   -4.83   -101.08   
    ----------------------------------------------------------------------------

         *************************************************************
         *                GEOMETRY OPTIMIZATION CYCLE   2            *
         *************************************************************
---------------------------------
CARTESIAN COORDINATES (ANGSTROEM)
---------------------------------
  C      2.088196   -0.171048    0.327419
  C      0.729423    2.057271   -0.587508
  C      2.784134    0.993667    0.055340
  C      2.101951    2.110746   -0.403839
  C     -3.637354    0.998003   -0.022204
  C      0.706471   -0.242793    0.148732
  C      0.038851    0.891540   -0.307240
  O      0.678516   -2.499240    0.909576
  O     -1.892023    1.258189    1.614299
  O     -1.270462   -1.605090    0.315891
  C      0.072606   -1.535272    0.481618
  C     -2.229473    1.070109    0.472307
  O     -1.340847    0.898956   -0.570093
  H     -1.560014   -2.483176    0.575187
  H      2.615735   -1.030399    0.685674
  H      0.197544    2.912051   -0.951209
  H      3.844954    1.029381    0.202066
  H      2.634873    3.015496   -0.619503
  H     -3.807440    0.039255   -0.490628
  H     -4.317761    1.114693    0.807691
  H     -3.815703    1.786339   -0.741057

----------------------------
CARTESIAN COORDINATES (A.U.)
----------------------------
  NO LB      ZA    FRAG    MASS        X           Y           Z
   0 C     6.0000    0    12.011    3.946119   -0.323234    0.618733
   1 C     6.0000    0    12.011    1.378409    3.887679   -1.110230
   2 C     6.0000    0    12.011    5.261252    1.877758    0.104577
   3 C     6.0000    0    12.011    3.972113    3.988732   -0.763145
   4 C     6.0000    0    12.011   -6.873603    1.885953   -0.041959
   5 C     6.0000    0    12.011    1.335038   -0.458812    0.281063
   6 C     6.0000    0    12.011    0.073419    1.684766   -0.580599
   7 O     8.0000    0    15.999    1.282209   -4.722878    1.718849
   8 O     8.0000    0    15.999   -3.575404    2.377632    3.050582
   9 O     8.0000    0    15.999   -2.400824   -3.033181    0.596947
  10 C     6.0000    0    12.011    0.137206   -2.901243    0.910127
  11 C     6.0000    0    12.011   -4.213094    2.022213    0.892532
  12 O     8.0000    0    15.999   -2.533833    1.698781   -1.077320
  13 H     1.0000    0     1.008   -2.947999   -4.692522    1.086947
  14 H     1.0000    0     1.008    4.943023   -1.947172    1.295736
  15 H     1.0000    0     1.008    0.373304    5.502979   -1.797525
  16 H     1.0000    0     1.008    7.265910    1.945249    0.381850
  17 H     1.0000    0     1.008    4.979189    5.698461   -1.170691
  18 H     1.0000    0     1.008   -7.195019    0.074181   -0.927152
  19 H     1.0000    0     1.008   -8.159385    2.106465    1.526315
  20 H     1.0000    0     1.008   -7.210634    3.375691   -1.400394

--------------------------------
INTERNAL COORDINATES (ANGSTROEM)
--------------------------------
 C      0   0   0   0.000000     0.000     0.000
 C      1   0   0   2.765640     0.000     0.000
 C      1   2   0   1.383806    60.257     0.000
 C      2   1   3   1.385795    60.043     0.000
 C      2   1   3   4.528836   104.121   190.706
 C      1   2   3   1.395077    60.821   179.963
 C      2   1   3   1.383607    59.958   180.319
 O      6   1   2   2.381432    91.113   180.893
 O      5   2   1   2.406661    50.233    63.029
 O      8   6   1   2.224967    62.887   180.114
 C      8   6   1   1.216350    30.966   181.043
 C      9   5   2   1.205567    30.233   340.366
 O     12   9   5   1.380416   123.674   179.539
 H     10   8   6   0.960265    79.898   180.271
 H      1   2   3   1.070106   179.710    58.477
 H      2   1   3   1.070431   179.269   129.502
 H      3   1   2   1.071514   119.936   179.844
 H      4   2   1   1.071955   119.887   179.831
 H      5   2   1   1.080532   107.770   308.004
 H      5   2   1   1.079488   132.721    88.143
 H      5   2   1   1.081680    84.581   199.314

---------------------------
INTERNAL COORDINATES (A.U.)
---------------------------
 C      0   0   0   0.000000     0.000     0.000
 C      1   0   0   5.226302     0.000     0.000
 C      1   2   0   2.615014    60.257     0.000
 C      2   1   3   2.618774    60.043     0.000
 C      2   1   3   8.558260   104.121   190.706
 C      1   2   3   2.636313    60.821   179.963
 C      2   1   3   2.614639    59.958   180.319
 O      6   1   2   4.500254    91.113   180.893
 O      5   2   1   4.547931    50.233    63.029
 O      8   6   1   4.204578    62.887   180.114
 C      8   6   1   2.298569    30.966   181.043
 C      9   5   2   2.278191    30.233   340.366
 O     12   9   5   2.608608   123.674   179.539
 H     10   8   6   1.814638    79.898   180.271
 H      1   2   3   2.022208   179.710    58.477
 H      2   1   3   2.022821   179.269   129.502
 H      3   1   2   2.024868   119.936   179.844
 H      4   2   1   2.025702   119.887   179.831
 H      5   2   1   2.041909   107.770   308.004
 H      5   2   1   2.039937   132.721    88.143
 H      5   2   1   2.044078    84.581   199.314


Diagonalization of the overlap matrix:
Smallest eigenvalue                        ... 4.956e-04
Time for diagonalization                   ...    0.010 sec
Time for construction of square roots      ...    0.003 sec
Total time needed                          ...    0.013 sec

--------------
SCF ITERATIONS
--------------
ITER       Energy         Delta-E        Max-DP      RMS-DP      [F,P]     Damp
               ***  Starting incremental Fock matrix formation  ***
  0   -644.6384732397   0.000000000000 0.00987287  0.00052060  0.0816525 0.7000
  1   -644.6459559498  -0.007482710051 0.00937297  0.00046538  0.0675683 0.7000
                               ***Turning on DIIS***
  2   -644.6523242087  -0.006368258932 0.02586166  0.00123577  0.0545138 0.0000
  3   -644.6373533019   0.014970906766 0.01140741  0.00049177  0.0189099 0.0000
  4   -644.6758776994  -0.038524397495 0.00416419  0.00019423  0.0047159 0.0000
                      *** Initiating the SOSCF procedure ***
                           *** Shutting down DIIS ***
                      *** Re-Reading the Fockian *** 
                      *** Removing any level shift *** 
ITER      Energy       Delta-E        Grad      Rot      Max-DP    RMS-DP
  5   -644.67503650   0.0008411965  0.001632  0.001632  0.002175  0.000094
               *** Restarting incremental Fock matrix formation ***
  6   -644.67376270   0.0012737980  0.000603  0.001121  0.000964  0.000043
  7   -644.67377539  -0.0000126810  0.000345  0.001671  0.001513  0.000060
  8   -644.67378112  -0.0000057375  0.000130  0.000148  0.000321  0.000015
  9   -644.67378185  -0.0000007305  0.000030  0.000053  0.000132  0.000005
 10   -644.67378193  -0.0000000805  0.000022  0.000077  0.000092  0.000003
 11   -644.67378196  -0.0000000248  0.000007  0.000026  0.000022  0.000001
 12   -644.67378196  -0.0000000024  0.000003  0.000007  0.000010  0.000000
                  ***Gradient check signals convergence***
              ***Rediagonalizing the Fockian in SOSCF/NRSCF***

               *****************************************************
               *                     SUCCESS                       *
               *           SCF CONVERGED AFTER  13 CYCLES          *
               *****************************************************

Total Energy       :         -644.67378196 Eh          -17542.46545 eV
  Last Energy change         ...    1.2983e-10  Tolerance :   1.0000e-08
  Last MAX-Density change    ...    3.2913e-06  Tolerance :   1.0000e-07
             **** THE GBW FILE WAS UPDATED (hf.gbw) ****
             **** DENSITY FILE WAS UPDATED (hf.scfp.tmp) ****
             **** ENERGY FILE WAS UPDATED (hf.en.tmp) ****
Total SCF time: 0 days 0 hours 1 min 43 sec 

-------------------------   --------------------
FINAL SINGLE POINT ENERGY      -644.673781961555
-------------------------   --------------------

------------------------------------------------------------------------------
                         ORCA SCF GRADIENT CALCULATION
------------------------------------------------------------------------------

Gradient of the Hartree-Fock SCF energy:
Hartree-Fock type                ... RHF
Number of operators              ...    1
Number of atoms                  ...   21
Basis set dimensions             ...  133
Integral neglect threshold       ... 2.5e-11
Integral primitive cutoff        ... 2.5e-12

Nuclear repulsion gradient       ... done
One Electron Gradient            ... done
Pre-screening matrix             ... done
Starting the two electron gradient:
Two electron gradient done

------------------
CARTESIAN GRADIENT
------------------

   1   C   :   -0.002904093   -0.004371602    0.000682536
   2   C   :   -0.001489172    0.000172664   -0.000125910
   3   C   :    0.000782853    0.000788510   -0.000396927
   4   C   :    0.000696239    0.001953214    0.000043041
   5   C   :   -0.000973488   -0.000738436   -0.004049435
   6   C   :    0.001005117    0.003405805   -0.000586924
   7   C   :    0.003524213   -0.001284788    0.006812644
   8   O   :   -0.000752709   -0.000587408    0.002455533
   9   O   :   -0.005172714   -0.000099678    0.004591246
  10   O   :   -0.006922827    0.010451902   -0.003430610
  11   C   :    0.002180526   -0.006618562   -0.002234748
  12   C   :    0.009901043    0.004455244    0.006128500
  13   O   :   -0.008096759   -0.005320891   -0.016526908
  14   H   :    0.005878872   -0.005214059    0.002204482
  15   H   :    0.002423550    0.001842061   -0.000011138
  16   H   :    0.002024845    0.000938347   -0.000266306
  17   H   :   -0.000118333    0.000172453    0.000027526
  18   H   :    0.000415018   -0.000490566    0.000127648
  19   H   :   -0.000903995   -0.000853948    0.002569406
  20   H   :   -0.001340611   -0.000376872   -0.000157648
  21   H   :   -0.000157577    0.001776609    0.002143994

Norm of the cartesian gradient     ...    0.032036080
RMS gradient                       ...    0.004036167
MAX gradient                       ...    0.016526908

-------
TIMINGS
-------

Total SCF gradient time            ...       57.601 sec

One electron gradient       ....       0.479 sec  (  0.8%)
Prescreening matrices       ....       0.112 sec  (  0.2%)
Two electron gradient       ....      56.149 sec  ( 97.5%)
------------------------------------------------------------------------------
                         ORCA GEOMETRY RELAXATION STEP
------------------------------------------------------------------------------

Reading the OPT-File                    .... done
Getting information on internals        .... done
Copying old internal coords+grads       .... done
Making the new internal coordinates     .... (new redundants).... done
Validating the new internal coordinates .... (new redundants).... done
Calculating the B-matrix                .... done
Calculating the G,G- and P matrices     .... done
Transforming gradient to internals      .... done
Projecting the internal gradient        .... done
Number of atoms                         ....  21
Number of internal coordinates          ....  93
Current Energy                          ....  -644.673781962 Eh
Current gradient norm                   ....     0.032036080 Eh/bohr
Maximum allowed component of the step   ....  0.300
Current trust radius                    ....  0.300
Updating the Hessian (BFGS)             .... done
Forming the augmented Hessian           .... done
Diagonalizing the augmented Hessian     .... done
Last element of RFO vector              ....  0.973669054
Lowest eigenvalues of augmented Hessian:
 -0.003255168  0.012934040  0.013403955  0.015518681  0.019913747
Length of the computed step             ....  0.234131058
The final length of the internal step   ....  0.234131058
Converting the step to cartesian space:
 Initial RMS(Int)=    0.0242782598
Transforming coordinates:
 Iter   0:  RMS(Cart)=    0.0724905865 RMS(Int)=    1.5886541176
 Iter   1:  RMS(Cart)=    0.0037184943 RMS(Int)=    0.0016303474
 Iter   2:  RMS(Cart)=    0.0002775824 RMS(Int)=    0.0001341767
 Iter   3:  RMS(Cart)=    0.0000301170 RMS(Int)=    0.0000171597
 Iter   4:  RMS(Cart)=    0.0000029923 RMS(Int)=    0.0000016801
 Iter   5:  RMS(Cart)=    0.0000002777 RMS(Int)=    0.0000002018
 Iter   6:  RMS(Cart)=    0.0000000359 RMS(Int)=    0.0000000207
done
Storing new coordinates                 .... done

                                .--------------------.
          ----------------------|Geometry convergence|---------------------
          Item                value                 Tolerance   Converged
          -----------------------------------------------------------------
          Energy change      -0.01257835            0.00000500      NO
          RMS gradient        0.00272824            0.00010000      NO
          MAX gradient        0.01328156            0.00030000      NO
          RMS step            0.02427826            0.00200000      NO
          MAX step            0.09429606            0.00400000      NO
          ....................................................
          Max(Bonds)      0.0105      Max(Angles)    2.99
          Max(Dihed)        5.40      Max(Improp)    0.00
          -----------------------------------------------------------------

The optimization has not yet converged - more geometry cycles are needed


    ---------------------------------------------------------------------------
                         Redundant Internal Coordinates
                            (Angstroem and degrees)

        Definition                    Value    dE/dq     Step     New-Value
    ----------------------------------------------------------------------------
     1. B(C   2,C   0)                1.3838  0.001326 -0.0026    1.3812   
     2. B(C   3,C   2)                1.3871 -0.000405 -0.0000    1.3871   
     3. B(C   3,C   1)                1.3858  0.000668 -0.0014    1.3844   
     4. B(C   5,C   0)                1.3951  0.000650 -0.0015    1.3935   
     5. B(C   6,C   5)                1.3930  0.000837 -0.0016    1.3913   
     6. B(C   6,C   1)                1.3836  0.002928 -0.0047    1.3789   
     7. B(C  10,C   5)                1.4775  0.001330 -0.0026    1.4749   
     8. B(C  10,O   9)                1.3551  0.000915 -0.0000    1.3550   
     9. B(C  10,O   7)                1.2164  0.000955 -0.0008    1.2155   
    10. B(C  11,O   8)                1.2056  0.002886 -0.0035    1.2021   
    11. B(C  11,C   4)                1.4939  0.003023 -0.0053    1.4887   
    12. B(O  12,C  11)                1.3804  0.008123 -0.0105    1.3699   
    13. B(O  12,C   6)                1.4045  0.007611 -0.0088    1.3957   
    14. B(H  13,O   9)                0.9603  0.003590 -0.0066    0.9537   
    15. B(H  14,C   0)                1.0701 -0.000288 -0.0009    1.0692   
    16. B(H  15,C   1)                1.0704 -0.000166 -0.0009    1.0695   
    17. B(H  16,C   2)                1.0715 -0.000108 -0.0010    1.0705   
    18. B(H  17,C   3)                1.0720 -0.000233 -0.0007    1.0713   
    19. B(H  18,C   4)                1.0805 -0.000214 -0.0005    1.0800   
    20. B(H  19,C   4)                1.0795  0.000683 -0.0024    1.0771   
    21. B(H  20,C   4)                1.0817 -0.000104 -0.0006    1.0811   
    22. A(C   5,C   0,H  14)          119.33  0.003289   -0.74    118.59   
    23. A(C   2,C   0,C   5)          121.08 -0.000467    0.11    121.19   
    24. A(C   2,C   0,H  14)          119.59 -0.002822    0.63    120.22   
    25. A(C   3,C   1,C   6)          120.00  0.000489   -0.08    119.92   
    26. A(C   6,C   1,H  15)          119.58  0.002008   -0.47    119.11   
    27. A(C   3,C   1,H  15)          120.42 -0.002496    0.55    120.97   
    28. A(C   3,C   2,H  16)          120.36 -0.000500    0.11    120.47   
    29. A(C   0,C   2,H  16)          119.94 -0.000187    0.03    119.96   
    30. A(C   0,C   2,C   3)          119.71  0.000687   -0.14    119.57   
    31. A(C   1,C   3,H  17)          119.89  0.000736   -0.17    119.72   
    32. A(C   1,C   3,C   2)          119.99 -0.000243    0.06    120.05   
    33. A(C   2,C   3,H  17)          120.12 -0.000492    0.11    120.23   
    34. A(H  18,C   4,H  20)          109.43  0.002147   -1.04    108.38   
    35. A(C  11,C   4,H  20)          109.89 -0.000791    0.08    109.97   
    36. A(H  18,C   4,H  19)          109.27 -0.001730    0.70    109.97   
    37. A(C  11,C   4,H  19)          109.53  0.000978   -0.01    109.52   
    38. A(H  19,C   4,H  20)          109.16 -0.001088    0.52    109.68   
    39. A(C  11,C   4,H  18)          109.55  0.000473   -0.23    109.32   
    40. A(C   0,C   5,C  10)          116.17 -0.000093   -0.01    116.16   
    41. A(C   0,C   5,C   6)          118.34  0.000788   -0.13    118.21   
    42. A(C   6,C   5,C  10)          125.48 -0.000694    0.14    125.63   
    43. A(C   5,C   6,O  12)          122.44  0.001708   -0.32    122.12   
    44. A(C   1,C   6,O  12)          116.61 -0.000441    0.10    116.71   
    45. A(C   1,C   6,C   5)          120.88 -0.001256    0.20    121.07   
    46. A(C  10,O   9,H  13)          108.24 -0.013282    2.99    111.23   
    47. A(O   7,C  10,O   9)          119.73 -0.000667    0.05    119.78   
    48. A(C   5,C  10,O   9)          116.28 -0.001118    0.26    116.54   
    49. A(C   5,C  10,O   7)          123.97  0.001744   -0.40    123.58   
    50. A(C   4,C  11,O  12)          110.53 -0.001501    0.38    110.91   
    51. A(C   4,C  11,O   8)          125.79 -0.006342    1.13    126.92   
    52. A(O   8,C  11,O  12)          123.67  0.007846   -1.52    122.16   
    53. A(C   6,O  12,C  11)          119.45 -0.012886    2.81    122.26   
    54. D(C   3,C   2,C   0,H  14)   -179.73 -0.000031   -0.03   -179.76   
    55. D(H  16,C   2,C   0,C   5)    179.81 -0.000013    0.05    179.85   
    56. D(H  16,C   2,C   0,H  14)      0.13 -0.000029   -0.01      0.12   
    57. D(C   3,C   2,C   0,C   5)     -0.05 -0.000016    0.03     -0.03   
    58. D(H  17,C   3,C   1,C   6)   -179.87  0.000091   -0.17   -180.04   
    59. D(C   1,C   3,C   2,H  16)   -179.83  0.000049   -0.12   -179.95   
    60. D(C   2,C   3,C   1,C   6)      0.29  0.000117   -0.28      0.01   
    61. D(H  17,C   3,C   2,H  16)      0.33  0.000074   -0.23      0.10   
    62. D(H  17,C   3,C   2,C   0)   -179.81  0.000077   -0.21   -180.02   
    63. D(C   2,C   3,C   1,H  15)   -179.36 -0.000066    0.05   -179.31   
    64. D(H  17,C   3,C   1,H  15)      0.49 -0.000092    0.16      0.64   
    65. D(C   1,C   3,C   2,C   0)      0.03  0.000052   -0.10     -0.07   
    66. D(C   6,C   5,C   0,H  14)    179.44 -0.000194    0.48    179.92   
    67. D(C  10,C   5,C   0,C   2)   -179.56 -0.000242    0.42   -179.15   
    68. D(C   6,C   5,C   0,C   2)     -0.24 -0.000190    0.42      0.19   
    69. D(C  10,C   5,C   0,H  14)      0.12 -0.000246    0.47      0.59   
    70. D(O  12,C   6,C   5,C  10)     -3.46  0.000632   -1.36     -4.82   
    71. D(C   1,C   6,C   5,C  10)    179.81  0.000413   -0.80    179.02   
    72. D(C   1,C   6,C   5,C   0)      0.56  0.000350   -0.81     -0.25   
    73. D(O  12,C   6,C   1,H  15)      2.15 -0.000430    0.95      3.10   
    74. D(O  12,C   6,C   1,C   3)   -177.50 -0.000595    1.28   -176.22   
    75. D(O  12,C   6,C   5,C   0)    177.29  0.000568   -1.37    175.92   
    76. D(C   5,C   6,C   1,H  15)    179.06 -0.000153    0.41    179.47   
    77. D(C   5,C   6,C   1,C   3)     -0.59 -0.000318    0.74      0.15   
    78. D(O   7,C  10,O   9,H  13)     -0.66 -0.001171    3.65      2.99   
    79. D(C   5,C  10,O   9,H  13)   -179.21  0.000511   -2.27   -181.48   
    80. D(O   9,C  10,C   5,C   6)      0.38 -0.000280    0.86      1.24   
    81. D(O   9,C  10,C   5,C   0)    179.65 -0.000212    0.87    180.52   
    82. D(O   7,C  10,C   5,C   6)   -178.11  0.001523   -5.40   -183.51   
    83. D(O   7,C  10,C   5,C   0)      1.16  0.001591   -5.39     -4.23   
    84. D(O   8,C  11,C   4,H  18)   -121.33  0.001376   -1.23   -122.56   
    85. D(O  12,C  11,C   4,H  20)    -61.17 -0.001508    1.78    -59.39   
    86. D(O  12,C  11,C   4,H  19)    178.92 -0.000289    1.10    180.02   
    87. D(O  12,C  11,C   4,H  18)     59.08  0.000942    0.38     59.47   
    88. D(O   8,C  11,C   4,H  20)    118.42 -0.001074    0.16    118.58   
    89. D(O   8,C  11,C   4,H  19)     -1.49  0.000145   -0.52     -2.01   
    90. D(C   6,O  12,C  11,O   8)      2.37 -0.001180    3.73      6.10   
    91. D(C   6,O  12,C  11,C   4)   -178.03 -0.000826    2.08   -175.95   
    92. D(C  11,O  12,C   6,C   5)     82.07  0.001644   -4.17     77.89   
    93. D(C  11,O  12,C   6,C   1)   -101.08  0.001825   -4.71   -105.78   
    ----------------------------------------------------------------------------

         *************************************************************
         *                GEOMETRY OPTIMIZATION CYCLE   3            *
         *************************************************************
---------------------------------
CARTESIAN COORDINATES (ANGSTROEM)
---------------------------------
  C      2.087933   -0.170242    0.310691
  C      0.750321    2.083481   -0.561102
  C      2.800042    0.977234    0.021028
  C      2.126907    2.108566   -0.416016
  C     -3.632312    0.947369   -0.046705
  C      0.701940   -0.213615    0.172606
  C      0.049037    0.932334   -0.270415
  O      0.665131   -2.486689    0.855673
  O     -1.928021    1.209169    1.637908
  O     -1.294162   -1.542098    0.389143
  C      0.052387   -1.488458    0.530752
  C     -2.247410    1.041407    0.491211
  O     -1.324480    0.955226   -0.517410
  H     -1.631445   -2.404144    0.618471
  H      2.595774   -1.047096    0.651964
  H      0.217601    2.943780   -0.907554
  H      3.864282    0.989483    0.136303
  H      2.668706    3.004325   -0.643342
  H     -3.752997    0.004843   -0.560060
  H     -4.338579    1.018080    0.763422
  H     -3.808476    1.745728   -0.754047

----------------------------
CARTESIAN COORDINATES (A.U.)
----------------------------
  NO LB      ZA    FRAG    MASS        X           Y           Z
   0 C     6.0000    0    12.011    3.945621   -0.321711    0.587122
   1 C     6.0000    0    12.011    1.417901    3.937209   -1.060330
   2 C     6.0000    0    12.011    5.291313    1.846705    0.039738
   3 C     6.0000    0    12.011    4.019271    3.984612   -0.786157
   4 C     6.0000    0    12.011   -6.864074    1.790268   -0.088260
   5 C     6.0000    0    12.011    1.326474   -0.403674    0.326178
   6 C     6.0000    0    12.011    0.092666    1.761855   -0.511011
[...]
  0   -644.67565085 -644.6756508482  0.000944  0.000944  0.001527  0.000065
               *** Restarting incremental Fock matrix formation ***
  1   -644.67569487  -0.0000440226  0.000379  0.000467  0.000791  0.000031
  2   -644.67570438  -0.0000095065  0.000167  0.000329  0.000468  0.000020
  3   -644.67570596  -0.0000015855  0.000032  0.000047  0.000082  0.000003
  4   -644.67570602  -0.0000000545  0.000017  0.000046  0.000093  0.000003
  5   -644.67570603  -0.0000000172  0.000009  0.000009  0.000028  0.000001
                  ***Gradient check signals convergence***
              ***Rediagonalizing the Fockian in SOSCF/NRSCF***

               *****************************************************
               *                     SUCCESS                       *
               *           SCF CONVERGED AFTER   6 CYCLES          *
               *****************************************************


----------------
TOTAL SCF ENERGY
----------------

Total Energy       :         -644.67570604 Eh          -17542.51781 eV

Components:
Nuclear Repulsion  :          786.62343190 Eh           21405.11180 eV
Electronic Energy  :        -1431.29913794 Eh          -38947.62960 eV

One Electron Energy:        -2442.03401570 Eh          -66451.12388 eV
Two Electron Energy:         1010.73487777 Eh           27503.49427 eV

Virial components:
Potential Energy   :        -1289.63547712 Eh          -35092.76541 eV
Kinetic Energy     :          644.95977109 Eh           17550.24761 eV
Virial Ratio       :            1.99955956


---------------
SCF CONVERGENCE
---------------

  Last Energy change         ...   -1.8354e-09  Tolerance :   1.0000e-08
  Last MAX-Density change    ...    8.8584e-06  Tolerance :   1.0000e-07
  Last RMS-Density change    ...    2.4194e-07  Tolerance :   5.0000e-09
  Last Orbital Gradient      ...    1.1037e-06  Tolerance :   1.0000e-05
  Last Orbital Rotation      ...    2.1116e-06  Tolerance :   1.0000e-05

             **** THE GBW FILE WAS UPDATED (hf.gbw) ****
             **** DENSITY FILE WAS UPDATED (hf.scfp.tmp) ****
             **** ENERGY FILE WAS UPDATED (hf.en.tmp) ****
----------------
ORBITAL ENERGIES
----------------

  NO   OCC          E(Eh)            E(eV) 
   0   2.0000     -20.624316      -561.2162 
   1   2.0000     -20.620434      -561.1105 
   2   2.0000     -20.570455      -559.7506 
   3   2.0000     -20.569021      -559.7115 
   4   2.0000     -11.423581      -310.8514 
   5   2.0000     -11.415105      -310.6208 
   6   2.0000     -11.341644      -308.6218 
   7   2.0000     -11.277544      -306.8776 
   8   2.0000     -11.268830      -306.6405 
   9   2.0000     -11.266177      -306.5683 
  10   2.0000     -11.256831      -306.3139 
  11   2.0000     -11.254330      -306.2459 
  12   2.0000     -11.245428      -306.0037 
  13   2.0000      -1.498218       -40.7686 
  14   2.0000      -1.487540       -40.4780 
  15   2.0000      -1.391611       -37.8677 
  16   2.0000      -1.382649       -37.6238 
  17   2.0000      -1.191538       -32.4234 
  18   2.0000      -1.073238       -29.2043 
  19   2.0000      -1.064582       -28.9687 
  20   2.0000      -1.022195       -27.8153 
  21   2.0000      -0.925800       -25.1923 
  22   2.0000      -0.877431       -23.8761 
  23   2.0000      -0.837293       -22.7839 
  24   2.0000      -0.804462       -21.8905 
  25   2.0000      -0.734349       -19.9827 
  26   2.0000      -0.718642       -19.5552 
  27   2.0000      -0.699506       -19.0345 
  28   2.0000      -0.693736       -18.8775 
  29   2.0000      -0.674936       -18.3659 
  30   2.0000      -0.668253       -18.1841 
  31   2.0000      -0.647860       -17.6292 
  32   2.0000      -0.636071       -17.3084 
  33   2.0000      -0.625817       -17.0293 
  34   2.0000      -0.591342       -16.0912 
  35   2.0000      -0.585447       -15.9308 
  36   2.0000      -0.576766       -15.6946 
  37   2.0000      -0.561945       -15.2913 
  38   2.0000      -0.538652       -14.6575 
  39   2.0000      -0.522391       -14.2150 
  40   2.0000      -0.519538       -14.1374 
  41   2.0000      -0.487260       -13.2590 
  42   2.0000      -0.471613       -12.8332 
  43   2.0000      -0.464034       -12.6270 
  44   2.0000      -0.454437       -12.3659 
  45   2.0000      -0.365680        -9.9507 
  46   2.0000      -0.353622        -9.6226 
  47   0.0000       0.074344         2.0230 
  48   0.0000       0.127751         3.4763 
  49   0.0000       0.169790         4.6202 
  50   0.0000       0.211670         5.7598 
  51   0.0000       0.220069         5.9884 
  52   0.0000       0.233328         6.3492 
  53   0.0000       0.256847         6.9892 
  54   0.0000       0.285272         7.7626 
  55   0.0000       0.295490         8.0407 
  56   0.0000       0.313976         8.5437 
  57   0.0000       0.320131         8.7112 
  58   0.0000       0.330892         9.0040 
  59   0.0000       0.351111         9.5542 
  60   0.0000       0.371783        10.1167 
  61   0.0000       0.406133        11.0514 
  62   0.0000       0.421114        11.4591 
  63   0.0000       0.429285        11.6814 
  64   0.0000       0.457599        12.4519 
  65   0.0000       0.484908        13.1950 
  66   0.0000       0.498577        13.5670 
  67   0.0000       0.498840        13.5741 
  68   0.0000       0.538803        14.6616 
  69   0.0000       0.576460        15.6863 
  70   0.0000       0.601467        16.3668 
  71   0.0000       0.705396        19.1948 
  72   0.0000       0.716005        19.4835 
  73   0.0000       0.738431        20.0937 
  74   0.0000       0.745870        20.2962 
  75   0.0000       0.747928        20.3522 
  76   0.0000       0.758314        20.6348 
  77   0.0000       0.786753        21.4087 
  78   0.0000       0.798789        21.7361 
  79   0.0000       0.813319        22.1315 
  80   0.0000       0.815470        22.1901 
  81   0.0000       0.840638        22.8749 
  82   0.0000       0.846793        23.0424 
  83   0.0000       0.855682        23.2843 
  84   0.0000       0.861119        23.4322 
  85   0.0000       0.868182        23.6244 
  86   0.0000       0.874281        23.7904 
  87   0.0000       0.893501        24.3134 
  88   0.0000       0.925448        25.1827 
  89   0.0000       0.948112        25.7994 
  90   0.0000       0.953503        25.9461 
  91   0.0000       0.961270        26.1575 
  92   0.0000       0.994206        27.0537 
  93   0.0000       1.026990        27.9458 
  94   0.0000       1.044538        28.4233 
  95   0.0000       1.093942        29.7677 
  96   0.0000       1.114968        30.3398 
  97   0.0000       1.129131        30.7252 
  98   0.0000       1.137843        30.9623 
  99   0.0000       1.144254        31.1367 
 100   0.0000       1.157238        31.4900 
 101   0.0000       1.177787        32.0492 
 102   0.0000       1.208639        32.8887 
 103   0.0000       1.213007        33.0076 
 104   0.0000       1.225627        33.3510 
 105   0.0000       1.230174        33.4747 
 106   0.0000       1.240143        33.7460 
 107   0.0000       1.264510        34.4091 
 108   0.0000       1.268205        34.5096 
 109   0.0000       1.279472        34.8162 
 110   0.0000       1.290083        35.1049 
 111   0.0000       1.313186        35.7336 
 112   0.0000       1.342394        36.5284 
 113   0.0000       1.343744        36.5651 
 114   0.0000       1.361326        37.0436 
 115   0.0000       1.383930        37.6587 
 116   0.0000       1.434193        39.0264 
 117   0.0000       1.439021        39.1577 
 118   0.0000       1.481813        40.3222 
 119   0.0000       1.491887        40.5963 
 120   0.0000       1.543959        42.0133 
 121   0.0000       1.564994        42.5857 
 122   0.0000       1.592424        43.3321 
 123   0.0000       1.705527        46.4097 
 124   0.0000       1.717743        46.7422 
 125   0.0000       1.760824        47.9145 
 126   0.0000       1.834689        49.9244 
 127   0.0000       1.892681        51.5025 
 128   0.0000       2.072227        56.3882 
 129   0.0000       2.120047        57.6894 
 130   0.0000       2.225399        60.5562 
 131   0.0000       2.382287        64.8253 
 132   0.0000       2.413547        65.6760 

                    ********************************
                    * MULLIKEN POPULATION ANALYSIS *
                    ********************************

-----------------------
MULLIKEN ATOMIC CHARGES
-----------------------
   0 C :   -0.160485
   1 C :   -0.210772
   2 C :   -0.209288
   3 C :   -0.165361
   4 C :   -0.518852
   5 C :   -0.131286
   6 C :    0.432721
   7 O :   -0.555576
   8 O :   -0.541464
   9 O :   -0.752793
  10 C :    0.807189
  11 C :    0.781285
  12 O :   -0.787851
  13 H :    0.447818
  14 H :    0.271756
  15 H :    0.231558
  16 H :    0.218579
  17 H :    0.221349
  18 H :    0.215086
  19 H :    0.203145
  20 H :    0.203241
Sum of atomic charges:   -0.0000000

--------------------------------
MULLIKEN REDUCED ORBITAL CHARGES
--------------------------------
  0 C s       :     3.172404  s :     3.172404
      pz      :     0.933070  p :     2.988081
      px      :     0.952626
      py      :     1.102385
  1 C s       :     3.165412  s :     3.165412
      pz      :     1.046106  p :     3.045360
      px      :     0.977795
      py      :     1.021459
  2 C s       :     3.172742  s :     3.172742
      pz      :     1.013805  p :     3.036545
      px      :     1.120206
      py      :     0.902535
  3 C s       :     3.180527  s :     3.180527
      pz      :     0.942824  p :     2.984833
      px      :     0.969913
      py      :     1.072096
  4 C s       :     3.378449  s :     3.378449
      pz      :     1.104975  p :     3.140402
      px      :     0.894660
      py      :     1.140767
  5 C s       :     3.124626  s :     3.124626
      pz      :     1.101843  p :     3.006660
      px      :     0.990687
      py      :     0.914130
  6 C s       :     3.096486  s :     3.096486
      pz      :     0.942502  p :     2.470793
      px      :     0.550428
      py      :     0.977863
  7 O s       :     3.958128  s :     3.958128
      pz      :     1.456224  p :     4.597448
      px      :     1.690207
      py      :     1.451017
  8 O s       :     3.963925  s :     3.963925
      pz      :     1.352627  p :     4.577540
      px      :     1.784979
      py      :     1.439933
  9 O s       :     3.925593  s :     3.925593
      pz      :     1.850476  p :     4.827200
      px      :     1.394719
      py      :     1.582005
 10 C s       :     2.881063  s :     2.881063
      pz      :     0.721979  p :     2.311748
      px      :     0.669492
      py      :     0.920277
 11 C s       :     2.974984  s :     2.974984
      pz      :     0.689621  p :     2.243731
      px      :     0.865573
      py      :     0.688537
 12 O s       :     3.960026  s :     3.960026
      pz      :     1.650700  p :     4.827825
      px      :     1.320871
      py      :     1.856254
 13 H s       :     0.552182  s :     0.552182
 14 H s       :     0.728244  s :     0.728244
 15 H s       :     0.768442  s :     0.768442
 16 H s       :     0.781421  s :     0.781421
 17 H s       :     0.778651  s :     0.778651
 18 H s       :     0.784914  s :     0.784914
 19 H s       :     0.796855  s :     0.796855
 20 H s       :     0.796759  s :     0.796759


                     *******************************
                     * LOEWDIN POPULATION ANALYSIS *
                     *******************************

----------------------
LOEWDIN ATOMIC CHARGES
----------------------
   0 C :   -0.053337
   1 C :   -0.140076
   2 C :   -0.135129
   3 C :   -0.072845
   4 C :   -0.335087
   5 C :   -0.122147
   6 C :    0.198487
   7 O :   -0.371421
   8 O :   -0.346344
   9 O :   -0.399218
  10 C :    0.383349
  11 C :    0.386951
  12 O :   -0.320673
  13 H :    0.329859
  14 H :    0.155647
  15 H :    0.142013
  16 H :    0.132231
  17 H :    0.133652
  18 H :    0.150557
  19 H :    0.138720
  20 H :    0.144811

-------------------------------
LOEWDIN REDUCED ORBITAL CHARGES
-------------------------------
  0 C s       :     2.933617  s :     2.933617
      pz      :     0.943573  p :     3.119720
      px      :     1.070043
      py      :     1.106104
  1 C s       :     2.933119  s :     2.933119
      pz      :     1.043974  p :     3.206958
      px      :     1.084530
      py      :     1.078454
  2 C s       :     2.929900  s :     2.929900
      pz      :     1.028259  p :     3.205229
      px      :     1.109462
      py      :     1.067509
  3 C s       :     2.937426  s :     2.937426
      pz      :     0.953614  p :     3.135419
      px      :     1.088382
      py      :     1.093423
  4 C s       :     2.985945  s :     2.985945
      pz      :     1.142392  p :     3.349142
      px      :     1.046768
      py      :     1.159981
  5 C s       :     2.902326  s :     2.902326
      pz      :     1.091832  p :     3.219821
      px      :     1.083854
      py      :     1.044135
  6 C s       :     2.880773  s :     2.880773
      pz      :     0.971938  p :     2.920739
      px      :     0.851620
      py      :     1.097181
  7 O s       :     3.621624  s :     3.621624
      pz      :     1.468200  p :     4.749796
      px      :     1.747025
      py      :     1.534571
  8 O s       :     3.618606  s :     3.618606
      pz      :     1.461903  p :     4.727738
      px      :     1.826238
      py      :     1.439597
  9 O s       :     3.553148  s :     3.553148
      pz      :     1.839536  p :     4.846070
      px      :     1.421892
      py      :     1.584642
 10 C s       :     2.884261  s :     2.884261
      pz      :     0.769923  p :     2.732390
      px      :     0.913339
      py      :     1.049128
 11 C s       :     2.902272  s :     2.902272
      pz      :     0.988710  p :     2.710776
      px      :     0.997914
      py      :     0.724153
 12 O s       :     3.508727  s :     3.508727
      pz      :     1.661355  p :     4.811946
      px      :     1.312288
      py      :     1.838303
 13 H s       :     0.670141  s :     0.670141
 14 H s       :     0.844353  s :     0.844353
 15 H s       :     0.857987  s :     0.857987
 16 H s       :     0.867769  s :     0.867769
 17 H s       :     0.866348  s :     0.866348
 18 H s       :     0.849443  s :     0.849443
 19 H s       :     0.861280  s :     0.861280
 20 H s       :     0.855189  s :     0.855189


                      *****************************
                      * MAYER POPULATION ANALYSIS *
                      *****************************

  NA   - Mulliken gross atomic population
  ZA   - Total nuclear charge
  QA   - Mulliken gross atomic charge
  VA   - Mayer's total valence
  BVA  - Mayer's bonded valence
  FA   - Mayer's free valence

  ATOM       NA         ZA         QA         VA         BVA        FA
  0 C      6.1605     6.0000    -0.1605     3.8460     3.8460    -0.0000
  1 C      6.2108     6.0000    -0.2108     3.8476     3.8476    -0.0000
  2 C      6.2093     6.0000    -0.2093     3.8430     3.8430    -0.0000
  3 C      6.1654     6.0000    -0.1654     3.8434     3.8434    -0.0000
  4 C      6.5189     6.0000    -0.5189     3.6741     3.6741    -0.0000
  5 C      6.1313     6.0000    -0.1313     3.6870     3.6870    -0.0000
  6 C      5.5673     6.0000     0.4327     3.6097     3.6097    -0.0000
  7 O      8.5556     8.0000    -0.5556     1.8631     1.8631     0.0000
  8 O      8.5415     8.0000    -0.5415     1.8716     1.8716    -0.0000
  9 O      8.7528     8.0000    -0.7528     1.5924     1.5924    -0.0000
 10 C      5.1928     6.0000     0.8072     3.6737     3.6737    -0.0000
 11 C      5.2187     6.0000     0.7813     3.5243     3.5243    -0.0000
 12 O      8.7879     8.0000    -0.7879     1.4582     1.4582     0.0000
 13 H      0.5522     1.0000     0.4478     0.7834     0.7834     0.0000
 14 H      0.7282     1.0000     0.2718     0.9105     0.9105     0.0000
 15 H      0.7684     1.0000     0.2316     0.9225     0.9225    -0.0000
 16 H      0.7814     1.0000     0.2186     0.9282     0.9282    -0.0000
 17 H      0.7787     1.0000     0.2213     0.9259     0.9259    -0.0000
 18 H      0.7849     1.0000     0.2151     0.9208     0.9208    -0.0000
 19 H      0.7969     1.0000     0.2031     0.9244     0.9244    -0.0000
 20 H      0.7968     1.0000     0.2032     0.9231     0.9231    -0.0000

  Mayer bond orders larger than 0.1
B(  0-C ,  2-C ) :   1.4608 B(  0-C ,  5-C ) :   1.3873 B(  0-C , 14-H ) :   0.9053 
B(  1-C ,  3-C ) :   1.4370 B(  1-C ,  6-C ) :   1.4424 B(  1-C , 15-H ) :   0.9270 
B(  2-C ,  3-C ) :   1.4276 B(  2-C , 16-H ) :   0.9352 B(  3-C , 17-H ) :   0.9320 
B(  4-C , 11-C ) :   0.9063 B(  4-C , 18-H ) :   0.9326 B(  4-C , 19-H ) :   0.9451 
B(  4-C , 20-H ) :   0.9356 B(  5-C ,  6-C ) :   1.3571 B(  5-C , 10-C ) :   0.9661 
B(  6-C , 12-O ) :   0.7044 B(  7-O , 10-C ) :   1.8127 B(  8-O , 11-C ) :   1.8439 
B(  9-O , 10-C ) :   0.8655 B(  9-O , 13-H ) :   0.7528 B( 11-C , 12-O ) :   0.7829 


-------
TIMINGS
-------

Total SCF time: 0 days 0 hours 1 min 4 sec 

Total time                  ....      64.312 sec
Sum of individual times     ....      64.352 sec  (100.1%)

Fock matrix formation       ....      64.098 sec  ( 99.7%)
Diagonalization             ....       0.045 sec  (  0.1%)
Density matrix formation    ....       0.008 sec  (  0.0%)
Population analysis         ....       0.030 sec  (  0.0%)
Initial guess               ....       0.064 sec  (  0.1%)
Orbital Transformation      ....       0.000 sec  (  0.0%)
Orbital Orthonormalization  ....       0.061 sec  (  0.1%)
DIIS solution               ....       0.007 sec  (  0.0%)
SOSCF solution              ....       0.099 sec  (  0.2%)

-------------------------   --------------------
FINAL SINGLE POINT ENERGY      -644.675706036271
-------------------------   --------------------

                                *** OPTIMIZATION RUN DONE ***

                            ***************************************
                            *     ORCA property calculations      *
                            ***************************************

                                    ---------------------
                                    Active property flags
                                    ---------------------
   (+) Dipole Moment


------------------------------------------------------------------------------
                       ORCA ELECTRIC PROPERTIES CALCULATION
------------------------------------------------------------------------------

Dipole Moment Calculation                       ... on
Quadrupole Moment Calculation                   ... off
Polarizability Calculation                      ... off
GBWName                                         ... hf.gbw
Electron density file                           ... hf.scfp.tmp

-------------
DIPOLE MOMENT
-------------
                                X             Y             Z
Electronic contribution:      2.27198      -2.94486       1.35055
Nuclear contribution   :     -2.52035       3.56056      -2.36980
                        -----------------------------------------
Total Dipole Moment    :     -0.24838       0.61570      -1.01925
                        -----------------------------------------
Magnitude (a.u.)       :      1.21641
Magnitude (Debye)      :      3.09186


Timings for individual modules:

Sum of individual times         ...     1713.360 sec (=  28.556 min)
GTO integral calculation        ...        8.282 sec (=   0.138 min)   0.5 %
SCF iterations                  ...      989.012 sec (=  16.484 min)  57.7 %
SCF Gradient evaluation         ...      712.128 sec (=  11.869 min)  41.6 %
Geometry relaxation             ...        3.938 sec (=   0.066 min)   0.2 %
                             ****ORCA TERMINATED NORMALLY****
TOTAL RUN TIME: 0 days 0 hours 28 minutes 36 seconds 721 msec
