
                                 *****************
                                 * O   R   C   A *
                                 *****************

                                            #,                                       
                                            ###                                      
                                            ####                                     
                                            #####                                    
                                            ######                                   
                                           ########,                                 
                                     ,,################,,,,,                         
                               ,,#################################,,                 
                          ,,##########################################,,             
                       ,#########################################, ''#####,          
                    ,#############################################,,   '####,        
                  ,##################################################,,,,####,       
                ,###########''''           ''''###############################       
              ,#####''   ,,,,##########,,,,          '''####'''          '####       
            ,##' ,,,,###########################,,,                        '##       
           ' ,,###''''                  '''############,,,                           
         ,,##''                                '''############,,,,        ,,,,,,###''
      ,#''                                            '''#######################'''  
     '                                                          ''''####''''         
             ,#######,   #######,   ,#######,      ##                                
            ,#'     '#,  ##    ##  ,#'     '#,    #''#        ,####,   ,####,        
            ##       ##  ##   ,#'  ##            #'  '#       #'       #'  '#        
            ##       ##  #######   ##           ,######,      #####,   #    #        
            '#,     ,#'  ##    ##  '#,     ,#' ,#      #,     #,   #   #,  ,#        
             '#######'   ##     ##  '#######'  #'      '#     '####' # '####'        



                #########################################################
                #                        -***-                          #
                #          Department of theory and spectroscopy        #
                #                                                       #
                #                      Frank Neese                      #
                #                                                       #
                #     Directorship, Architecture, Infrastructure        #
                #                    SHARK, DRIVERS                     #
                #        Core code/Algorithms in most modules           #
                #                                                       #
                #        Max Planck Institute fuer Kohlenforschung      #
                #                Kaiser Wilhelm Platz 1                 #
                #                 D-45470 Muelheim/Ruhr                 #
                #                      Germany                          #
                #                                                       #
                #                  All rights reserved                  #
                #                        -***-                          #
                #########################################################


                         Program Version 6.0.1  -  RELEASE   -


 With contributions from (in alphabetic order):
[Max-Planck-Institut fuer Kohlenforschung]                               
  Daniel Aravena         : Magnetic Suceptibility                        
  Michael Atanasov       : Ab Initio Ligand Field Theory (pilot matlab implementation)
  Alexander A. Auer      : GIAO ZORA, VPT2 properties, NMR spectrum      
  Ute Becker             : All parallelization in ORCA, NUMFREQ, NUMCALC 
  Giovanni Bistoni       : ED, misc. LED, open-shell LED, HFLD           
  Martin Brehm           : Molecular dynamics                            
  Dmytro Bykov           : pre 5.0 version of the SCF Hessian            
  Marcos Casanova-Páez   : Triplet and SCS-CIS(D). UHF-(DLPNO)-IP/EA/STEOM-CCSD. UHF-CVS-IP/STEOM-CCSD   
  Vijay G. Chilkuri      : MRCI spin determinant printing, contributions to CSF-ICE 
  Pauline Colinet        : FMM embedding                                 
  Dipayan Datta          : RHF DLPNO-CCSD density                        
  Achintya Kumar Dutta   : EOM-CC, STEOM-CC                              
  Nicolas Foglia         : Exact transition moments, OPA infrastructure, MCD improvements    
  Dmitry Ganyushin       : Spin-Orbit,Spin-Spin,Magnetic field MRCI      
  Miquel Garcia-Rates    : C-PCM and meta-GGA Hessian, CCSD/C-PCM, Gaussian charge scheme 
  Tiago L. C. Gouveia    : GS-ROHF, GS-ROCIS                             
  Yang Guo               : DLPNO-NEVPT2, F12-NEVPT2, CIM, IAO-localization        
  Andreas Hansen         : Spin unrestricted coupled pair/coupled cluster methods 
  Ingolf Harden          : AUTO-CI MPn and infrastructure                
  Benjamin Helmich-Paris : MC-RPA, TRAH-(SCF,CASSCF), AVAS, COSX integrals, SCF dyn. polar. 
  Lee Huntington         : MR-EOM, pCC                                   
  Robert Izsak           : Overlap fitted RIJCOSX, COSX-SCS-MP3, EOM     
  Riya Kayal             : Wick's Theorem for AUTO-CI, AUTO-CI UHF-CCSDT 
  Emily Kempfer          : AUTO-CI, RHF CISDT and CCSDT                  
  Christian Kollmar      : KDIIS, OOCD, Brueckner-CCSD(T), CCSD density, CASPT2, CASPT2-K, improved NEVPT2 
  Axel Koslowski         : Symmetry handling                             
  Simone Kossmann        : meta-GGA functionals, TD-DFT gradient, OOMP2, (MP2 Hessian; deprecated post 5.0) 
  Lucas Lang             : DCDCAS                                        
  Marvin Lechner         : AUTO-CI (C++ implementation), FIC-MRCC        
  Spencer Leger          : CASSCF response                               
  Dagmar Lenk            : GEPOL surface, SMD, ORCA-2-JSON               
  Dimitrios Liakos       : Extrapolation schemes; Compound Job, initial MDCI parallelization 
  Dimitrios Manganas     : Further ROCIS development; embedding schemes. LFT, Crystal Embedding 
  Dimitrios Pantazis     : SARC Basis sets                               
  Anastasios Papadopoulos: AUTO-CI, single reference methods and gradients 
  Taras Petrenko         : pre 6.0 DFT Hessian and TD-DFT gradient, (ASA, deprecated), ECA, 1-Electron XAS/XES, NRVS 
  Peter Pinski           : DLPNO-MP2, DLPNO-MP2 Gradient                 
  Christoph Reimann      : Effective Core Potentials                     
  Marius Retegan         : Local ZFS, SOC                                
  Christoph Riplinger    : Optimizer, TS searches, QM/MM, DLPNO-CCSD(T), (RO)-DLPNO pert. Triples 
  Michael Roemelt        : Original ROCIS implementation                 
  Masaaki Saitow         : Open-shell DLPNO-CCSD energy and density      
  Barbara Sandhoefer     : DKH picture change effects                    
  Kantharuban Sivalingam : CASSCF convergence/infrastructure, NEVPT2 and variants, FIC-MRCI 
  Bernardo de Souza      : ESD, SOC TD-DFT                               
  Georgi L. Stoychev     : AutoAux, RI-MP2 NMR, DLPNO-MP2 response, X2C  
  Van Anh Tran           : RI-MP2 g-tensors                              
  Willem Van den Heuvel  : Paramagnetic NMR                              
  Zikuan Wang            : NOTCH, Electric field optimization            
  Frank Wennmohs         : Technical directorship and infrastructure     
  Hang Xu                : AUTO-CI-Response properties                   
                                                                         
[FACCTs GmbH]                                                            
  Markus Bursch, Miquel Garcia-Rates, Christoph Riplinger, Bernardo de Souza, Georgi L. Stoychev 
                                                                 
  APM, Basis sets (HGBS, AHGBS, def-TZVP (Ac-Lr), def2-XVPD (La-Lu)), CI-OPT, improved COSX, DLPNO-Multilevel,           
  DOCKER, DRACO, updates on ESD, GOAT, IRC, LR-CPCM, MBIS, meta-GGA TD-DFT gradient, ML-optimized integration grids, 
  MM, NACMEs, nearIR, NEB, NEB-TS, NL-DFT gradient (VV10), 2- and 3-layer-ONIOM, interface openCOSMO-RS, QMMM,   
  Crystal-QMMM, SF, symmetry and pop. for TD-DFT, r2SCAN hybrids, SOLVATOR                                   
                                                                         
[Other institutions]                                                     
  V. Asgeirsson          : NEB                                           
  Christoph Bannwarth    : sTDA-DFT, sTD-DFT, PBEh-3c, B97-3c, D3        
  Sebastian Ehlert       : rSCAN, r2SCAN, r2SCAN-3c, D4, dhf basis sets  
  Marvin Friede          : D4 for Fr, Ra, Ac-Lr                          
  Lars Goerigk           : TD-DFT with DH, B97 family of functionals     
  Stefan Grimme          : VdW corrections, initial TS optimization, DFT functionals, gCP, sTDA/sTD-DF 
  Waldemar Hujo          : DFT-NL                                        
  H. Jonsson             : NEB                                           
  Holger Kruse           : gCP                                           
  Marcel Mueller         : wB97X-3c, vDZP basis set                      
  Hagen Neugebauer       : wr2SCAN                                       
  Tobias Risthaus        : range-separated hybrid DFT                    
  Lukas Wittmann         : regularized MP2, r2SCAN double-hybrids, wr2SCAN        
                                                                         
We gratefully acknowledge several colleagues who have allowed us to      
interface, adapt or use parts of their codes:                            
  Ed Valeev, F. Pavosevic, A. Kumar             : LibInt (2-el integral package), F12 methods 
  Garnet Chan, S. Sharma, J. Yang, R. Olivares  : DMRG                   
  Ulf Ekstrom                                   : XCFun DFT Library      
  Mihaly Kallay                                 : mrcc  (arbitrary order and MRCC methods)
  Frank Weinhold                                : gennbo (NPA and NBO analysis)           
  Simon Mueller                                 : openCOSMO-RS                            
  Christopher J. Cramer and Donald G. Truhlar   : smd solvation model                     
  S Lehtola, MJT Oliveira, MAL Marques          : LibXC Library                           
  Liviu Ungur et al                             : ANISO software                          


 Your calculation uses the libint2 library for the computation of 2-el integrals
 For citations please refer to: http://libint.valeyev.net

 Your ORCA version has been built with support for libXC version: 6.2.2
 For citations please refer to: https://libxc.gitlab.io

 This ORCA versions uses:
   CBLAS   interface :  Fast vector & matrix operations
   LAPACKE interface :  Fast linear algebra routines
   SCALAPACK package :  Parallel linear algebra routines
   Shared memory     :  Shared parallel matrices
   BLAS/LAPACK       :  OpenBLAS 0.3.27  USE64BITINT DYNAMIC_ARCH NO_AFFINITY Cooperlake SINGLE_THREADED
        Core in use  :  Cooperlake
   Copyright (c) 2011-2014, The OpenBLAS Project


NOTE: MaxCore=2500 MB was set to SCF,MP2,MDCI,CIPSI,MRCI and CIS
      => If you want to overwrite this, your respective input block should be placed after the MaxCore statement
================================================================================

----- Orbital basis set information -----
Your calculation utilizes the basis: STO-3G
   H-Ne       : W. J. Hehre, R. F. Stewart and J. A. Pople, J. Chem. Phys. 2657 (1969).
   Na-Ar      : W. J. Hehre, R. Ditchfield, R. F. Stewart and J. A. Pople, J. Chem. Phys. 2769 (1970).
   K,Ca,Ga-Kr : W. J. Pietro, B. A. Levy, W. J. Hehre and R. F. Stewart, J. Am. Chem. Soc. 19, 2225 (1980).
   Sc-Zn,Y-Cd : W. J. Pietro and W. J. Hehre, J. Comp. Chem. 4, 241 (1983).

----- AuxC basis set information -----
Your calculation utilizes the auxiliary basis: def2-SVP/C
  H-La, Hf-Rn : A. Hellweg, C. Hattig, S. Hofener and W. Klopper, Theor. Chem. Acc. 117, 587 (2007).
        Ce-Lu : J. Chmela and M. E. Harding, Mol. Phys. (2018).

================================================================================
                                        WARNINGS
                       Please study these warnings very carefully!
================================================================================


WARNING: Post HF methods need fully converged wavefunctions
  ===> : Setting SCFConvForced true
         You can overwrite this default with %scf ConvForced false 


WARNING: MDCI localization with Augmented Hessian Foster-Boys
  ===> : Switching off randomization!

================================================================================
                                       INPUT FILE
================================================================================
NAME = dvb_pno_eom_ccsd.inp
|  1> ! bt-PNO-EOM-CCSD NOCOSX def2-SVP/C STO-3G NormalPNO TightSCF
|  2> %Pal NProcs 4 end
|  3> %MaxCore 2500
|  4> %SCF
|  5>     AutoTRAH    True
|  6>     CNVDamp     False
|  7>     CNVZerner   False
|  8>     end
|  9> %mdci
| 10>     MaxIter     200
| 11>     NRoots      2
| 12>     DoTriplet   false
| 13>     STEOMSOC    false
| 14>     DoDbfilter  false
| 15>     end
| 16> 
| 17> *xyz 0 1
| 18> C            -1.41525000     0.23022000     0.00000000
| 19> C             1.41525000    -0.23022000     0.00000000
| 20> C            -0.49513000     1.31446000     0.00000000
| 21> C             0.49513000    -1.31446000     0.00000000
| 22> C             0.88941000     1.09095000     0.00000000
| 23> C            -0.88941000    -1.09095000     0.00000000
| 24> H            -0.87955000     2.34373000     0.00000000
| 25> H             0.87955000    -2.34373000     0.00000000
| 26> H             1.57790000     1.94501000     0.00000000
| 27> H            -1.57790000    -1.94501000     0.00000000
| 28> C             2.88458000    -0.52109000     0.00000000
| 29> C            -2.88458000     0.52109000     0.00000000
| 30> H             3.14034000    -1.59196000     0.00000000
| 31> H            -3.14034000     1.59196000     0.00000000
| 32> C             3.88004000     0.38225000     0.00000000
| 33> C            -3.88004000    -0.38225000     0.00000000
| 34> H             3.69468000     1.46244000     0.00000000
| 35> H            -3.69468000    -1.46244000     0.00000000
| 36> H             4.93165000     0.07110000     0.00000000
| 37> H            -4.93165000    -0.07110000     0.00000000
| 38> **                         ****END OF INPUT****
================================================================================

                       ****************************
                       * Single Point Calculation *
                       ****************************

---------------------------------
CARTESIAN COORDINATES (ANGSTROEM)
---------------------------------
  C     -1.415250    0.230220    0.000000
  C      1.415250   -0.230220    0.000000
  C     -0.495130    1.314460    0.000000
  C      0.495130   -1.314460    0.000000
  C      0.889410    1.090950    0.000000
  C     -0.889410   -1.090950    0.000000
  H     -0.879550    2.343730    0.000000
  H      0.879550   -2.343730    0.000000
  H      1.577900    1.945010    0.000000
  H     -1.577900   -1.945010    0.000000
  C      2.884580   -0.521090    0.000000
  C     -2.884580    0.521090    0.000000
  H      3.140340   -1.591960    0.000000
  H     -3.140340    1.591960    0.000000
  C      3.880040    0.382250    0.000000
  C     -3.880040   -0.382250    0.000000
  H      3.694680    1.462440    0.000000
  H     -3.694680   -1.462440    0.000000
  H      4.931650    0.071100    0.000000
  H     -4.931650   -0.071100    0.000000

----------------------------
CARTESIAN COORDINATES (A.U.)
----------------------------
  NO LB      ZA    FRAG     MASS         X           Y           Z
   0 C     6.0000    0    12.011   -2.674435    0.435053    0.000000
   1 C     6.0000    0    12.011    2.674435   -0.435053    0.000000
   2 C     6.0000    0    12.011   -0.935660    2.483969    0.000000
   3 C     6.0000    0    12.011    0.935660   -2.483969    0.000000
   4 C     6.0000    0    12.011    1.680741    2.061597    0.000000
   5 C     6.0000    0    12.011   -1.680741   -2.061597    0.000000
   6 H     1.0000    0     1.008   -1.662109    4.429008    0.000000
   7 H     1.0000    0     1.008    1.662109   -4.429008    0.000000
   8 H     1.0000    0     1.008    2.981799    3.675536    0.000000
   9 H     1.0000    0     1.008   -2.981799   -3.675536    0.000000
  10 C     6.0000    0    12.011    5.451066   -0.984717    0.000000
  11 C     6.0000    0    12.011   -5.451066    0.984717    0.000000
  12 H     1.0000    0     1.008    5.934383   -3.008368    0.000000
  13 H     1.0000    0     1.008   -5.934383    3.008368    0.000000
  14 C     6.0000    0    12.011    7.332213    0.722348    0.000000
  15 C     6.0000    0    12.011   -7.332213   -0.722348    0.000000
  16 H     1.0000    0     1.008    6.981933    2.763611    0.000000
  17 H     1.0000    0     1.008   -6.981933   -2.763611    0.000000
  18 H     1.0000    0     1.008    9.319468    0.134360    0.000000
  19 H     1.0000    0     1.008   -9.319468   -0.134360    0.000000

--------------------------------
INTERNAL COORDINATES (ANGSTROEM)
--------------------------------
 C      0   0   0     0.000000000000     0.00000000     0.00000000
 C      1   0   0     2.867705571289     0.00000000     0.00000000
 C      1   2   0     1.422039799724    58.92044775     0.00000000
 C      2   1   3     1.422039799724    58.92044775   180.00000000
 C      3   1   2     1.402464877172   121.14868209     0.00000000
 C      4   2   1     1.402464877172   121.14868209     0.00000000
 H      3   1   2     1.098715372287   119.20096435   180.00000085
 H      4   2   1     1.098715372287   119.20096435   180.00000085
 H      5   3   1     1.097012745459   119.70330166   180.00000085
 H      6   4   2     1.097012745459   119.70330166   180.00000085
 C      2   1   3     1.497843785513   178.04187185   180.00000000
 C      1   2   3     1.497843785513   178.04187185     0.00000000
 H     11   2   5     1.100988526053   114.63009424   180.00000000
 H     12   1   6     1.100988526053   114.63009424   180.00000000
 C     11   2   5     1.344233524057   126.57996405     0.00000000
 C     12   1   6     1.344233524057   126.57996405     0.00000000
 H     15  11   2     1.095978451294   122.48539266     0.00000000
 H     16  12   1     1.095978451294   122.48539266     0.00000000
 H     15  11   2     1.096675847550   121.29510496   180.00000000
 H     16  12   1     1.096675847550   121.29510496   180.00000000

---------------------------
INTERNAL COORDINATES (A.U.)
---------------------------
 C      0   0   0     0.000000000000     0.00000000     0.00000000
 C      1   0   0     5.419178162456     0.00000000     0.00000000
 C      1   2   0     2.687265773015    58.92044775     0.00000000
 C      2   1   3     2.687265773015    58.92044775   180.00000000
 C      3   1   2     2.650274530298   121.14868209     0.00000000
 C      4   2   1     2.650274530298   121.14868209     0.00000000
 H      3   1   2     2.076271152752   119.20096435   180.00000085
 H      4   2   1     2.076271152752   119.20096435   180.00000085
 H      5   3   1     2.073053654339   119.70330166   180.00000085
 H      6   4   2     2.073053654339   119.70330166   180.00000085
 C      2   1   3     2.830514546016   178.04187185   180.00000000
 C      1   2   3     2.830514546016   178.04187185     0.00000000
 H     11   2   5     2.080566790829   114.63009424   180.00000000
 H     12   1   6     2.080566790829   114.63009424   180.00000000
 C     11   2   5     2.540233220504   126.57996405     0.00000000
 C     12   1   6     2.540233220504   126.57996405     0.00000000
 H     15  11   2     2.071099121624   122.48539266     0.00000000
 H     16  12   1     2.071099121624   122.48539266     0.00000000
 H     15  11   2     2.072417009556   121.29510496   180.00000000
 H     16  12   1     2.072417009556   121.29510496   180.00000000

---------------------
BASIS SET INFORMATION
---------------------
There are 2 groups of distinct atoms

 Group   1 Type C   : 6s3p contracted to 2s1p pattern {33/3}
 Group   2 Type H   : 3s contracted to 1s pattern {3}

Atom   0C    basis set group =>   1
Atom   1C    basis set group =>   1
Atom   2C    basis set group =>   1
Atom   3C    basis set group =>   1
Atom   4C    basis set group =>   1
Atom   5C    basis set group =>   1
Atom   6H    basis set group =>   2
Atom   7H    basis set group =>   2
Atom   8H    basis set group =>   2
Atom   9H    basis set group =>   2
Atom  10C    basis set group =>   1
Atom  11C    basis set group =>   1
Atom  12H    basis set group =>   2
Atom  13H    basis set group =>   2
Atom  14C    basis set group =>   1
Atom  15C    basis set group =>   1
Atom  16H    basis set group =>   2
Atom  17H    basis set group =>   2
Atom  18H    basis set group =>   2
Atom  19H    basis set group =>   2
---------------------------------
AUXILIARY/C BASIS SET INFORMATION
---------------------------------
There are 2 groups of distinct atoms

 Group   1 Type C   : 8s6p5d3f contracted to 6s5p4d1f pattern {311111/21111/2111/3}
 Group   2 Type H   : 4s3p2d contracted to 3s2p1d pattern {211/21/2}

Atom   0C    basis set group =>   1
Atom   1C    basis set group =>   1
Atom   2C    basis set group =>   1
Atom   3C    basis set group =>   1
Atom   4C    basis set group =>   1
Atom   5C    basis set group =>   1
Atom   6H    basis set group =>   2
Atom   7H    basis set group =>   2
Atom   8H    basis set group =>   2
Atom   9H    basis set group =>   2
Atom  10C    basis set group =>   1
Atom  11C    basis set group =>   1
Atom  12H    basis set group =>   2
Atom  13H    basis set group =>   2
Atom  14C    basis set group =>   1
Atom  15C    basis set group =>   1
Atom  16H    basis set group =>   2
Atom  17H    basis set group =>   2
Atom  18H    basis set group =>   2
Atom  19H    basis set group =>   2


           ************************************************************
           *        Program running with 4 parallel MPI-processes     *
           *              working on a common directory               *
           ************************************************************
------------------------------------------------------------------------------
                             ORCA STARTUP CALCULATIONS
------------------------------------------------------------------------------
------------------------------------------------------------------------------
                   ___                                                        
                  /   \      - P O W E R E D   B Y -                         
                 /     \                                                     
                 |  |  |   _    _      __       _____    __    __             
                 |  |  |  | |  | |    /  \     |  _  \  |  |  /  |          
                  \  \/   | |  | |   /    \    | | | |  |  | /  /          
                 / \  \   | |__| |  /  /\  \   | |_| |  |  |/  /          
                |  |  |   |  __  | /  /__\  \  |    /   |      \           
                |  |  |   | |  | | |   __   |  |    \   |  |\   \          
                \     /   | |  | | |  |  |  |  | |\  \  |  | \   \       
                 \___/    |_|  |_| |__|  |__|  |_| \__\ |__|  \__/        
                                                                              
                      - O R C A' S   B I G   F R I E N D -                    
                                      &                                       
                       - I N T E G R A L  F E E D E R -                       
                                                                              
 v1 FN, 2020, v2 2021, v3 2022-2024                                           
------------------------------------------------------------------------------


----------------------
SHARK INTEGRAL PACKAGE
----------------------

Number of atoms                             ...     20
Number of basis functions                   ...     60
Number of shells                            ...     40
Maximum angular momentum                    ...      1
Integral batch strategy                     ... SHARK/LIBINT Hybrid
RI-J (if used) integral strategy            ... SPLIT-RIJ (Revised 2003 algorithm where possible)
Printlevel                                  ...      1
Contraction scheme used                     ... SEGMENTED contraction
Prescreening option                         ... SCHWARTZ
   Thresh                                   ... 2.500e-11
   Tcut                                     ... 2.500e-12
   Tpresel                                  ... 2.500e-12 
Coulomb Range Separation                    ... NOT USED
Exchange Range Separation                   ... NOT USED
Multipole approximations                    ... NOT USED
Finite Nucleus Model                        ... NOT USED
CABS basis                                  ... NOT available
Auxiliary Coulomb fitting basis             ... NOT available
Auxiliary J/K fitting basis                 ... NOT available
Auxiliary Correlation fitting basis         ... AVAILABLE
   # of basis functions in Aux-C            ...    620
   # of shells in Aux-C                     ...    220
   Maximum angular momentum in Aux-C        ...      3
Auxiliary 'external' fitting basis          ... NOT available

Checking pre-screening integrals            ... done (  0.0 sec) Dimension = 40
Check shell pair data                       ... done (  0.0 sec)
Shell pair information
Shell pair cut-off parameter TPreSel        ...   2.5e-12
Total number of shell pairs                 ...       820
Shell pairs after pre-screening             ...       756
Total number of primitive shell pairs       ...      7380
Primitive shell pairs kept                  ...      4872
          la=0 lb=0:    409 shell pairs
          la=1 lb=0:    292 shell pairs
          la=1 lb=1:     55 shell pairs

Calculating one electron integrals          ... done (  0.0 sec)
Calculating RI/C V-Matrix + Cholesky decomp.... done (  0.1 sec)
Calculating Nuclear repulsion               ... done (  0.0 sec) ENN=    445.937220862584 Eh

Diagonalization of the overlap matrix:
Smallest eigenvalue                        ... 1.815e-01
Time for diagonalization                   ...    0.001 sec
Threshold for overlap eigenvalues          ... 1.000e-07
Number of eigenvalues below threshold      ... 0
Time for construction of square roots      ...    0.003 sec
Total time needed                          ...    0.005 sec

-------------------
DFT GRID GENERATION
-------------------

General Integration Accuracy     IntAcc      ... 4.388
Radial Grid Type                 RadialGrid  ... OptM3 with GC (2021)
Angular Grid (max. ang.)         AngularGrid ... 4 (Lebedev-302)
Angular grid pruning method      GridPruning ... 4 (adaptive)
Weight generation scheme         WeightScheme... mBecke (2022)
Basis function cutoff            BFCut       ... 1.0000e-11
Integration weight cutoff        WCut        ... 1.0000e-14
Partially contracted basis set               ... off
Rotationally invariant grid construction     ... off
Angular grids for H and He will be reduced by one unit

Total number of grid points                  ...    92318
Total number of batches                      ...     1450
Average number of points per batch           ...       63
Average number of grid points per atom       ...     4616
Initializing property integral containers    ... done (  0.0 sec)

SHARK setup successfully completed in   1.0 seconds

Maximum memory used throughout the entire STARTUP-calculation: 21.1 MB


           ************************************************************
           *        Program running with 4 parallel MPI-processes     *
           *              working on a common directory               *
           ************************************************************
-------------------------------------------------------------------------------
                                 ORCA GUESS
                   Start orbitals & Density for SCF / CASSCF
-------------------------------------------------------------------------------

------------
SCF SETTINGS
------------
Hamiltonian:
 Ab initio Hamiltonian  Method          .... Hartree-Fock(GTOs)


General Settings:
 Integral files         IntName         .... dvb_pno_eom_ccsd
 Hartree-Fock type      HFTyp           .... RHF
 Total Charge           Charge          ....    0
 Multiplicity           Mult            ....    1
 Number of Electrons    NEL             ....   70
 Basis Dimension        Dim             ....   60
 Nuclear Repulsion      ENuc            ....    445.9372208626 Eh

Convergence Acceleration:
 AO-DIIS                CNVDIIS         .... on
   Start iteration      DIISMaxIt       ....    12
   Startup error        DIISStart       ....  0.200000
   # of expansion vecs  DIISMaxEq       ....     5
   Bias factor          DIISBfac        ....   1.050
   Max. coefficient     DIISMaxC        ....  10.000
 MO-DIIS                CNVKDIIS        .... off
 Trust-Rad. Augm. Hess. CNVTRAH         .... auto
   Auto Start mean grad. ratio tolernc. ....  1.125000
   Auto Start start iteration           ....    50
   Auto Start num. interpolation iter.  ....    10
   Max. Number of Micro iterations      ....    24
   Max. Number of Macro iterations      .... Maxiter - #DIIS iter
   Number of Davidson start vectors     ....     2
   Converg. threshold    (grad. norm)   ....   1.000e-05
   Grad. Scal. Fac. for Micro threshold ....   0.100
   Minimum threshold for Micro iter.    ....   1.000e-02
   NR start threshold (gradient norm)   ....   1.000e-04
   Initial trust radius                 ....   0.400
   Minimum AH scaling param. (alpha)    ....   1.000
   Maximum AH scaling param. (alpha)    .... 1000.000
   Quad. conv. algorithm                .... NR
   White noise on init. David. guess    .... on
   Maximum white noise                  ....   0.010
   Pseudo random numbers                .... off
   Inactive MOs                         .... canonical
   Orbital update algorithm             .... Taylor
   Preconditioner                       .... Diag
   Full preconditioner red. dimension   ....   250
 SOSCF                  CNVSOSCF        .... on
   Start iteration      SOSCFMaxIt      ....   150
   Startup grad/error   SOSCFStart      ....  0.003300
   Hessian update       SOSCFHessUp     .... L-BFGS
 Level Shifting         CNVShift        .... on
   Level shift para.    LevelShift      ....    0.2500
   Turn off err/grad.   ShiftErr        ....    0.0010
 Zerner damping         CNVZerner       .... off
 Static damping         CNVDamp         .... off

SCF Procedure:
 Maximum # iterations   MaxIter         ....   125
 SCF integral mode      SCFMode         .... Direct
   Integral package                     .... SHARK and LIBINT hybrid scheme
 Reset frequency        DirectResetFreq ....    20
 Integral Threshold     Thresh          ....  2.500e-11 Eh
 Primitive CutOff       TCut            ....  2.500e-12 Eh

Convergence Tolerance:
 Convergence Check Mode ConvCheckMode   .... Total+1el-Energy
 Convergence forced     ConvForced      .... 1
 Energy Change          TolE            ....  1.000e-08 Eh
 1-El. energy change                    ....  1.000e-05 Eh
 Orbital Gradient       TolG            ....  1.000e-05
 Orbital Rotation angle TolX            ....  1.000e-05
 DIIS Error             TolErr          ....  5.000e-07

------------------------------
INITIAL GUESS: MODEL POTENTIAL
------------------------------
Loading Hartree-Fock densities                     ... done
Calculating cut-offs                               ... done
Initializing the effective Hamiltonian             ... done
Setting up the integral package (SHARK)            ... done
Starting the Coulomb interaction                   ... done (   0.1 sec)
Making the grid                                    ... done (   0.2 sec)
Mapping shells                                     ... done
Starting the XC term evaluation                    ... done (   0.0 sec)
Transforming the Hamiltonian                       ... done (   0.0 sec)
Diagonalizing the Hamiltonian                      ... done (   0.0 sec)
Back transforming the eigenvectors                 ... done (   0.0 sec)
Now organizing SCF variables                       ... done
                      ------------------
                      INITIAL GUESS DONE (   0.3 sec)
                      ------------------
             **** ENERGY FILE WAS UPDATED (dvb_pno_eom_ccsd.en.tmp) ****
Finished Guess after   0.8 sec
Maximum memory used throughout the entire GUESS-calculation: 9.6 MB


           ************************************************************
           *        Program running with 4 parallel MPI-processes     *
           *              working on a common directory               *
           ************************************************************

-------------------------------------------------------------------------------------------
                                      ORCA LEAN-SCF
                              memory conserving SCF solver
-------------------------------------------------------------------------------------------

----------------------------------------D-I-I-S--------------------------------------------
Iteration    Energy (Eh)           Delta-E    RMSDP     MaxDP     DIISErr   Damp  Time(sec)
-------------------------------------------------------------------------------------------
               ***  Starting incremental Fock matrix formation  ***
    1    -379.6437482479626055     0.00e+00  4.57e-03  4.12e-02  1.06e-01  0.700   0.3
    2    -379.6798504275092796    -3.61e-02  3.93e-03  3.55e-02  7.87e-02  0.700   0.1
                               ***Turning on AO-DIIS***
    3    -379.7061176986375699    -2.63e-02  2.83e-03  2.56e-02  5.53e-02  0.700   0.1
    4    -379.7246538809233130    -1.85e-02  6.74e-03  6.04e-02  3.91e-02  0.000   0.1
    5    -379.7688391744338219    -4.42e-02  3.36e-04  5.10e-03  3.84e-03  0.000   0.1
                              *** Initializing SOSCF ***
---------------------------------------S-O-S-C-F--------------------------------------
Iteration    Energy (Eh)           Delta-E    RMSDP     MaxDP     MaxGrad    Time(sec)
--------------------------------------------------------------------------------------
    6    -379.7689295489390702    -9.04e-05  1.84e-04  3.13e-03  2.16e-03     0.1
               *** Restarting incremental Fock matrix formation ***
    7    -379.7689552993834354    -2.58e-05  1.13e-04  1.82e-03  7.75e-04     0.1
    8    -379.7689619320341876    -6.63e-06  7.09e-05  1.21e-03  2.84e-04     0.1
    9    -379.7689630563377818    -1.12e-06  1.35e-05  1.47e-04  7.77e-05     0.1
   10    -379.7689631334681621    -7.71e-08  1.05e-06  1.53e-05  5.99e-06     0.1
   11    -379.7689631330782163     3.90e-10  2.84e-07  3.14e-06  1.10e-06     0.1
                 **** Energy Check signals convergence ****

               *****************************************************
               *                     SUCCESS                       *
               *           SCF CONVERGED AFTER  11 CYCLES          *
               *****************************************************

             **** ENERGY FILE WAS UPDATED (dvb_pno_eom_ccsd.en.tmp) ****

----------------
TOTAL SCF ENERGY
----------------

Total Energy       :       -379.76896313307822 Eh          -10334.03886 eV

Components:
Nuclear Repulsion  :        445.93722086258384 Eh           12134.56869 eV
Electronic Energy  :       -825.70618399566206 Eh          -22468.60755 eV
One Electron Energy:      -1400.22268775020052 Eh          -38101.99640 eV
Two Electron Energy:        574.51650375453846 Eh           15633.38885 eV

Virial components:
Potential Energy   :       -756.09902369864449 Eh          -20574.50042 eV
Kinetic Energy     :        376.33006056556633 Eh           10240.46156 eV
Virial Ratio       :          2.00913799594522

---------------
SCF CONVERGENCE
---------------

  Last Energy change         ...   -3.8995e-10  Tolerance :   1.0000e-08
  Last MAX-Density change    ...    3.1389e-06  Tolerance :   1.0000e-07
  Last RMS-Density change    ...    2.8364e-07  Tolerance :   5.0000e-09
  Last DIIS Error            ...    2.1562e-03  Tolerance :   5.0000e-07
  Last Orbital Gradient      ...    1.1003e-06  Tolerance :   1.0000e-05
  Last Orbital Rotation      ...    1.9133e-06  Tolerance :   1.0000e-05


----------------
ORBITAL ENERGIES
----------------

  NO   OCC          E(Eh)            E(eV) 
   0   2.0000     -11.040586      -300.4296 
   1   2.0000     -11.040523      -300.4279 
   2   2.0000     -11.031589      -300.1848 
   3   2.0000     -11.031589      -300.1848 
   4   2.0000     -11.028953      -300.1131 
   5   2.0000     -11.028823      -300.1095 
   6   2.0000     -11.028609      -300.1037 
   7   2.0000     -11.028586      -300.1031 
   8   2.0000     -11.017480      -299.8009 
   9   2.0000     -11.017480      -299.8009 
  10   2.0000      -1.090298       -29.6685 
  11   2.0000      -1.020253       -27.7625 
  12   2.0000      -0.974925       -26.5291 
  13   2.0000      -0.950302       -25.8590 
  14   2.0000      -0.909634       -24.7524 
  15   2.0000      -0.799882       -21.7659 
  16   2.0000      -0.762826       -20.7575 
  17   2.0000      -0.727630       -19.7998 
  18   2.0000      -0.696776       -18.9602 
  19   2.0000      -0.628052       -17.0902 
  20   2.0000      -0.605677       -16.4813 
  21   2.0000      -0.572941       -15.5905 
  22   2.0000      -0.553603       -15.0643 
  23   2.0000      -0.553165       -15.0524 
  24   2.0000      -0.525359       -14.2958 
  25   2.0000      -0.496697       -13.5158 
  26   2.0000      -0.492526       -13.4023 
  27   2.0000      -0.463730       -12.6187 
  28   2.0000      -0.446430       -12.1480 
  29   2.0000      -0.421653       -11.4738 
  30   2.0000      -0.415621       -11.3096 
  31   2.0000      -0.376963       -10.2577 
  32   2.0000      -0.315126        -8.5750 
  33   2.0000      -0.278364        -7.5747 
  34   2.0000      -0.222189        -6.0461 
  35   0.0000       0.198994         5.4149 
  36   0.0000       0.268516         7.3067 
  37   0.0000       0.308826         8.4036 
  38   0.0000       0.397078        10.8050 
  39   0.0000       0.521759        14.1978 
  40   0.0000       0.565017        15.3749 
  41   0.0000       0.575562        15.6618 
  42   0.0000       0.621559        16.9135 
  43   0.0000       0.625799        17.0289 
  44   0.0000       0.658232        17.9114 
  45   0.0000       0.659396        17.9431 
*Only the first 10 virtual orbitals were printed.

                    ********************************
                    * MULLIKEN POPULATION ANALYSIS *
                    ********************************

-----------------------
MULLIKEN ATOMIC CHARGES
-----------------------
   0 C :    0.001818
   1 C :    0.001818
   2 C :   -0.059651
   3 C :   -0.059651
   4 C :   -0.060451
   5 C :   -0.060451
   6 H :    0.058705
   7 H :    0.058705
   8 H :    0.060600
   9 H :    0.060600
  10 C :   -0.055244
  11 C :   -0.055244
  12 H :    0.057635
  13 H :    0.057635
  14 C :   -0.123887
  15 C :   -0.123887
  16 H :    0.059018
  17 H :    0.059018
  18 H :    0.061456
  19 H :    0.061456
Sum of atomic charges:    0.0000000

--------------------------------
MULLIKEN REDUCED ORBITAL CHARGES
--------------------------------
  0 C s       :     3.130464  s :     3.130464
      pz      :     0.991883  p :     2.867717
      px      :     0.930607
      py      :     0.945227

  1 C s       :     3.130464  s :     3.130464
      pz      :     0.991883  p :     2.867717
      px      :     0.930607
      py      :     0.945227

  2 C s       :     3.141360  s :     3.141360
      pz      :     1.002580  p :     2.918291
      px      :     0.950534
      py      :     0.965177

  3 C s       :     3.141360  s :     3.141360
      pz      :     1.002580  p :     2.918291
      px      :     0.950534
      py      :     0.965177

  4 C s       :     3.139366  s :     3.139366
      pz      :     1.001925  p :     2.921086
      px      :     0.958983
      py      :     0.960178

  5 C s       :     3.139366  s :     3.139366
      pz      :     1.001925  p :     2.921086
      px      :     0.958983
      py      :     0.960178

  6 H s       :     0.941295  s :     0.941295

  7 H s       :     0.941295  s :     0.941295

  8 H s       :     0.939400  s :     0.939400

  9 H s       :     0.939400  s :     0.939400

 10 C s       :     3.144223  s :     3.144223
      pz      :     0.994844  p :     2.911021
      px      :     0.937569
      py      :     0.978608

 11 C s       :     3.144223  s :     3.144223
      pz      :     0.994844  p :     2.911021
      px      :     0.937569
      py      :     0.978608

 12 H s       :     0.942365  s :     0.942365

 13 H s       :     0.942365  s :     0.942365

 14 C s       :     3.155369  s :     3.155369
      pz      :     1.008768  p :     2.968517
      px      :     0.979242
      py      :     0.980508

 15 C s       :     3.155369  s :     3.155369
      pz      :     1.008768  p :     2.968517
      px      :     0.979242
      py      :     0.980508

 16 H s       :     0.940982  s :     0.940982

 17 H s       :     0.940982  s :     0.940982

 18 H s       :     0.938544  s :     0.938544

 19 H s       :     0.938544  s :     0.938544



                     *******************************
                     * LOEWDIN POPULATION ANALYSIS *
                     *******************************

----------------------
LOEWDIN ATOMIC CHARGES
----------------------
   0 C :    0.008731
   1 C :    0.008731
   2 C :   -0.031696
   3 C :   -0.031696
   4 C :   -0.032220
   5 C :   -0.032220
   6 H :    0.028087
   7 H :    0.028087
   8 H :    0.030066
   9 H :    0.030066
  10 C :   -0.022815
  11 C :   -0.022815
  12 H :    0.027052
  13 H :    0.027052
  14 C :   -0.069665
  15 C :   -0.069665
  16 H :    0.030564
  17 H :    0.030564
  18 H :    0.031896
  19 H :    0.031896

-------------------------------
LOEWDIN REDUCED ORBITAL CHARGES
-------------------------------
  0 C s       :     3.027679  s :     3.027679
      pz      :     0.991041  p :     2.963590
      px      :     0.976277
      py      :     0.996272

  1 C s       :     3.027679  s :     3.027679
      pz      :     0.991041  p :     2.963590
      px      :     0.976277
      py      :     0.996272

  2 C s       :     3.025357  s :     3.025357
      pz      :     1.002863  p :     3.006340
      px      :     1.003087
      py      :     1.000390

  3 C s       :     3.025357  s :     3.025357
      pz      :     1.002863  p :     3.006340
      px      :     1.003087
      py      :     1.000390

  4 C s       :     3.023247  s :     3.023247
      pz      :     1.002290  p :     3.008973
      px      :     1.005174
      py      :     1.001509

  5 C s       :     3.023247  s :     3.023247
      pz      :     1.002290  p :     3.008973
      px      :     1.005174
      py      :     1.001509

  6 H s       :     0.971913  s :     0.971913

  7 H s       :     0.971913  s :     0.971913

  8 H s       :     0.969934  s :     0.969934

  9 H s       :     0.969934  s :     0.969934

 10 C s       :     3.027207  s :     3.027207
      pz      :     0.994268  p :     2.995608
      px      :     0.987804
      py      :     1.013537

 11 C s       :     3.027207  s :     3.027207
      pz      :     0.994268  p :     2.995608
      px      :     0.987804
      py      :     1.013537

 12 H s       :     0.972948  s :     0.972948

 13 H s       :     0.972948  s :     0.972948

 14 C s       :     3.024578  s :     3.024578
      pz      :     1.009538  p :     3.045087
      px      :     1.018308
      py      :     1.017242

 15 C s       :     3.024578  s :     3.024578
      pz      :     1.009538  p :     3.045087
      px      :     1.018308
      py      :     1.017242

 16 H s       :     0.969436  s :     0.969436

 17 H s       :     0.969436  s :     0.969436

 18 H s       :     0.968104  s :     0.968104

 19 H s       :     0.968104  s :     0.968104



                      *****************************
                      * MAYER POPULATION ANALYSIS *
                      *****************************

  NA   - Mulliken gross atomic population
  ZA   - Total nuclear charge
  QA   - Mulliken gross atomic charge
  VA   - Mayer's total valence
  BVA  - Mayer's bonded valence
  FA   - Mayer's free valence

  ATOM       NA         ZA         QA         VA         BVA        FA
  0 C      5.9982     6.0000     0.0018     3.9750     3.9750     0.0000
  1 C      5.9982     6.0000     0.0018     3.9750     3.9750     0.0000
  2 C      6.0597     6.0000    -0.0597     3.9733     3.9733     0.0000
  3 C      6.0597     6.0000    -0.0597     3.9733     3.9733     0.0000
  4 C      6.0605     6.0000    -0.0605     3.9741     3.9741    -0.0000
  5 C      6.0605     6.0000    -0.0605     3.9741     3.9741     0.0000
  6 H      0.9413     1.0000     0.0587     0.9966     0.9966    -0.0000
  7 H      0.9413     1.0000     0.0587     0.9966     0.9966    -0.0000
  8 H      0.9394     1.0000     0.0606     0.9963     0.9963    -0.0000
  9 H      0.9394     1.0000     0.0606     0.9963     0.9963    -0.0000
 10 C      6.0552     6.0000    -0.0552     3.9722     3.9722    -0.0000
 11 C      6.0552     6.0000    -0.0552     3.9722     3.9722     0.0000
 12 H      0.9424     1.0000     0.0576     0.9967     0.9967    -0.0000
 13 H      0.9424     1.0000     0.0576     0.9967     0.9967     0.0000
 14 C      6.1239     6.0000    -0.1239     3.9707     3.9707     0.0000
 15 C      6.1239     6.0000    -0.1239     3.9707     3.9707     0.0000
 16 H      0.9410     1.0000     0.0590     0.9965     0.9965    -0.0000
 17 H      0.9410     1.0000     0.0590     0.9965     0.9965    -0.0000
 18 H      0.9385     1.0000     0.0615     0.9962     0.9962    -0.0000
 19 H      0.9385     1.0000     0.0615     0.9962     0.9962    -0.0000

  Mayer bond orders larger than 0.100000
B(  0-C ,  1-C ) :   0.1063 B(  0-C ,  2-C ) :   1.3819 B(  0-C ,  5-C ) :   1.3829 
B(  0-C , 11-C ) :   1.0412 B(  1-C ,  3-C ) :   1.3819 B(  1-C ,  4-C ) :   1.3829 
B(  1-C , 10-C ) :   1.0412 B(  2-C ,  3-C ) :   0.1029 B(  2-C ,  4-C ) :   1.4572 
B(  2-C ,  6-H ) :   0.9696 B(  3-C ,  5-C ) :   1.4572 B(  3-C ,  7-H ) :   0.9696 
B(  4-C ,  5-C ) :   0.1040 B(  4-C ,  8-H ) :   0.9686 B(  5-C ,  9-H ) :   0.9686 
B( 10-C , 12-H ) :   0.9677 B( 10-C , 14-C ) :   1.9305 B( 11-C , 13-H ) :   0.9677 
B( 11-C , 15-C ) :   1.9305 B( 14-C , 16-H ) :   0.9738 B( 14-C , 18-H ) :   0.9758 
B( 15-C , 17-H ) :   0.9738 B( 15-C , 19-H ) :   0.9758 

-------
TIMINGS
-------

Total SCF time: 0 days 0 hours 0 min 2 sec 

Total time                  ....       2.057 sec
Sum of individual times     ....       2.020 sec  ( 98.2%)

SCF preparation             ....       0.439 sec  ( 21.4%)
Fock matrix formation       ....       1.479 sec  ( 71.9%)
  Startup                   ....       0.006 sec  (  0.4% of F)
  Coulomb+Exchange Fock     ....       1.461 sec  ( 98.8% of F)
Diagonalization             ....       0.000 sec  (  0.0%)
Density matrix formation    ....       0.010 sec  (  0.5%)
Total Energy calculation    ....       0.007 sec  (  0.4%)
Population analysis         ....       0.008 sec  (  0.4%)
Orbital Transformation      ....       0.007 sec  (  0.3%)
Orbital Orthonormalization  ....       0.000 sec  (  0.0%)
DIIS solution               ....       0.048 sec  (  2.3%)
SOSCF solution              ....       0.019 sec  (  0.9%)
Finished LeanSCF after   2.1 sec

Maximum memory used throughout the entire LEANSCF-calculation: 6.3 MB


           ************************************************************
           *        Program running with 4 parallel MPI-processes     *
           *              working on a common directory               *
           ************************************************************

------------------------------------------------------------------------------
                         ORCA PROPERTY INTEGRAL CALCULATIONS
------------------------------------------------------------------------------

GBWName                                   ... dvb_pno_eom_ccsd.gbw
Number of atoms                           ...     20
Number of basis functions                 ...     60
Max core memory                           ...   2500 MB

Dipole integrals                          ... YES
Quadrupole integrals                      ...  NO
Linear momentum integrals                 ... YES
Angular momentum integrals                ... YES
Higher moments length integrals           ...  NO
Higher moments velocity integrals         ...  NO
Kinetic energy integrals                  ...  NO
GIAO right hand sides                     ...  NO
GIAO dipole derivative integrals          ...  NO
SOC integrals                             ...  NO
EPR diamagnetic integrals (GIAO)          ...  NO
EPR gauge integrals                       ...  NO
Field gradient integrals                  ...  NO (   0 nuclei)
Spin-dipole/Fermi contact integrals       ...  NO (   0 nuclei)
Contact density integrals                 ...  NO (   0 nuclei)
Nucleus-orbit integrals                   ...  NO (   0 nuclei)
Geometric perturbations                   ...  NO (  20 nuclei)

Choice of electric origin   ... Center of mass
Position of electric origin ... (  0.0000,  0.0000,  0.0000) 
Choice of magnetic origin   ... GIAO
Position of magnetic origin ... (  0.0000,  0.0000,  0.0000) 

Calculating integrals                     ... Electric Dipole (Length)     done (  0.0 sec)
Calculating integrals                     ... Linear Momentum              done (  0.0 sec)
Calculating integrals                     ... Angular Momentum  (ElOri)    done (  0.0 sec)

Property integrals calculated in   0.0 sec

Maximum memory used throughout the entire PROPINT-calculation: 5.0 MB


           ************************************************************
           *        Program running with 4 parallel MPI-processes     *
           *              working on a common directory               *
           ************************************************************


--------------------------------------------------------------------------------
                             ORCA-MATRIX DRIVEN CI
--------------------------------------------------------------------------------

--------------------------------
AUTOMATIC CHOICE OF INCORE LEVEL
--------------------------------

Memory available                           ...   1250.00 MB
Memory needed for S+T                      ...      4.65 MB
Memory needed for J+K                      ...      9.42 MB
Memory needed for DIIS                     ...     65.09 MB
Memory needed for 3-ext                    ...      2.98 MB
Memory needed for 4-ext                    ...      1.55 MB
Memory needed for triples                  ...      0.00 MB
 -> Final InCoreLevel    ... 5

Wavefunction type
-----------------
Correlation treatment                      ...      CCSD     
Single excitations                         ... ON
Orbital optimization                       ... OFF
Calculation of Z vector                    ... OFF
Calculation of Brueckner orbitals          ... OFF
Perturbative triple excitations            ... OFF
Calculation of F12 correction              ... OFF
Frozen core treatment                      ... chemical core (20 el)
Reference Wavefunction                     ... RHF
  Internal Orbitals:    10 ...   34 ( 25 MO's/ 50 electrons)
  Virtual  Orbitals:    35 ...   59 ( 25 MO's              )
Number of AO's                             ...     60
Number of electrons                        ...     70
Number of correlated electrons             ...     50

Algorithmic settings
--------------------
Integral transformation                    ... All integrals via the RI transformation
K(C) Formation                             ... RI-DLPNO
   PNO-Integral Storage                    ... ON DISK
   PNO occupation number cut-off           ... 3.330e-07
   Singles PNO occupation number cut-off   ... 9.990e-09
   PNO Mulliken prescreening cut-off       ... 1.000e-03
   Domain cut-off (Mulliken population)    ... 1.000e-03
   PNO Normalization                       ...    1
Maximum number of iterations               ...       200
Convergence tolerance (max. residuum)      ... 1.000e-05
Level shift for amplitude update           ... 2.000e-01
Maximum number of DIIS vectors             ...         7
DIIS turned on at iteration                ...         0
Damping before turning on DIIS             ...     0.500
Damping after turning on DIIS              ...     0.000
Pair specific amplitude update             ... OFF
Natural orbital iterations                 ... OFF
Perturbative natural orbital generation    ... OFF
Printlevel                                 ... 2

Singles Fock matrix elements calculated using PNOs.

Memory handling:
----------------
Maximum memory for working arrays          ...   1250 MB
Data storage in matrix containers          ... UNCOMPRESSED
Data type for integral storage             ... DOUBLE
In-Core Storage of quantities:
   Amplitudes+Sigma Vector      ... YES
   J+K operators                ... YES
   DIIS vectors                 ... YES
   3-external integrals         ... YES
   4-external integrals         ... YES

Localization treatment:
-----------------------
Localization option                        ...    6
Localization threshhold                    ... -1.0e+00
Using relative localization threshhold     ... 1.0e-08
Neglect threshold for strong pairs         ... 1.000e-04 Eh
Prescreening threshold for very weak pairs ... 1.000e-06 Eh

Initializing the integral package          ... done
Copying orbitals
Localizing the valence orbitals
Localizing the valence orbitals
------------------------------------------------------------------------------
                           ORCA ORBITAL LOCALIZATION
------------------------------------------------------------------------------

Input orbitals are from                  ... dvb_pno_eom_ccsd.gbw
Output orbitals are to                   ... dvb_pno_eom_ccsd.loc
Max. number of iterations                ... 128
Localizations seeded randomly            ... off
Convergence tolerance                    ... 1.000e-06
Using relative localization threshhold   ... 1.000e-08
Threshold for strong local MOs           ... 9.500e-01
Threshold for bond MOs                   ... 8.500e-01
Operator                                 ... 0
Orbital range for localization           ... 10 to 34
Localization criterion                   ... FOSTER-BOYS (AUGMENTED HESSIAN)
Doing the dipole integrals     ... o.k.
Initial value of the localization sum :   526.295672
ITERATION   0 : L=  622.7819586717 DL=  9.65e+01 (AVERGE_DL)=    0.5671163516 
ITERATION   1 : L=  643.1066978025 DL=  2.03e+01 (AVERGE_DL)=    0.2602866313 
ITERATION   2 : L=  644.8028979524 DL=  1.70e+00 (AVERGE_DL)=    0.0751930881 
ITERATION   3 : L=  645.3517678694 DL=  5.49e-01 (AVERGE_DL)=    0.0427734309 
ITERATION   4 : L=  645.7404432546 DL=  3.89e-01 (AVERGE_DL)=    0.0359942303 
ITERATION   5 : L=  645.8722240144 DL=  1.32e-01 (AVERGE_DL)=    0.0209587499 
ITERATION   6 : L=  645.9027602222 DL=  3.05e-02 (AVERGE_DL)=    0.0100889722 
ITERATION   7 : L=  645.9102126303 DL=  7.45e-03 (AVERGE_DL)=    0.0049841108 
ITERATION   8 : L=  645.9121313036 DL=  1.92e-03 (AVERGE_DL)=    0.0025289479 
ITERATION   9 : L=  645.9126330821 DL=  5.02e-04 (AVERGE_DL)=    0.0012932884 
ITERATION  10 : L=  645.9127648327 DL=  1.32e-04 (AVERGE_DL)=    0.0006626980 
ITERATION  11 : L=  645.9127994379 DL=  3.46e-05 (AVERGE_DL)=    0.0003396334 
ITERATION  12 : L=  645.9128085155 DL=  9.08e-06 (AVERGE_DL)=    0.0001739497 
ITERATION  13 : L=  645.9128108955 DL=  2.38e-06 (AVERGE_DL)=    0.0000890689 
ITERATION  14 : L=  645.9128115168 DL=  6.21e-07 (AVERGE_DL)=    0.0000455109 
LOCALIZATION SUM CONVERGED

------------------------------------------------------
AUGMENTED HESSIAN OPTIMIZATION OF FOSTER-BOYS ORBITALS
------------------------------------------------------

Spin operator:           0
Orbital window:          10 to 34
Number of iterations:    128
Gradient tolerance:      1.000e-06
Number of pairs:         300
Davidson threshold:      2000
Diagonalization method:  LAPACK
Iter:    0   L: 645.9128115168   Grad. norm: 4.247371e-03
   *** Likely close to a maximum now. ***
       Augmented Hessian eigenvalues:  4.71e-07 -2.76e+00 -3.35e+00 -3.47e+00 ... 
Iter:    1   L: 645.9128117524   Grad. norm: 4.774836e-07
LOCALIZATION HAS CONVERGED.

Eigenvalues of the Hessian:
  0 -2.765e+00
  1 -3.348e+00
  2 -3.466e+00
  3 -5.658e+00
  4 -5.659e+00
  5 -1.058e+01
  6 -1.124e+01
  7 -1.137e+01
  8 -1.435e+01
  9 -1.773e+01
    ...


--------------------------------------------------------------------------------
                    LOCALIZED MOLECULAR ORBITAL COMPOSITIONS
--------------------------------------------------------------------------------

The Mulliken populations for each LMO on each atom are computed
The LMO`s will be ordered according to atom index and type
  (A) Strongly localized MO`s have populations of >=0.950 on one atom
  (B) Two center bond orbitals have populations of >=0.850 on two atoms
  (C) Other MO`s are considered to be `delocalized`

FOUND  -   0 strongly local MO`s
       -  25 two center bond MO`s
       -   0 significantly delocalized MO`s

Bond-like localized orbitals:
MO  34:  19H  -   0.479186  and  15C  -   0.529184
MO  33:  18H  -   0.479192  and  14C  -   0.529179
MO  32:  17H  -   0.480303  and  15C  -   0.527783
MO  31:  16H  -   0.480308  and  14C  -   0.527786
MO  30:  15C  -   0.500624  and  11C  -   0.500551
MO  29:  15C  -   0.500624  and  11C  -   0.500551
MO  28:  14C  -   0.499979  and  10C  -   0.501126
MO  27:  14C  -   0.499979  and  10C  -   0.501126
MO  26:  13H  -   0.481393  and  11C  -   0.527272
MO  25:  12H  -   0.481336  and  10C  -   0.527326
MO  24:  11C  -   0.505383  and   0C  -   0.508913
MO  23:  10C  -   0.505390  and   1C  -   0.508933
MO  22:   9H  -   0.478977  and   5C  -   0.529633
MO  21:   8H  -   0.478961  and   4C  -   0.529645
MO  20:   7H  -   0.479856  and   3C  -   0.528934
MO  19:   6H  -   0.479852  and   2C  -   0.528908
MO  18:   5C  -   0.464842  and   3C  -   0.462985
MO  17:   5C  -   0.464842  and   3C  -   0.462985
MO  16:   5C  -   0.504592  and   0C  -   0.507373
MO  15:   4C  -   0.506991  and   2C  -   0.505898
MO  14:   4C  -   0.458358  and   1C  -   0.458143
MO  13:   4C  -   0.458358  and   1C  -   0.458143
MO  12:   3C  -   0.506492  and   1C  -   0.506559
MO  11:   2C  -   0.459961  and   0C  -   0.457100
MO  10:   2C  -   0.459961  and   0C  -   0.457100
Localized MO's were stored in: dvb_pno_eom_ccsd.loc

Localizing the core orbitals
------------------------------------------------------------------------------
                           ORCA ORBITAL LOCALIZATION
------------------------------------------------------------------------------

Input orbitals are from                  ... dvb_pno_eom_ccsd.loc
Output orbitals are to                   ... dvb_pno_eom_ccsd.loc
Max. number of iterations                ... 128
Localizations seeded randomly            ... off
Convergence tolerance                    ... 1.000e-06
Using relative localization threshhold   ... 1.000e-08
Threshold for strong local MOs           ... 9.500e-01
Threshold for bond MOs                   ... 8.500e-01
Operator                                 ... 0
Orbital range for localization           ... 0 to 9
Localization criterion                   ... FOSTER-BOYS (AUGMENTED HESSIAN)
Doing the dipole integrals     ... o.k.
Initial value of the localization sum :   212.853480
ITERATION   0 : L=  212.8535057636 DL=  2.58e-05 (AVERGE_DL)=    0.0007572556 
ITERATION   1 : L=  212.8535057636 DL=  0.00e+00 (AVERGE_DL)=    0.0000000000 
LOCALIZATION SUM CONVERGED

------------------------------------------------------
AUGMENTED HESSIAN OPTIMIZATION OF FOSTER-BOYS ORBITALS
------------------------------------------------------

Spin operator:           0
Orbital window:          0 to 9
Number of iterations:    128
Gradient tolerance:      1.000e-06
Number of pairs:         45
Davidson threshold:      2000
Diagonalization method:  LAPACK
Iter:    0   L: 212.8535057636   Grad. norm: 3.761456e-04
   *** Likely close to a maximum now. ***
       Augmented Hessian eigenvalues:  3.61e-10 -2.58e+01 -2.58e+01 -2.81e+01 ... 
Iter:    1   L: 212.8535057638   Grad. norm: 1.681873e-14
LOCALIZATION HAS CONVERGED.

Eigenvalues of the Hessian:
  0 -2.581e+01
  1 -2.581e+01
  2 -2.809e+01
  3 -2.809e+01
  4 -2.888e+01
  5 -2.888e+01
  6 -2.888e+01
  7 -2.888e+01
  8 -3.205e+01
  9 -3.205e+01
    ...


--------------------------------------------------------------------------------
                    LOCALIZED MOLECULAR ORBITAL COMPOSITIONS
--------------------------------------------------------------------------------

The Mulliken populations for each LMO on each atom are computed
The LMO`s will be ordered according to atom index and type
  (A) Strongly localized MO`s have populations of >=0.950 on one atom
  (B) Two center bond orbitals have populations of >=0.850 on two atoms
  (C) Other MO`s are considered to be `delocalized`

FOUND  -  10 strongly local MO`s
       -   0 two center bond MO`s
       -   0 significantly delocalized MO`s

Rather strongly localized orbitals:
MO   9:  15C  -   1.001653
MO   8:  14C  -   1.001653
MO   7:  11C  -   1.001616
MO   6:  10C  -   1.001616
MO   5:   5C  -   1.001631
MO   4:   4C  -   1.001631
MO   3:   3C  -   1.001626
MO   2:   2C  -   1.001626
MO   1:   1C  -   1.001566
MO   0:   0C  -   1.001566
Localized MO's were stored in: dvb_pno_eom_ccsd.loc

Warning: reference  - re-canonicalizations have been set to INT 1 VIRT 1
Warning: internal orbitals are localized - no re-canonicalization of internal orbitals
Warning: UsePNO is turned on - no re-canonicalization of internal and virtual orbitals
Fock densities were made 
Making Fock matrix and reference energy:

--------------------------
CLOSED-SHELL FOCK OPERATOR
--------------------------

Time needed for Fock operator              ...            0.168 sec
Reference energy                           ...   -379.768963134

--------------
DLPNO SETTINGS (2015 fully linear scaling implementation)
--------------

TCutMKN:           1.000e-03
TCutPAO:           1.000e-03
TCutPNO:           3.330e-07
TCutPNOSingles:    9.990e-09
TCutEN:            9.700e-01
TCutPAOExt:        1.000e-01
TCutPairs:         1.000e-04
TCutPre:           1.000e-06
TCutOSV:           1.000e-06
TCutDOij:          1.000e-05
TCutDO:            1.000e-02
TCutC:             1.000e-04
TCutCPAO:          1.000e-03
TCutCMO:           1.000e-03
TScaleDOMP2PreScr: 2.000e+00
TScaleMKNMP2PreScr:1.000e+01
TScalePNOMP2PreScr:1.000e+00
PAO overlap thresh 1.000e-08
Using PNOs for Singles Fock computation
Use new domains
Use fully linear algorithm

--------------------------
Mulliken population of the LMOs            ... ok
Performing proximity check                 ... No problems found
Calculating differential overlap integrals ... ok

--------------------------
ELECTRON PAIR PRESCREENING
--------------------------

Dipole-based pair screening          .... used

   TCutDOij = 1.000000e-05
   TCutPre  = 1.000000e-06
   .... Finished loop over pairs
Total time spent in the prescreening                  ...     0.000 sec
sum of pair energies estimated for screened out pairs ...       0.000000000000 Eh
Thresholds for map construction and integral transformation for crude MP2:
   TCutMKN                    ...     1.0e-02
   TCutDO                     ...     2.0e-02
   TCutPairs                  ...     1.0e-04
   TCutPNO_CrudeMP2           ...     3.3e-07
   TCutPNOSingles_CrudeMP2    ...     1.0e-08
--------------------------------
LOCAL RI TRANSFORMATION (IAVPAO)
--------------------------------

Orbital window:      10 to 34
Number of PAOs:      60
Basis functions:     60 (40 shells)
Aux. functions:     620 (220 shells)
Use SHARK:           on
Have SHARK:         yes

Processing maps (0.0 sec)
Average map sizes:
   Aux shells -> MOs              25.0
   Aux shells -> PAOs             60.0
   MOs        -> AO shells        35.2
   PAOs       -> AO shells        38.1

Calculating integrals (0.1 sec, 7.102 MB)
Sorting integrals (0.0 sec, 7.096 MB)
Total time for the integral transformation: 0.1 sec
--------------------------------
INITIAL GUESS AND PNO GENERATION
--------------------------------

PNO truncation parameters                   .... 
    PAOOverlapThresh   =        1.000e-08

    TCutPairs          =        1.000e-04
    TCutPNO            =        3.330e-07
    TCutPNOSingles     =        9.990e-09
    TCutMP2Pairs       =        1.000e-05
    TCutMKN            =        1.000e-02
    TCutDO             =        2.000e-02

Pair selection                          .... not used
Type of local MP2 treatment                 .... semi-local MP2
Strategy for PNO selection                  .... occupation number selection
Pair density normalization                  .... MP2 norm
Spin component scaling                      .... not used

   .... Finished loop over pairs
Making pair pair interaction lists          ... done

                       ===========================
                        189 OF  325 PAIRS ARE KEPT CCSD PAIRS
                         88 OF  325 PAIRS ARE KEPT MP2 PAIRS
                         48 OF  325 PAIRS ARE SKIPPED
                       ===========================

Total time spent in the initial guess                 ...     0.168 sec
SL-MP2 correlation energy (all non-screened pairs)    ...      -0.553979893140 Eh

Initial PNO correlation energy                        ...      -0.549594013634 Eh
sum of pair energies prescreened and skipped MP2 pairs...      -0.000172915766 Eh
sum of pair energies of crude MP2 skipped pairs only  ...      -0.000172915766 Eh
sum of MP2 pair energies for pairs that were not kept ...      -0.004209885296 Eh
sum of PNO error estimates for the kept pairs         ...      -0.000175994210 Eh
                                                          --------------------
sum of all corrections                                         -0.004385879505
Initial total correlation energy                               -0.553979893140
Thresholds for map construction and integral transformation for fine MP2 and CCSD(T) calculation:
   TCutMKN   ...     1.0e-03
   TCutDO    ...     1.0e-02
   TCutPairs ...     1.0e-04
   TCutCMO   ...     1.0e-03
   TCutCPAO  ...     1.0e-03

--------------------------------
LOCAL RI TRANSFORMATION (IAVPAO)
--------------------------------

Orbital window:      10 to 34
Number of PAOs:      60
Basis functions:     60 (40 shells)
Aux. functions:     620 (220 shells)
Use SHARK:           on
Have SHARK:         yes

Processing maps (0.0 sec)
Average map sizes:
   Aux shells -> MOs              24.1
   Aux shells -> PAOs             60.0
   MOs        -> AO shells        35.2
   PAOs       -> AO shells        38.1

Calculating integrals (0.1 sec, 6.870 MB)
Sorting integrals (0.0 sec, 6.863 MB)
Total time for the integral transformation: 0.1 sec
--------------------------------
INITIAL GUESS AND PNO GENERATION
--------------------------------

PNO truncation parameters                   .... 
    PAOOverlapThresh   =        1.000e-08

    TCutPairs          =        1.000e-04
    TCutPNO            =        3.330e-07
    TCutPNOSingles     =        9.990e-09
    TCutMP2Pairs       =        1.000e-05
    TCutMKN            =        1.000e-03
    TCutDO             =        1.000e-02

Pair selection                          .... not used
Type of local MP2 treatment                 .... semi-local MP2
Strategy for PNO selection                  .... occupation number selection
Pair density normalization                  .... MP2 norm
Spin component scaling                      .... not used

   .... Finished loop over pairs

 PNO Occupation Number Statistics: 
  | Av. % of trace(Dij) retained        ...  99.849587823532
  | sigma^2 in % of trace(Dij) retained ...   4.32e-02
  | Av. % of trace(Di) retained         ...  99.999841792664
  | sigma^2 in % of trace(Di) retained  ...   1.17e-08
 Distributions of % trace(Dij) recovered:
  |       >= 99.9  ...   110 ( 58.2 % of all pairs)
  |   [90.0, 99.0) ...     2 (  1.1 % of all pairs)
  |   [99.0, 99.9) ...    77 ( 40.7 % of all pairs)
 Distributions of % trace(Di) recovered :
  |       >= 99.9  ...    25 (100.0 % of all I-pairs )

Making pair pair interaction lists          ... done

                       ===========================
                        189 OF  277 PAIRS ARE KEPT
                       ===========================

Total time spent in the initial guess                 ...     0.492 sec
SL-MP2 correlation energy (all non-screened pairs)    ...      -0.554336707891 Eh

Initial PNO correlation energy                        ...      -0.550102325623 Eh
sum of pair energies estimated for screened out pairs ...      -0.000172915766 Eh
sum of MP2 pair energies for pairs that were not kept ...      -0.004051480538 Eh
sum of PNO error estimates for the kept pairs         ...      -0.000182901731 Eh
                                                          --------------------
sum of all corrections                                         -0.004407298034
Initial total correlation energy                               -0.554509623657
Thresholds for map construction and integral transformation for fine MP2 and CCSD(T) calculation:
   TCutMKN   ...     1.0e-03
   TCutDO    ...     1.0e-02
   TCutPairs ...     1.0e-04
   TCutCMO   ...     1.0e-03
   TCutCPAO  ...     1.0e-03

Time for aux screen maps:            0.001
Time for maps after fine MP2:            0.001
-----------------------------
LOCAL RI TRANSFORMATION (IJV)
-----------------------------

Orbital window:      10 to 34
Basis functions:     60 (40 shells)
Aux. functions:     620 (220 shells)
Use SHARK:           on

Processing maps (0.0 sec)
Average map sizes:
   Aux shells -> MOs(i)           21.4
   Aux shells -> MOs(j)           25.0
   MOs        -> AO shells        35.2

Calculating integrals (0.1 sec, 2.581 MB)
Sorting integrals (0.0 sec, 2.574 MB)
Total time for the integral transformation: 0.1 sec
--------------------------------
LOCAL RI TRANSFORMATION (VABPAO)
--------------------------------

Number of PAOs:      60
Basis functions:     60 (40 shells)
Aux. functions:     620 (220 shells)
Use SHARK:           on

Processing maps (0.0 sec)
Average map sizes:
   Aux shells -> PAOs             59.7
   PAOs       -> AO shells        38.1

Calculating integrals (0.1 sec, 16.911 MB)
Finished


-------------------------------------
Pair Pair Term precalculation with     
RI-(ij|mn) and (im|jn) transformation  
ON THE FLY                             
-------------------------------------

   IBatch   1 (of   1)              ... done (    2.620 sec)
Total EXT                           ...           2.621 sec

IAVPA Available = YES
VABPAO Available= YES
IJV Available   = YES
IJK Available   = NO
PNO3i Available = YES
PNO3j Available = YES
PNO4 Available  = YES
---------------------
RI-PNO TRANSFORMATION
---------------------

Total Number of PNOs                   ...  1793
Average number of PNOs per pair        ...     9
Maximal number of PNOs per pair        ...    16
   #pairs with  1 -  5 PNOs   :   11
   #pairs with  6 - 10 PNOs   :  116
   #pairs with 11 - 15 PNOs   :   52
   #pairs with 16 - 20 PNOs   :   10
   #pairs with 21 - 25 PNOs   :    0
   #pairs with 26 - 30 PNOs   :    0
   #pairs with 31 - 35 PNOs   :    0
   #pairs with 36 - 40 PNOs   :    0
   #pairs with 41 - 45 PNOs   :    0
   #pairs with 46 - 50 PNOs   :    0

Generation of (ij|ab)[P] integrals            ... on
Generation of (ia|bc)[P],(ja|bc)[P] integrals ... on
Storage of 3 and 4 external integrals         ... on
Generation of ALL (ka|bc)[P] integrals        ... on
Keep RI integrals in memory                   ... off

Ibatch:  1 (of  1)
Starting 2-4 index PNO integral generation ... done

Timings:
Total PNO integral transformation time     ...          1.432 sec
Size of the 3-external file                ...         1 MB
Size of the 4-external file                ...         2 MB
Size of the IKJL file                      ...         0 MB
Size of the all 3-external file            ...        21 MB
Size of the 1-external file                ...         1 MB

Making pair/pair overlap matrices          ... done (    0.094 sec)
Size of the pair overlap file              ... 17 MB
Redoing the guess amplitudes               ... done (    0.001 sec)

-------------------------
FINAL STARTUP INFORMATION
-------------------------

E(0)                                       ...   -379.768963134
E(SL-MP2)                                  ...     -0.554336708
E(SL-MP2) including corrections            ...     -0.554509624
Initial E(tot)                             ...   -380.323472758
<T|T>                                      ...      0.229785599
Number of pairs included                   ... 189
Total number of pairs                      ... 325

------------------------------------------------
                  RHF COUPLED CLUSTER ITERATIONS
------------------------------------------------

Number of PNO amplitudes to be optimized   ...        18387
Number of non-PNO amplitudes               ...       118125
Untruncated number of regular amplitudes   ...       203125

Iter       E(tot)           E(Corr)          Delta-E          Residual     Time
  0   -380.323473212     -0.550102780      0.004233928      0.034412249    0.58
                           *** Turning on DIIS ***
  1   -380.414373355     -0.641002922     -0.090900143      0.014454813    0.59
  2   -380.479248656     -0.705878224     -0.064875302      0.006566508    0.59
  3   -380.489040486     -0.715670054     -0.009791830      0.003491961    0.59
  4   -380.496165967     -0.722795535     -0.007125481      0.001388120    0.59
  5   -380.498296196     -0.724925764     -0.002130229      0.000534567    0.59
  6   -380.498568399     -0.725197967     -0.000272203      0.000237832    0.59
  7   -380.498625124     -0.725254692     -0.000056725      0.000091159    0.60
  8   -380.498694926     -0.725324494     -0.000069802      0.000040102    0.60
  9   -380.498704096     -0.725333664     -0.000009170      0.000017190    0.59
 10   -380.498710781     -0.725340349     -0.000006685      0.000009915    0.59
               --- The Coupled-Cluster iterations have converged ---

----------------------
COUPLED CLUSTER ENERGY
----------------------

E(0)                                       ...   -379.768963134
E(CORR)(strong-pairs)                      ...     -0.725340349
E(CORR)(weak-pairs)                        ...     -0.004407298
E(CORR)(corrected)                         ...     -0.729747647
E(TOT)                                     ...   -380.498710781
Singles Norm <S|S>**1/2                    ...      0.022204905  
T1 diagnostic                              ...      0.003140248  

------------------
LARGEST AMPLITUDES
------------------
  30-> 35  30-> 35       0.071155
  29-> 35  29-> 35       0.071155
  27-> 35  27-> 35       0.070831
  28-> 35  28-> 35       0.070831
  32-> 37  32-> 37       0.066026
  31-> 37  31-> 37       0.065965
  18-> 36  18-> 36       0.063651
  17-> 36  17-> 36       0.063651
  20-> 36  20-> 36       0.060893
  19-> 36  19-> 36       0.060877
  30-> 35  29-> 35       0.058167
  28-> 35  27-> 35       0.057958
  18-> 36  17-> 36       0.053489
  21-> 36  21-> 36       0.053131
  22-> 36  22-> 36       0.053055
  30-> 36  30-> 35       0.052326


        !!!!!!!!!!!!!!!!!!!!!!!!!!!!!!!!!!!!!!!!!!!!!!!!!!!!!!!!!!!!!!!!!!!!!!!!!! 
        !  Warning: Linearized densities requested! These are not the proper     !
        !  density matrices for non-variational theories, e.g., CCSD, QCISD.     !
        !  It is better to use the Density = Unrelaxed option in the input.      !
        !!!!!!!!!!!!!!!!!!!!!!!!!!!!!!!!!!!!!!!!!!!!!!!!!!!!!!!!!!!!!!!!!!!!!!!!!! 

NORM  =      1.497811039 sqrt=     1.223850906
W(HF) =      0.667640960
------------------------------------------------------------------------------
                           ORCA POPULATION ANALYSIS
------------------------------------------------------------------------------
Input electron density              ... dvb_pno_eom_ccsd.mdcip
BaseName (.gbw .S,...)              ... dvb_pno_eom_ccsd

                    ********************************
                    * MULLIKEN POPULATION ANALYSIS *
                    ********************************

-----------------------
MULLIKEN ATOMIC CHARGES
-----------------------
   0 C :   -0.000023
   1 C :    0.000043
   2 C :   -0.056383
   3 C :   -0.058488
   4 C :   -0.057256
   5 C :   -0.059458
   6 H :    0.058044
   7 H :    0.057644
   8 H :    0.059981
   9 H :    0.059589
  10 C :   -0.055011
  11 C :   -0.055051
  12 H :    0.056687
  13 H :    0.056577
  14 C :   -0.119773
  15 C :   -0.120018
  16 H :    0.056809
  17 H :    0.056907
  18 H :    0.059638
  19 H :    0.059541
Sum of atomic charges:    0.0000000

--------------------------------
MULLIKEN REDUCED ORBITAL CHARGES
--------------------------------
  0 C s       :     3.136313  s :     3.136313
      pz      :     0.993292  p :     2.863709
      px      :     0.928155
      py      :     0.942262
  1 C s       :     3.135845  s :     3.135845
      pz      :     0.993674  p :     2.864112
      px      :     0.928745
      py      :     0.941692
  2 C s       :     3.144747  s :     3.144747
      pz      :     0.999416  p :     2.911636
      px      :     0.948143
      py      :     0.964076
  3 C s       :     3.144786  s :     3.144786
      pz      :     1.002985  p :     2.913703
      px      :     0.947217
      py      :     0.963500
  4 C s       :     3.143094  s :     3.143094
      pz      :     0.998920  p :     2.914163
      px      :     0.956730
      py      :     0.958513
  5 C s       :     3.142922  s :     3.142922
      pz      :     1.003006  p :     2.916536
      px      :     0.955678
      py      :     0.957852
  6 H s       :     0.941956  s :     0.941956
  7 H s       :     0.942356  s :     0.942356
  8 H s       :     0.940019  s :     0.940019
  9 H s       :     0.940411  s :     0.940411
 10 C s       :     3.145861  s :     3.145861
      pz      :     0.996269  p :     2.909150
      px      :     0.934541
      py      :     0.978340
 11 C s       :     3.145925  s :     3.145925
      pz      :     0.996434  p :     2.909126
      px      :     0.934210
      py      :     0.978482
 12 H s       :     0.943313  s :     0.943313
 13 H s       :     0.943423  s :     0.943423
 14 C s       :     3.153972  s :     3.153972
[...]

General Integration Accuracy     IntAcc      ... 2.680
Radial Grid Type                 RadialGrid  ... OptM3 with GC (2021)
Angular Grid (max. ang.)         AngularGrid ... 1 (Lebedev-50)
Angular grid pruning method      GridPruning ... 4 (adaptive)
Weight generation scheme         WeightScheme... mBecke (2022)
Basis function cutoff            BFCut       ... 1.0000e-11
Integration weight cutoff        WCut        ... 1.0000e-14
Partially contracted basis set               ... on
Rotationally invariant grid construction     ... off
Angular grids for H and He will be reduced by one unit

Total number of grid points                  ...     4950
Total number of batches                      ...       46
Average number of points per batch           ...      107
Average number of grid points per atom       ...      248
UseSFitting                                  ... on

Dressing integrals for EOM-CCSD            ... 
Reference state energy for EOM-DLPNO-CCSD     ...   -380.498554215

done (    1.6)
Building the initial guess                 ... done (    0.0)

Iter    Delta-E          Residual              Time
---------------------------------------------------
  0   0.484139728264   0.115664087923         5.078
  1   0.109617457006   0.009358896960         6.826
  2   0.014921090518   0.006456054931         6.782
  3   0.015405454021   0.008852389886         6.804
  4   0.016328716933   0.006657258196         6.861
  5   0.008378569546   0.003580461827         6.949
  6   0.004327002278   0.001663644891         6.856
  7   0.038114280917   0.039783681661         6.891
  8   0.036293899719   0.029870776031         6.963
  9   0.028805476169   0.010233772439         6.938
 10   0.008734954270   0.002376963757         6.984
 11   0.001915575884   0.000501660876         7.026
 12   0.000402632873   0.000089220872         7.098
 13   0.000074577939   0.000016837435         3.532
 14   0.000014455938   0.000004560885         3.478

      *** CONVERGENCE OF RESIDUAL NORM REACHED ***
        --- The EOM iterations have converged ---

----------------------
EOM-CCSD RESULTS (RHS)
----------------------

IROOT=  1:  0.199783 au     5.436 eV   43847.4 cm**-1
  Amplitude    Excitation
  -0.132515    31 ->  36
  -0.451495    33 ->  35
  -0.128647    33 ->  38
  -0.427191    34 ->  36
  Ground state amplitude: -0.003493
Percentage singles character=     82.25

IROOT=  2:  0.278462 au     7.577 eV   61115.3 cm**-1
  Amplitude    Excitation
   0.666707    34 ->  35
  Ground state amplitude:  0.000159
Percentage singles character=     92.31



*****************
Ground State  LHS
*****************


        !!!!!!!!!!!!!!!!!!!!!!!!!!!!!!!!!!!!!!!!!!!!!!!!!!!!!!!!!!!!!!!!!!!!!!!!!!!!!! 
        ! Warning: Ground LHS states are linear, use DoTDM to get proper ones ! 
        !!!!!!!!!!!!!!!!!!!!!!!!!!!!!!!!!!!!!!!!!!!!!!!!!!!!!!!!!!!!!!!!!!!!!!!!!!!!!! 


*****************
Excited State LHS
*****************


-------------------
APPROXIMATE EOM LHS 
-------------------

        !!!!!!!!!!!!!!!!!!!!!!!!!!!!!!!!!!!!!!!!!!!!!!!!!!!!!!!!!!!!!!!!!!!!!!!!!!!!!! 
        ! Warning: Excited LHS states are approximate, use DoLeft to get proper ones ! 
        !!!!!!!!!!!!!!!!!!!!!!!!!!!!!!!!!!!!!!!!!!!!!!!!!!!!!!!!!!!!!!!!!!!!!!!!!!!!!! 

IROOT=  1:  0.199783 au     5.436 eV   43847.4 cm**-1
  Amplitude    Excitation
  -0.132515    31 ->  36
  -0.451496    33 ->  35
  -0.128647    33 ->  38
  -0.427191    34 ->  36
IROOT=  2:  0.278462 au     7.577 eV   61115.3 cm**-1
  Amplitude    Excitation
   0.666706    34 ->  35

-------------------------
Transition Dipole Moments
-------------------------



--------------------------------------------------------------------
                    SPECTRUM FOR RIGHT TRANSITION MOMENTS
--------------------------------------------------------------------


----------------------------------------------------------------------------------------------------
                     ABSORPTION SPECTRUM VIA TRANSITION ELECTRIC DIPOLE MOMENTS    
----------------------------------------------------------------------------------------------------
     Transition      Energy     Energy  Wavelength fosc(D2)      D2        DX        DY        DZ   
                      (eV)      (cm-1)    (nm)                 (au**2)    (au)      (au)      (au)  
----------------------------------------------------------------------------------------------------
  0-1A  ->  1-1A    5.436381   43847.4   228.1   0.000308576   0.00232   0.03748   0.03020  -0.00000
  0-1A  ->  2-1A    7.577335   61115.3   163.6   0.940320528   5.06525  -2.25060  -0.00671  -0.00000


--------------------------------------------------------------------
                    SPECTRUM FOR LEFT TRANSITION MOMENTS
--------------------------------------------------------------------


----------------------------------------------------------------------------------------------------
                     ABSORPTION SPECTRUM VIA TRANSITION ELECTRIC DIPOLE MOMENTS    
----------------------------------------------------------------------------------------------------
     Transition      Energy     Energy  Wavelength fosc(D2)      D2        DX        DY        DZ   
                      (eV)      (cm-1)    (nm)                 (au**2)    (au)      (au)      (au)  
----------------------------------------------------------------------------------------------------
  0-1A  ->  1-1A    5.436381   43847.4   228.1   0.000473746   0.00356   0.04505   0.03908  -0.00000
  0-1A  ->  2-1A    7.577335   61115.3   163.6   1.098693042   5.91837  -2.43276  -0.00639  -0.00000


--------------------------------------------------------------------
                    SPECTRUM FOR LEFT-RIGHT TRANSITION MOMENTS
--------------------------------------------------------------------


----------------------------------------------------------------------------------------------------
                     ABSORPTION SPECTRUM VIA TRANSITION ELECTRIC DIPOLE MOMENTS    
----------------------------------------------------------------------------------------------------
     Transition      Energy     Energy  Wavelength fosc(D2)      D2        DX        DY        DZ   
                      (eV)      (cm-1)    (nm)                 (au**2)    (au)      (au)      (au)  
----------------------------------------------------------------------------------------------------
  0-1A  ->  1-1A    5.436381   43847.4   228.1   0.000382092   0.00287   0.03748   0.03020  -0.00000
  0-1A  ->  2-1A    7.577335   61115.3   163.6   1.016426825   5.47522  -2.25060  -0.00671  -0.00000
*The positivity of oscillator strengths is not guaranteed in non-Hermitian theories.


--------------------------------------------------------------------------------
                                    TIMINGS
--------------------------------------------------------------------------------


Total execution time                   ...      112.508 sec

Localization of occupied MO's          ...        0.209 sec (  0.2%)
Fock Matrix Formation                  ...        0.168 sec (  0.1%)
Global overlap, Fock, MKN matrices     ...        0.255 sec (  0.2%)
Differential overlap integrals         ...        0.809 sec (  0.7%)
Organizing maps                        ...        0.004 sec (  0.0%)
RI 3-index integral generations        ...        0.424 sec (  0.4%)
RI-PNO integral transformation         ...        4.517 sec (  4.0%)
Initial Guess                          ...        0.665 sec (  0.6%)
DIIS Solver                            ...        0.107 sec (  0.1%)
State Vector Update                    ...        0.002 sec (  0.0%)
Sigma-vector construction              ...        6.385 sec (  5.7%)
  <D|H|D>(0-ext)                       ...        1.387 sec ( 21.7% of sigma)
  <D|H|D>(2-ext Fock)                  ...        0.001 sec (  0.0% of sigma)
  <D|H|D>(2-ext)                       ...        0.499 sec (  7.8% of sigma)
  <D|H|D>(4-ext)                       ...        0.025 sec (  0.4% of sigma)
  <D|H|D>(4-ext-corr)                  ...        0.103 sec (  1.6% of sigma)
  CCSD doubles correction              ...        0.169 sec (  2.6% of sigma)
  <S|H|S>                              ...        0.147 sec (  2.3% of sigma)
  <S|H|D>(1-ext)                       ...        0.242 sec (  3.8% of sigma)
  <D|H|S>(1-ext)                       ...        0.007 sec (  0.1% of sigma)
  <S|H|D>(3-ext)                       ...        0.018 sec (  0.3% of sigma)
  Fock-dressing                        ...        1.823 sec ( 28.5% of sigma)
  Singles amplitudes                   ...        0.136 sec (  2.1% of sigma)
  (ik|jl)-dressing                     ...        1.143 sec ( 17.9% of sigma)
  (ij|ab),(ia|jb)-dressing             ...        0.658 sec ( 10.3% of sigma)
  Pair energies                        ...        0.002 sec (  0.0% of sigma)
Total Time for computing EOM-CCSD      ...       97.580 sec ( 86.7% of ALL)
  Dressing integrals                   ...        1.624 sec (  1.7% of (EOM))
  Initial EOM-Guess                    ...        0.004 sec (  0.0% of (EOM))
  EOM Singles                          ...        1.591 sec (  1.6% of (EOM))
  EOM Doubles                          ...       91.955 sec ( 94.2% of (EOM))
  Build Hamiltonian                    ...        0.264 sec (  0.3% of (EOM))
  Diagonalize Hamiltonian              ...        0.075 sec (  0.1% of (EOM))
  Ritz vectors                         ...        0.275 sec (  0.3% of (EOM))
  Residual vectors                     ...        0.275 sec (  0.3% of (EOM))
  Orthogonalization                    ...        0.572 sec (  0.6% of (EOM))
One-particle density matrix            ...        0.025 sec (  0.0%)


Maximum memory used throughout the entire MDCI-calculation: 478.6 MB

-------------------------   --------------------
FINAL SINGLE POINT ENERGY      -380.298927429936
-------------------------   --------------------



           ************************************************************
           *        Program running with 4 parallel MPI-processes     *
           *              working on a common directory               *
           ************************************************************

------------------------------------------------------------------------------
                              ORCA PROPERTY CALCULATIONS
------------------------------------------------------------------------------

GBWName                                 ... dvb_pno_eom_ccsd.gbw
Number of atoms                         ...     20
Number of basis functions               ...     60
Max core memory                         ...   2500 MB

Electric properties:
Dipole moment                           ... YES
Quadrupole moment                       ...  NO
Static polarizability (Dipole/Dipole)   ...  NO
Static polarizability (Dipole/Quad.)    ...  NO
Static polarizability (Quad./Quad.)     ...  NO
Static polarizability (Velocity)        ...  NO

Atomic electric properties:
Dipole moment                           ...  NO
Quadrupole moment                       ...  NO
Static polarizability                   ...  NO

Choice of electric origin               ... Center of mass
Position of electric origin             ...     0.000000     0.000000     0.000000

General magnetic properties:
Magnetizability                         ...  NO

EPR properties:
g-Tensor (aka g-matrix)                 ...  NO
Zero-Field splitting spin-orbit         ...  NO
Zero-field splitting spin-spin          ...  NO
Hyperfine couplings                     ...  NO (   0 nuclei)
Quadrupole couplings                    ...  NO (   0 nuclei)
Contact density                         ...  NO (   0 nuclei)

NMR properties:
Chemical shifts                         ...  NO (   0 nuclei)
Spin-rotation constants                 ...  NO (   0 nuclei)
Spin-spin couplings                     ...  NO (   0 nuclei,    0 pairs)

Choice of magnetic origin               ... GIAO
Position of magnetic origin             ...     0.000000     0.000000     0.000000

Properties with geometric perturbations:
SCF Hessian                             ...  NO
IR spectrum                             ...  NO
VCD spectrum                            ...  NO
X-ray spectroscopy properties:
SCF XES/XAS/RIXS spectra                ...  NO


-------------
DIPOLE MOMENT
-------------

Method             : SCF
Type of density    : Electron Density
Multiplicity       :   1
Irrep              :   0
Energy             :  -379.7689631330782163 Eh
Relativity type    : 
Basis              : AO
                                X                 Y                 Z
Electronic contribution:     -0.000000000       0.000000000       0.000000000
Nuclear contribution   :      0.000000000       0.000000000       0.000000000
                        -----------------------------------------
Total Dipole Moment    :     -0.000000000       0.000000000       0.000000000
                        -----------------------------------------
Magnitude (a.u.)       :      0.000000000
Magnitude (Debye)      :      0.000000000



--------------------
Rotational spectrum 
--------------------
 
Rotational constants in cm-1:             0.153923             0.022856             0.019901 
Rotational constants in MHz :          4614.502149           685.206697           596.615374 

Dipole components along the rotational axes: 
x,y,z [a.u.] :     0.000000     0.000000     0.000000 
x,y,z [Debye]:     0.000000     0.000000     0.000000 

 

-------------
DIPOLE MOMENT
-------------

Method             : MDCI(SD)
Type of density    : Electron Density
Multiplicity       :   1
Level              : Linearized density
Irrep              :   0
Energy             :     0.0000000000000000 Eh
Relativity type    : 
Basis              : AO
                                X                 Y                 Z
Electronic contribution:      0.005717886       0.013967529       0.000000000
Nuclear contribution   :      0.000000000       0.000000000       0.000000000
                        -----------------------------------------
Total Dipole Moment    :      0.005717886       0.013967529       0.000000000
                        -----------------------------------------
Magnitude (a.u.)       :      0.015092584
Magnitude (Debye)      :      0.038362299



--------------------
Rotational spectrum 
--------------------
 
Rotational constants in cm-1:             0.153923             0.022856             0.019901 
Rotational constants in MHz :          4614.502149           685.206697           596.615374 

Dipole components along the rotational axes: 
x,y,z [a.u.] :    -0.005783     0.013941     0.000000 
x,y,z [Debye]:    -0.014699     0.035435     0.000000 

 

Dipole moment calculation done in   0.0 sec 

Maximum memory used throughout the entire PROP-calculation: 3.9 MB

--------------------------------
SUGGESTED CITATIONS FOR THIS RUN
--------------------------------

Below you find a list of papers that are relevant to this ORCA run
We neither can nor want to force you to cite these papers, but we appreciate if you do
You receive ORCA, which is the product of decades of hard work by many enthusiastic individuals, for free
The only thing we kindly ask in return is that you cite our papers,
We deeply appreciate it, if you show your appreciation for ORCA by not just citing the generic ORCA reference.

Please note that relegating all ORCA citations to the supporting information does *not* help us.
SI sections are not indexed - citations you put there will not count into any citation statistics
But we need these citations in order to attract the funding resources that allow us to do what we are doing

Therefore, if you are a happy ORCA user, please consider citing a few of the papers listed below in the main body of your paper

In addition to the list printed below, the program has created the file dvb_pno_eom_ccsd.bibtex that contains the list in bibtex format
You can import this file easily into all common literature databanks and citation aid programs


List of essential papers. We consider these as the minimum necessary citations

  1. Neese,F.
     Software update: the ORCA program system, version 5.0
     WIRES Comput. Molec. Sci., 2022 12(1)e1606
     doi.org/10.1002/wcms.1606

List of papers to cite with high priority. The work reported in these papers was absolutely
necessary for this run to complete.
Our perspective: the developers of density functionals and basis sets usually get cited in chemistry papers
Good! But without the algorithms to do something with them, the functionals or basis sets would not do anything.
Hence, in our opinion, the algorithm design and method developments papers are equally worthy of getting cited

  1. Neese,F.; Hansen,A.; Liakos,D.G.
     Efficient and accurate approximations to the local coupled cluster singles doubles method using a truncated pair natural orbital basis
     J. Chem. Phys., 2009 131 064103
     doi.org/10.1063/1.3173827
  2. Neese,F.; Wennmohs,F.; Hansen,A.
     Efficient and accurate local approximations to coupled-electron pair approaches: An attempt to revive the pair natural orbital method
     J. Chem. Phys., 2009 130 114108
     doi.org/10.1063/1.3086717
  3. Riplinger,C.; Neese,F.
     An efficient and near linear scaling pair natural orbital based local coupled cluster method
     J. Chem. Phys., 2013 138(3)Art. No. 034106
     doi.org/10.1063/1.4773581
  4. Datta,D.; Kossmann,S.; Neese,F.
     Analytic energy derivatives for the calculation of the first-order molecular properties using the domain-based local pair-natural orbital coupled-cluster theory
     J. Chem. Phys., 2016 145 
     doi.org/10.1063/1.4962369
  5. Riplinger,C.; Pinski,P.; Becker,U.; Valeev,E.F.; Neese,F.
     Sparse maps-A systematic infrastructure for reduced-scaling electronic structure methods. II. Linear scaling domain based pair natural orbital coupled cluster theory
     J. Chem. Phys., 2016 144 
     doi.org/10.1063/1.4939030
  6. Bistoni,G.; Riplinger,C.; Minenkov,Y.; Cavallo,L.; Auer,A.A.; Neese,F.
     Treating Subvalence Correlation Effects in Domain Based Pair Natural Orbital Coupled Cluster Calculations: An Out-of-the-Box Approach
     J. Theo. Comp. Chem., 2017 13 3220-3227
     doi.org/10.1021/acs.jctc.7b00352
  7. Neese,F.
     The SHARK Integral Generation and Digestion System
     J. Comp. Chem., 2022  1-16
     doi.org/10.1002/jcc.26942

List of suggested additional citations. These are papers that are important in the 'surrounding' of 
of this run, or papers that preceded the highly important papers. If you like your results we are grateful for a citation.

  1. Neese,F.
     The ORCA program system
     WIRES Comput. Molec. Sci., 2012 2(1)73-78
     doi.org/10.1002/wcms.81
  2. Neese,F.
     Software update: the ORCA program system, version 4.0
     WIRES Comput. Molec. Sci., 2018 8(1)1-6
     doi.org/10.1002/wcms.1327
  3. Neese,F.; Wennmohs,F.; Becker,U.; Riplinger,C.
     The ORCA quantum chemistry program package
     J. Chem. Phys., 2020 152 Art. No. L224108
     doi.org/10.1063/5.0004608

List of optional additional citations

  1. Neese,F.
     Approximate second-order SCF convergence for spin unrestricted wavefunctions
     Chem. Phys. Lett., 2000 325(1-3)93-98
     doi.org/10.1016/s0009-2614(00)00662-x

Timings for individual modules:

Sum of individual times          ...      120.552 sec (=   2.009 min)
Startup calculation              ...        1.761 sec (=   0.029 min)   1.5 %
SCF iterations                   ...        3.505 sec (=   0.058 min)   2.9 %
Property integrals               ...        0.795 sec (=   0.013 min)   0.7 %
Property calculations            ...        0.807 sec (=   0.013 min)   0.7 %
MDCI module                      ...      113.685 sec (=   1.895 min)  94.3 %
                             ****ORCA TERMINATED NORMALLY****
TOTAL RUN TIME: 0 days 0 hours 2 minutes 1 seconds 501 msec
