
                                 *****************
                                 * O   R   C   A *
                                 *****************

                                            #,                                       
                                            ###                                      
                                            ####                                     
                                            #####                                    
                                            ######                                   
                                           ########,                                 
                                     ,,################,,,,,                         
                               ,,#################################,,                 
                          ,,##########################################,,             
                       ,#########################################, ''#####,          
                    ,#############################################,,   '####,        
                  ,##################################################,,,,####,       
                ,###########''''           ''''###############################       
              ,#####''   ,,,,##########,,,,          '''####'''          '####       
            ,##' ,,,,###########################,,,                        '##       
           ' ,,###''''                  '''############,,,                           
         ,,##''                                '''############,,,,        ,,,,,,###''
      ,#''                                            '''#######################'''  
     '                                                          ''''####''''         
             ,#######,   #######,   ,#######,      ##                                
            ,#'     '#,  ##    ##  ,#'     '#,    #''#        ,####,   ,####,        
            ##       ##  ##   ,#'  ##            #'  '#       #'       #'  '#        
            ##       ##  #######   ##           ,######,      #####,   #    #        
            '#,     ,#'  ##    ##  '#,     ,#' ,#      #,     #,   #   #,  ,#        
             '#######'   ##     ##  '#######'  #'      '#     '####' # '####'        



                #########################################################
                #                        -***-                          #
                #          Department of theory and spectroscopy        #
                #                                                       #
                #                      Frank Neese                      #
                #                                                       #
                #     Directorship, Architecture, Infrastructure        #
                #                    SHARK, DRIVERS                     #
                #        Core code/Algorithms in most modules           #
                #                                                       #
                #        Max Planck Institute fuer Kohlenforschung      #
                #                Kaiser Wilhelm Platz 1                 #
                #                 D-45470 Muelheim/Ruhr                 #
                #                      Germany                          #
                #                                                       #
                #                  All rights reserved                  #
                #                        -***-                          #
                #########################################################


                         Program Version 6.0.0  -   RELEASE  -


 With contributions from (in alphabetic order):
   Daniel Aravena         : Magnetic Suceptibility
   Michael Atanasov       : Ab Initio Ligand Field Theory (pilot matlab implementation)
   Alexander A. Auer      : GIAO ZORA, VPT2 properties, NMR spectrum
   Ute Becker             : All parallelization in ORCA, NUMFREQ, NUMCALC
   Giovanni Bistoni       : ED, misc. LED, open-shell LED, HFLD
   Martin Brehm           : Molecular dynamics
   Dmytro Bykov           : pre 5.0 version of the SCF Hessian
   Marcos Casanova-Páez   : Triplet and SCS-CIS(D). UHF-(DLPNO)-IP/EA/STEOM-CCSD. UHF-CVS-IP/STEOM-CCSD
   Vijay G. Chilkuri      : MRCI spin determinant printing, contributions to CSF-ICE
   Pauline Colinet        : FMM embedding
   Dipayan Datta          : RHF DLPNO-CCSD density
   Achintya Kumar Dutta   : EOM-CC, STEOM-CC
   Nicolas Foglia         : Exact transition moments, OPA infrastructure, MCD improvements
   Dmitry Ganyushin       : Spin-Orbit,Spin-Spin,Magnetic field MRCI
   Miquel Garcia          : C-PCM and meta-GGA Hessian, CCSD/C-PCM, Gaussian charge scheme
   Tiago L. C. Gouveia    : GS-ROHF, GS-ROCIS
   Yang Guo               : DLPNO-NEVPT2, F12-NEVPT2, CIM, IAO-localization
   Andreas Hansen         : Spin unrestricted coupled pair/coupled cluster methods
   Ingolf Harden          : AUTO-CI MPn and infrastructure 
   Benjamin Helmich-Paris : MC-RPA, TRAH-(SCF,CASSCF), AVAS, COSX integrals, SCF dyn. polar.
   Lee Huntington         : MR-EOM, pCC
   Robert Izsak           : Overlap fitted RIJCOSX, COSX-SCS-MP3, EOM
   Riya Kayal             : Wick's Theorem for AUTO-CI, AUTO-CI UHF-CCSDT
   Emily Kempfer          : AUTO-CI, RHF CISDT and CCSDT
   Christian Kollmar      : KDIIS, OOCD, Brueckner-CCSD(T), CCSD density, CASPT2, CASPT2-K, improved NEVPT2
   Axel Koslowski         : Symmetry handling
   Simone Kossmann        : Meta GGA functionals, TD-DFT gradient, OOMP2, (MP2 Hessian; deprecated post 5.0)
   Lucas Lang             : DCDCAS
   Marvin Lechner         : AUTO-CI (C++ implementation), FIC-MRCC
   Spencer Leger          : CASSCF response
   Dagmar Lenk            : GEPOL surface, SMD, ORCA-2-JSON
   Dimitrios Liakos       : Extrapolation schemes; Compound Job, initial MDCI parallelization
   Dimitrios Manganas     : Further ROCIS development; embedding schemes. LFT, Crystal Embedding
   Dimitrios Pantazis     : SARC Basis sets
   Anastasios Papadopoulos: AUTO-CI, single reference methods and gradients
   Taras Petrenko         : pre 6.0 DFT Hessian and TD-DFT gradient, (ASA, deprecated), ECA, 1-Electron XAS/XES, NRVS
   Peter Pinski           : DLPNO-MP2, DLPNO-MP2 Gradient
   Christoph Reimann      : Effective Core Potentials
   Marius Retegan         : Local ZFS, SOC
   Christoph Riplinger    : Optimizer, TS searches, QM/MM, DLPNO-CCSD(T), (RO)-DLPNO pert. Triples
   Michael Roemelt        : Original ROCIS implementation
   Masaaki Saitow         : Open-shell DLPNO-CCSD energy and density
   Barbara Sandhoefer     : DKH picture change effects
   Kantharuban Sivalingam : CASSCF convergence/infrastructure, NEVPT2 and variants, FIC-MRCI
   Bernardo de Souza      : ESD, SOC TD-DFT
   Georgi Stoychev        : AutoAux, RI-MP2 NMR, DLPNO-MP2 response, X2C
   Van Anh Tran           : RI-MP2 g-tensors
   Willem Van den Heuvel  : Paramagnetic NMR
   Zikuan Wang            : NOTCH, Electric field optimization 
   Frank Wennmohs         : Technical directorship and infrastructure
   Hang Xu                : AUTO-CI-Response properties 


 We gratefully acknowledge several colleagues who have allowed us to
 interface, adapt or use parts of their codes:
   Stefan Grimme, W. Hujo, H. Kruse, P. Pracht,  : VdW corrections, initial TS optimization,
                  C. Bannwarth, S. Ehlert,         DFT functionals, gCP, sTDA/sTD-DF
                  L. Wittmann, M. Mueller
   Ed Valeev, F. Pavosevic, A. Kumar             : LibInt (2-el integral package), F12 methods
   Garnet Chan, S. Sharma, J. Yang, R. Olivares  : DMRG
   Ulf Ekstrom                                   : XCFun DFT Library
   Mihaly Kallay                                 : mrcc  (arbitrary order and MRCC methods)
   Frank Weinhold                                : gennbo (NPA and NBO analysis)
   Simon Mueller                                 : openCOSMO-RS
   Christopher J. Cramer and Donald G. Truhlar   : smd solvation model
   Lars Goerigk                                  : TD-DFT with DH, B97 family of functionals
   V. Asgeirsson, H. Jonsson                     : NEB implementation
   FAccTs GmbH                                   : IRC, NEB, NEB-TS, DLPNO-Multilevel, CI-OPT
                                                   MM, QMMM, 2- and 3-layer-ONIOM, Crystal-QMMM,
                                                   LR-CPCM, SF, NACMEs, symmetry and pop. for TD-DFT,
                                                   nearIR, NL-DFT gradient (VV10), updates on ESD,
                                                   ML-optimized integration grids, MBIS, APM,
                                                   GOAT, DOCKER, SOLVATOR, interface openCOSMO-RS
   S Lehtola, MJT Oliveira, MAL Marques          : LibXC Library
   Liviu Ungur et al                             : ANISO software


 Your calculation uses the libint2 library for the computation of 2-el integrals
 For citations please refer to: http://libint.valeyev.net

 Your ORCA version has been built with support for libXC version: 6.2.2
 For citations please refer to: https://libxc.gitlab.io

 This ORCA versions uses:
   CBLAS   interface :  Fast vector & matrix operations
   LAPACKE interface :  Fast linear algebra routines
   SCALAPACK package :  Parallel linear algebra routines
   Shared memory     :  Shared parallel matrices


Warning: RI is on but no J-basis has been assigned. Assigning Def2/J (nothing to worry about!)
================================================================================

----- Orbital basis set information -----
Your calculation utilizes the basis: STO-3G
   H-Ne       : W. J. Hehre, R. F. Stewart and J. A. Pople, J. Chem. Phys. 2657 (1969).
   Na-Ar      : W. J. Hehre, R. Ditchfield, R. F. Stewart and J. A. Pople, J. Chem. Phys. 2769 (1970).
   K,Ca,Ga-Kr : W. J. Pietro, B. A. Levy, W. J. Hehre and R. F. Stewart, J. Am. Chem. Soc. 19, 2225 (1980).
   Sc-Zn,Y-Cd : W. J. Pietro and W. J. Hehre, J. Comp. Chem. 4, 241 (1983).

----- AuxJ basis set information -----
Your calculation utilizes the auxiliary basis: def2/J
   F. Weigend, Phys. Chem. Chem. Phys. 8, 1057 (2006).

================================================================================
                                        WARNINGS
                       Please study these warnings very carefully!
================================================================================


WARNING: Geometry optimizations can change the point-group symmetry!


WARNING: Geometry Optimization
  ===> : Switching off AutoStart
         For restart on a previous wavefunction, please use MOREAD

================================================================================
                                       INPUT FILE
================================================================================
NAME = dvb_gopt.inp
|  1> ! rks b3lyp sto-3g usesym opt
|  2> 
|  3> %output
|  4>  printlevel normal
|  5>  print[ p_mos ] 1
|  6>  print[ p_overlap ] 1
|  7>  end 
|  8> 
|  9> * xyz 0 1
| 10>  C       -1.4152533224   0.2302217854   0.0000000000
| 11>  C        1.4152533224  -0.2302217854   0.0000000000
| 12>  C       -0.4951331558   1.3144608674   0.0000000000
| 13>  C        0.4951331558  -1.3144608674   0.0000000000
| 14>  C        0.8894090436   1.0909493743   0.0000000000
| 15>  C       -0.8894090436  -1.0909493743   0.0000000000
| 16>  H       -0.8795511985   2.3437343748   0.0000000000
| 17>  H        0.8795511985  -2.3437343748   0.0000000000
| 18>  H        1.5779041557   1.9450061275   0.0000000000
| 19>  H       -1.5779041557  -1.9450061275   0.0000000000
| 20>  C        2.8845844962  -0.5210893778   0.0000000000
| 21>  C       -2.8845844962   0.5210893778   0.0000000000
| 22>  H        3.1403356810  -1.5919605685   0.0000000000
| 23>  H       -3.1403356810   1.5919605685   0.0000000000
| 24>  C        3.8800428103   0.3822535424   0.0000000000
| 25>  C       -3.8800428103  -0.3822535424   0.0000000000
| 26>  H        3.6946765858   1.4624389570   0.0000000000
| 27>  H       -3.6946765858  -1.4624389570   0.0000000000
| 28>  H        4.9316453546   0.0711049543   0.0000000000
| 29>  H       -4.9316453546  -0.0711049543   0.0000000000
| 30> *
| 31> %pal
| 32>  nprocs 1
| 33> end
| 34> 
| 35>                          ****END OF INPUT****
================================================================================
-----------------------
SYMMETRY HANDLING SETUP
-----------------------
Auto-detected point group .... C2h
Reduced point group       .... C2h
Root mean square distance .... 0.000000000000000 au
Maximum distance          .... 0.000000000000000 au
Threshold in use          .... 0.000100000000000 au
Time for symmetry setup   .... 0.001 s


Symmetry-perfected Cartesians for point group C2h:

Index  Symbol         Symmetry-perfected Cartesians (x, y, z; au)
   0     C      -2.67444118945816    0.43505612446839    0.00000000000000
   1     C       2.67444118945816   -0.43505612446839    0.00000000000000
   2     C      -0.93566606428616    2.48397105314258    0.00000000000000
   3     C       0.93566606428616   -2.48397105314258    0.00000000000000
   4     C       1.68073951343683    2.06159554339975    0.00000000000000
   5     C      -1.68073951343683   -2.06159554339975    0.00000000000000
   6     H      -1.66211088592721    4.42901609902915    0.00000000000000
   7     H       1.66211088592721   -4.42901609902915    0.00000000000000
   8     H       2.98180671984924    3.67552890977372    0.00000000000000
   9     H      -2.98180671984924   -3.67552890977372    0.00000000000000
  10     C       5.45107470797321   -0.98471621533742    0.00000000000000
  11     C      -5.45107470797321    0.98471621533742    0.00000000000000
  12     H       5.93437440567109   -3.00836949046658    0.00000000000000
  13     H      -5.93437440567109    3.00836949046658    0.00000000000000
  14     C       7.33221829935717    0.72235450885726    0.00000000000000
  15     C      -7.33221829935717   -0.72235450885726    0.00000000000000
  16     H       6.98192690057320    2.76360911630744    0.00000000000000
  17     H      -6.98192690057320   -2.76360911630744    0.00000000000000
  18     H       9.31945910981896    0.13436889039199    0.00000000000000
  19     H      -9.31945910981896   -0.13436889039199    0.00000000000000

Index  Symbol         Symmetry-perfected Cartesians (x, y, z; Ang)
   0     C      -1.41525332240000    0.23022178540000    0.00000000000000
   1     C       1.41525332240000   -0.23022178540000    0.00000000000000
   2     C      -0.49513315580000    1.31446086740000    0.00000000000000
   3     C       0.49513315580000   -1.31446086740000    0.00000000000000
   4     C       0.88940904360000    1.09094937430000    0.00000000000000
   5     C      -0.88940904360000   -1.09094937430000    0.00000000000000
   6     H      -0.87955119850000    2.34373437480000    0.00000000000000
   7     H       0.87955119850000   -2.34373437480000    0.00000000000000
   8     H       1.57790415570000    1.94500612750000    0.00000000000000
   9     H      -1.57790415570000   -1.94500612750000    0.00000000000000
  10     C       2.88458449620000   -0.52108937780000    0.00000000000000
  11     C      -2.88458449620000    0.52108937780000    0.00000000000000
  12     H       3.14033568100000   -1.59196056850000    0.00000000000000
  13     H      -3.14033568100000    1.59196056850000    0.00000000000000
  14     C       3.88004281030000    0.38225354240000    0.00000000000000
  15     C      -3.88004281030000   -0.38225354240000    0.00000000000000
  16     H       3.69467658580000    1.46243895700000    0.00000000000000
  17     H      -3.69467658580000   -1.46243895700000    0.00000000000000
  18     H       4.93164535460000    0.07110495430000    0.00000000000000
  19     H      -4.93164535460000   -0.07110495430000    0.00000000000000

                       *****************************
                       * Geometry Optimization Run *
                       *****************************

Geometry optimization settings:
Update method            Update   .... BFGS
Choice of coordinates    CoordSys .... (2022) Redundant Internals
Initial Hessian          InHess   .... Almloef's Model
Max. no of cycles        MaxIter  .... 60
Use symmetry                      .... yes
Preserve point group              .... no
Clean up coordinates              .... yes
Clean up gradient                 .... no

Convergence Tolerances:
Energy Change            TolE     ....  5.0000e-06 Eh
Max. Gradient            TolMAXG  ....  3.0000e-04 Eh/bohr
RMS Gradient             TolRMSG  ....  1.0000e-04 Eh/bohr
Max. Displacement        TolMAXD  ....  4.0000e-03 bohr
RMS Displacement         TolRMSD  ....  2.0000e-03 bohr
Strict Convergence                .... False

------------------------------------------------------------------------------
                        ORCA OPTIMIZATION COORDINATE SETUP
------------------------------------------------------------------------------

The optimization will be done in redundant internal coordinates (2022)
Making redundant internal coordinates   ...  (2022 redundants) done
Evaluating the initial hessian          ...  (Almloef) done
Evaluating the coordinates              ...  done
Calculating the B-matrix                .... done
Calculating the G-matrix                .... done
Diagonalizing the G-matrix              .... done
Small eigenvalue found = 1.562e-02
The first mode is                       ....   36
The number of degrees of freedom        ....   54

    -----------------------------------------------------------------
                    Redundant Internal Coordinates


    -----------------------------------------------------------------
         Definition                    Initial Value    Approx d2E/dq
    -----------------------------------------------------------------
      1. B(C   2,C   0)                  1.4220         0.555421   
      2. B(C   3,C   1)                  1.4220         0.555421   
      3. B(C   4,C   2)                  1.4025         0.596826   
      4. B(C   4,C   1)                  1.4220         0.555557   
      5. B(C   5,C   0)                  1.4220         0.555557   
      6. B(C   5,C   3)                  1.4025         0.596826   
      7. B(H   6,C   2)                  1.0987         0.348750   
      8. B(H   7,C   3)                  1.0987         0.348750   
      9. B(H   8,C   4)                  1.0970         0.350941   
     10. B(H   9,C   5)                  1.0970         0.350941   
     11. B(C  10,C   1)                  1.4978         0.420416   
     12. B(C  11,C   0)                  1.4978         0.420416   
     13. B(H  12,C  10)                  1.1010         0.345854   
     14. B(H  13,C  11)                  1.1010         0.345854   
     15. B(C  14,C  10)                  1.3442         0.739188   
     16. B(C  15,C  11)                  1.3442         0.739188   
     17. B(H  16,C  14)                  1.0960         0.352282   
     18. B(H  17,C  15)                  1.0960         0.352282   
     19. B(H  18,C  14)                  1.0967         0.351386   
     20. B(H  19,C  15)                  1.0967         0.351386   
     21. A(C   2,C   0,C   5)          117.9778         0.417324   
     22. A(C   2,C   0,C  11)          119.1216         0.397251   
     23. A(C   5,C   0,C  11)          122.9007         0.397268   
     24. A(C   3,C   1,C  10)          119.1216         0.397251   
     25. A(C   4,C   1,C  10)          122.9007         0.397268   
     26. A(C   3,C   1,C   4)          117.9778         0.417324   
     27. A(C   0,C   2,C   4)          121.1487         0.422692   
     28. A(C   0,C   2,H   6)          119.2011         0.344561   
     29. A(C   4,C   2,H   6)          119.6502         0.348754   
     30. A(C   1,C   3,C   5)          121.1487         0.422692   
     31. A(C   5,C   3,H   7)          119.6502         0.348754   
     32. A(C   1,C   3,H   7)          119.2011         0.344561   
     33. A(C   1,C   4,C   2)          120.8736         0.422710   
     34. A(C   1,C   4,H   8)          119.4229         0.344937   
     35. A(C   2,C   4,H   8)          119.7036         0.349122   
     36. A(C   3,C   5,H   9)          119.7036         0.349122   
     37. A(C   0,C   5,C   3)          120.8736         0.422710   
     38. A(C   0,C   5,H   9)          119.4229         0.344937   
     39. A(H  12,C  10,C  14)          118.7905         0.361126   
     40. A(C   1,C  10,C  14)          126.5799         0.417852   
     41. A(C   1,C  10,H  12)          114.6295         0.328497   
     42. A(H  13,C  11,C  15)          118.7905         0.361126   
     43. A(C   0,C  11,C  15)          126.5799         0.417852   
     44. A(C   0,C  11,H  13)          114.6295         0.328497   
     45. A(H  16,C  14,H  18)          116.2199         0.288729   
     46. A(C  10,C  14,H  18)          121.2949         0.362105   
     47. A(C  10,C  14,H  16)          122.4852         0.362263   
     48. A(H  17,C  15,H  19)          116.2199         0.288729   
     49. A(C  11,C  15,H  19)          121.2949         0.362105   
     50. A(C  11,C  15,H  17)          122.4852         0.362263   
     51. D(H   6,C   2,C   0,C  11)      0.0000         0.021118   
     52. D(H   6,C   2,C   0,C   5)    180.0000         0.021118   
     53. D(C   4,C   2,C   0,C   5)      0.0000         0.021118   
     54. D(C   4,C   2,C   0,C  11)    180.0000         0.021118   
     55. D(C   5,C   3,C   1,C  10)    180.0000         0.021118   
     56. D(H   7,C   3,C   1,C  10)      0.0000         0.021118   
     57. D(C   5,C   3,C   1,C   4)      0.0000         0.021118   
     58. D(H   7,C   3,C   1,C   4)    180.0000         0.021118   
     59. D(C   1,C   4,C   2,H   6)    180.0000         0.024542   
     60. D(C   1,C   4,C   2,C   0)      0.0000         0.024542   
     61. D(H   8,C   4,C   1,C  10)      0.0000         0.021129   
     62. D(H   8,C   4,C   1,C   3)    180.0000         0.021129   
     63. D(C   2,C   4,C   1,C  10)    180.0000         0.021129   
     64. D(H   8,C   4,C   2,C   0)    180.0000         0.024542   
     65. D(C   2,C   4,C   1,C   3)      0.0000         0.021129   
     66. D(H   8,C   4,C   2,H   6)      0.0000         0.024542   
     67. D(H   9,C   5,C   3,H   7)      0.0000         0.024542   
     68. D(C   0,C   5,C   3,H   7)    180.0000         0.024542   
     69. D(C   0,C   5,C   3,C   1)      0.0000         0.024542   
     70. D(H   9,C   5,C   0,C  11)      0.0000         0.021129   
     71. D(H   9,C   5,C   0,C   2)    180.0000         0.021129   
     72. D(H   9,C   5,C   3,C   1)    180.0000         0.024542   
     73. D(C   3,C   5,C   0,C  11)    180.0000         0.021129   
     74. D(C   3,C   5,C   0,C   2)      0.0000         0.021129   
     75. D(C  14,C  10,C   1,C   4)      0.0000         0.012096   
     76. D(C  14,C  10,C   1,C   3)    180.0000         0.012096   
     77. D(H  12,C  10,C   1,C   4)    180.0000         0.012096   
     78. D(H  12,C  10,C   1,C   3)      0.0000         0.012096   
     79. D(C  15,C  11,C   0,C   2)    180.0000         0.012096   
     80. D(H  13,C  11,C   0,C   5)    180.0000         0.012096   
     81. D(H  13,C  11,C   0,C   2)      0.0000         0.012096   
     82. D(C  15,C  11,C   0,C   5)      0.0000         0.012096   
     83. D(H  18,C  14,C  10,H  12)      0.0000         0.038859   
     84. D(H  18,C  14,C  10,C   1)    180.0000         0.038859   
     85. D(H  16,C  14,C  10,H  12)    180.0000         0.038859   
     86. D(H  16,C  14,C  10,C   1)      0.0000         0.038859   
     87. D(H  19,C  15,C  11,H  13)      0.0000         0.038859   
     88. D(H  19,C  15,C  11,C   0)    180.0000         0.038859   
     89. D(H  17,C  15,C  11,H  13)    180.0000         0.038859   
     90. D(H  17,C  15,C  11,C   0)      0.0000         0.038859   
    -----------------------------------------------------------------

Number of atoms                         .... 20
Number of degrees of freedom            .... 90


         *************************************************************
         *                GEOMETRY OPTIMIZATION CYCLE   1            *
         *************************************************************
---------------------------------
CARTESIAN COORDINATES (ANGSTROEM)
---------------------------------
  C     -1.415253    0.230222    0.000000
  C      1.415253   -0.230222    0.000000
  C     -0.495133    1.314461    0.000000
  C      0.495133   -1.314461    0.000000
  C      0.889409    1.090949    0.000000
  C     -0.889409   -1.090949    0.000000
  H     -0.879551    2.343734    0.000000
  H      0.879551   -2.343734    0.000000
  H      1.577904    1.945006    0.000000
  H     -1.577904   -1.945006    0.000000
  C      2.884584   -0.521089    0.000000
  C     -2.884584    0.521089    0.000000
  H      3.140336   -1.591961    0.000000
  H     -3.140336    1.591961    0.000000
  C      3.880043    0.382254    0.000000
  C     -3.880043   -0.382254    0.000000
  H      3.694677    1.462439    0.000000
  H     -3.694677   -1.462439    0.000000
  H      4.931645    0.071105    0.000000
  H     -4.931645   -0.071105    0.000000

----------------------------
CARTESIAN COORDINATES (A.U.)
----------------------------
  NO LB      ZA    FRAG     MASS         X           Y           Z
   0 C     6.0000    0    12.011   -2.674441    0.435056    0.000000
   1 C     6.0000    0    12.011    2.674441   -0.435056    0.000000
   2 C     6.0000    0    12.011   -0.935666    2.483971    0.000000
   3 C     6.0000    0    12.011    0.935666   -2.483971    0.000000
   4 C     6.0000    0    12.011    1.680740    2.061596    0.000000
   5 C     6.0000    0    12.011   -1.680740   -2.061596    0.000000
   6 H     1.0000    0     1.008   -1.662111    4.429016    0.000000
   7 H     1.0000    0     1.008    1.662111   -4.429016    0.000000
   8 H     1.0000    0     1.008    2.981807    3.675529    0.000000
   9 H     1.0000    0     1.008   -2.981807   -3.675529    0.000000
  10 C     6.0000    0    12.011    5.451075   -0.984716    0.000000
  11 C     6.0000    0    12.011   -5.451075    0.984716    0.000000
  12 H     1.0000    0     1.008    5.934374   -3.008369    0.000000
  13 H     1.0000    0     1.008   -5.934374    3.008369    0.000000
  14 C     6.0000    0    12.011    7.332218    0.722355    0.000000
  15 C     6.0000    0    12.011   -7.332218   -0.722355    0.000000
  16 H     1.0000    0     1.008    6.981927    2.763609    0.000000
  17 H     1.0000    0     1.008   -6.981927   -2.763609    0.000000
  18 H     1.0000    0     1.008    9.319459    0.134369    0.000000
  19 H     1.0000    0     1.008   -9.319459   -0.134369    0.000000

--------------------------------
INTERNAL COORDINATES (ANGSTROEM)
--------------------------------
 C      0   0   0     0.000000000000     0.00000000     0.00000000
 C      1   0   0     2.867712703209     0.00000000     0.00000000
 C      1   2   0     1.422039207589    58.92046780     0.00000000
 C      2   1   3     1.422039207589    58.92046780   180.00000121
 C      3   1   2     1.402467286416   121.14866524     0.00000000
 C      4   2   1     1.402467286416   121.14866524     0.00000000
 H      3   1   2     1.098717973180   119.20109491   180.00000000
 H      4   2   1     1.098717973180   119.20109491   180.00000000
 H      5   3   1     1.097013426113   119.70357006   180.00000000
 H      6   4   2     1.097013426113   119.70357006   180.00000000
 C      2   1   3     1.497844469432   178.04202002   180.00000085
 C      1   2   3     1.497844469432   178.04202002     0.00000000
 H     11   2   5     1.100987636442   114.62953459   180.00000000
 H     12   1   6     1.100987636442   114.62953459   180.00000000
 C     11   2   5     1.344234237991   126.57992264     0.00000000
 C     12   1   6     1.344234237991   126.57992264     0.00000000
 H     15  11   2     1.095974984705   122.48517186     0.00000000
 H     16  12   1     1.095974984705   122.48517186     0.00000000
 H     15  11   2     1.096668297643   121.29492471   180.00000085
 H     16  12   1     1.096668297643   121.29492471   180.00000085

---------------------------
INTERNAL COORDINATES (A.U.)
---------------------------
 C      0   0   0     0.000000000000     0.00000000     0.00000000
 C      1   0   0     5.419191639833     0.00000000     0.00000000
 C      1   2   0     2.687264654042    58.92046780     0.00000000
 C      2   1   3     2.687264654042    58.92046780   180.00000121
 C      3   1   2     2.650279083110   121.14866524     0.00000000
 C      4   2   1     2.650279083110   121.14866524     0.00000000
 H      3   1   2     2.076276067727   119.20109491   180.00000000
 H      4   2   1     2.076276067727   119.20109491   180.00000000
 H      5   3   1     2.073054940588   119.70357006   180.00000000
 H      6   4   2     2.073054940588   119.70357006   180.00000000
 C      2   1   3     2.830515838436   178.04202002   180.00000085
 C      1   2   3     2.830515838436   178.04202002     0.00000000
 H     11   2   5     2.080565109708   114.62953459   180.00000000
 H     12   1   6     2.080565109708   114.62953459   180.00000000
 C     11   2   5     2.540234569643   126.57992264     0.00000000
 C     12   1   6     2.540234569643   126.57992264     0.00000000
 H     15  11   2     2.071092570722   122.48517186     0.00000000
 H     16  12   1     2.071092570722   122.48517186     0.00000000
 H     15  11   2     2.072402742299   121.29492471   180.00000085
 H     16  12   1     2.072402742299   121.29492471   180.00000085

---------------------
BASIS SET INFORMATION
---------------------
There are 2 groups of distinct atoms

 Group   1 Type C   : 6s3p contracted to 2s1p pattern {33/3}
 Group   2 Type H   : 3s contracted to 1s pattern {3}

Atom   0C    basis set group =>   1
Atom   1C    basis set group =>   1
Atom   2C    basis set group =>   1
Atom   3C    basis set group =>   1
Atom   4C    basis set group =>   1
Atom   5C    basis set group =>   1
Atom   6H    basis set group =>   2
Atom   7H    basis set group =>   2
Atom   8H    basis set group =>   2
Atom   9H    basis set group =>   2
Atom  10C    basis set group =>   1
Atom  11C    basis set group =>   1
Atom  12H    basis set group =>   2
Atom  13H    basis set group =>   2
Atom  14C    basis set group =>   1
Atom  15C    basis set group =>   1
Atom  16H    basis set group =>   2
Atom  17H    basis set group =>   2
Atom  18H    basis set group =>   2
Atom  19H    basis set group =>   2
---------------------------------
AUXILIARY/J BASIS SET INFORMATION
---------------------------------
There are 2 groups of distinct atoms

 Group   1 Type C   : 12s5p4d2f1g contracted to 6s4p3d1f1g pattern {711111/2111/211/2/1}
 Group   2 Type H   : 5s2p1d contracted to 3s1p1d pattern {311/2/1}

Atom   0C    basis set group =>   1
Atom   1C    basis set group =>   1
Atom   2C    basis set group =>   1
Atom   3C    basis set group =>   1
Atom   4C    basis set group =>   1
Atom   5C    basis set group =>   1
Atom   6H    basis set group =>   2
Atom   7H    basis set group =>   2
Atom   8H    basis set group =>   2
Atom   9H    basis set group =>   2
Atom  10C    basis set group =>   1
Atom  11C    basis set group =>   1
Atom  12H    basis set group =>   2
Atom  13H    basis set group =>   2
Atom  14C    basis set group =>   1
Atom  15C    basis set group =>   1
Atom  16H    basis set group =>   2
Atom  17H    basis set group =>   2
Atom  18H    basis set group =>   2
Atom  19H    basis set group =>   2
------------------------------------------------------------------------------
                             ORCA STARTUP CALCULATIONS
                           -- RI-GTO INTEGRALS CHOSEN --
------------------------------------------------------------------------------
------------------------------------------------------------------------------
                   ___                                                        
                  /   \      - P O W E R E D   B Y -                         
                 /     \                                                     
                 |  |  |   _    _      __       _____    __    __             
                 |  |  |  | |  | |    /  \     |  _  \  |  |  /  |          
                  \  \/   | |  | |   /    \    | | | |  |  | /  /          
                 / \  \   | |__| |  /  /\  \   | |_| |  |  |/  /          
                |  |  |   |  __  | /  /__\  \  |    /   |      \           
                |  |  |   | |  | | |   __   |  |    \   |  |\   \          
                \     /   | |  | | |  |  |  |  | |\  \  |  | \   \       
                 \___/    |_|  |_| |__|  |__|  |_| \__\ |__|  \__/        
                                                                              
                      - O R C A' S   B I G   F R I E N D -                    
                                      &                                       
                       - I N T E G R A L  F E E D E R -                       
                                                                              
 v1 FN, 2020, v2 2021, v3 2022-2024                                           
------------------------------------------------------------------------------


----------------------
SHARK INTEGRAL PACKAGE
----------------------

Number of atoms                             ...     20
Number of basis functions                   ...     60
Number of shells                            ...     40
Maximum angular momentum                    ...      1
Integral batch strategy                     ... SHARK/LIBINT Hybrid
RI-J (if used) integral strategy            ... SPLIT-RIJ (Revised 2003 algorithm where possible)
Printlevel                                  ...      1
Contraction scheme used                     ... SEGMENTED contraction
Prescreening option                         ... SCHWARTZ
   Thresh                                   ... 2.500e-11
   Tcut                                     ... 2.500e-12
   Tpresel                                  ... 2.500e-12 
Coulomb Range Separation                    ... NOT USED
Exchange Range Separation                   ... NOT USED
Multipole approximations                    ... NOT USED
Finite Nucleus Model                        ... NOT USED
CABS basis                                  ... NOT available
Auxiliary Coulomb fitting basis             ... AVAILABLE
   # of basis functions in Aux-J            ...    600
   # of shells in Aux-J                     ...    200
   Maximum angular momentum in Aux-J        ...      4
Auxiliary J/K fitting basis                 ... NOT available
Auxiliary Correlation fitting basis         ... NOT available
Auxiliary 'external' fitting basis          ... NOT available

Checking pre-screening integrals            ... done (  0.0 sec) Dimension = 40
Check shell pair data                       ... done (  0.0 sec)
Shell pair information
Shell pair cut-off parameter TPreSel        ...   2.5e-12
Total number of shell pairs                 ...       820
Shell pairs after pre-screening             ...       756
Total number of primitive shell pairs       ...      7380
Primitive shell pairs kept                  ...      4872
          la=0 lb=0:    409 shell pairs
          la=1 lb=0:    292 shell pairs
          la=1 lb=1:     55 shell pairs

Calculating one electron integrals          ... done (  0.0 sec)
Calculating RI/J V-Matrix + Cholesky decomp.... done (  0.0 sec)
Calculating Nuclear repulsion               ... done (  0.0 sec) ENN=    445.936977869861 Eh

Diagonalization of the overlap matrix:
Smallest eigenvalue                        ... 1.815e-01
Time for diagonalization                   ...    0.000 sec
Threshold for overlap eigenvalues          ... 1.000e-07
Number of eigenvalues below threshold      ... 0
Time for construction of square roots      ...    0.000 sec
Total time needed                          ...    0.001 sec

-------------------
DFT GRID GENERATION
-------------------

General Integration Accuracy     IntAcc      ... 4.388
Radial Grid Type                 RadialGrid  ... OptM3 with GC (2021)
Angular Grid (max. ang.)         AngularGrid ... 4 (Lebedev-302)
Angular grid pruning method      GridPruning ... 4 (adaptive)
Weight generation scheme         WeightScheme... mBecke (2022)
Basis function cutoff            BFCut       ... 1.0000e-11
Integration weight cutoff        WCut        ... 1.0000e-14
Partially contracted basis set               ... off
Rotationally invariant grid construction     ... off
Angular grids for H and He will be reduced by one unit

Total number of grid points                  ...    92318
Total number of batches                      ...     1450
Average number of points per batch           ...       63
Average number of grid points per atom       ...     4616

--------------------
COSX GRID GENERATION
--------------------

GRIDX 1
-------
General Integration Accuracy     IntAcc      ... 3.816
Radial Grid Type                 RadialGrid  ... OptM3 with GC (2021)
Angular Grid (max. ang.)         AngularGrid ... 1 (Lebedev-50)
Angular grid pruning method      GridPruning ... 4 (adaptive)
Weight generation scheme         WeightScheme... mBecke (2022)
Basis function cutoff            BFCut       ... 1.0000e-11
Integration weight cutoff        WCut        ... 1.0000e-14
Partially contracted basis set               ... on
Rotationally invariant grid construction     ... off
Angular grids for H and He will be reduced by one unit

Total number of grid points                  ...    11840
Total number of batches                      ...      104
Average number of points per batch           ...      113
Average number of grid points per atom       ...      592
UseSFitting                                  ... on

GRIDX 2
-------
General Integration Accuracy     IntAcc      ... 4.020
Radial Grid Type                 RadialGrid  ... OptM3 with GC (2021)
Angular Grid (max. ang.)         AngularGrid ... 2 (Lebedev-110)
Angular grid pruning method      GridPruning ... 4 (adaptive)
Weight generation scheme         WeightScheme... mBecke (2022)
Basis function cutoff            BFCut       ... 1.0000e-11
Integration weight cutoff        WCut        ... 1.0000e-14
Partially contracted basis set               ... on
Rotationally invariant grid construction     ... off
Angular grids for H and He will be reduced by one unit

Total number of grid points                  ...    25542
Total number of batches                      ...      212
Average number of points per batch           ...      120
Average number of grid points per atom       ...     1277
UseSFitting                                  ... on

GRIDX 3
-------
General Integration Accuracy     IntAcc      ... 4.338
Radial Grid Type                 RadialGrid  ... OptM3 with GC (2021)
Angular Grid (max. ang.)         AngularGrid ... 3 (Lebedev-194)
Angular grid pruning method      GridPruning ... 4 (adaptive)
Weight generation scheme         WeightScheme... mBecke (2022)
Basis function cutoff            BFCut       ... 1.0000e-11
Integration weight cutoff        WCut        ... 1.0000e-14
Partially contracted basis set               ... on
Rotationally invariant grid construction     ... off
Angular grids for H and He will be reduced by one unit

Total number of grid points                  ...    55986
Total number of batches                      ...      446
Average number of points per batch           ...      125
Average number of grid points per atom       ...     2799
UseSFitting                                  ... on
Initializing property integral containers    ... done (  0.0 sec)

SHARK setup successfully completed in   0.8 seconds

Maximum memory used throughout the entire STARTUP-calculation: 31.8 MB
-------------------------------------------------------------------------------
                                 ORCA GUESS
                   Start orbitals & Density for SCF / CASSCF
-------------------------------------------------------------------------------

Producing symmetrization matrix            ... done (   0.000 sec)
------------
SCF SETTINGS
------------
Hamiltonian:
 Density Functional     Method          .... DFT(GTOs)
 Exchange Functional    Exchange        .... B88
   X-Alpha parameter    XAlpha          ....  0.666667
   Becke's b parameter  XBeta           ....  0.004200
 Correlation Functional Correlation     .... LYP
 LDA part of GGA corr.  LDAOpt          .... VWN-5
 Gradients option       PostSCFGGA      .... off
 Hybrid DFT is turned on
   Fraction HF Exchange ScalHFX         ....  0.200000
   Scaling of DF-GGA-X  ScalDFX         ....  0.720000
   Scaling of DF-GGA-C  ScalDFC         ....  0.810000
   Scaling of DF-LDA-C  ScalLDAC        ....  1.000000
   Perturbative correction              ....  0.000000
   NL short-range parameter             ....  4.800000
 RI-approximation to the Coulomb term is turned on
   Number of AuxJ basis functions       .... 600
   RIJ-COSX (HFX calculated with COS-X)).... on


General Settings:
 Integral files         IntName         .... dvb_gopt
 Hartree-Fock type      HFTyp           .... RHF
 Total Charge           Charge          ....    0
 Multiplicity           Mult            ....    1
 Number of Electrons    NEL             ....   70
 Basis Dimension        Dim             ....   60
 Nuclear Repulsion      ENuc            ....    445.9369778699 Eh

 Symmetry handling      UseSym         .... ON
 Point group                           .... C2h
 Symmetry-adapted orbitals             .... C2h
 Petite-list algorithm                 .... OFF
 Number of irreps                      .... 4
   Irrep   Ag has   25 symmetry adapted basis functions (ofs=   0)
   Irrep   Bg has    5 symmetry adapted basis functions (ofs=  25)
   Irrep   Au has    5 symmetry adapted basis functions (ofs=  30)
   Irrep   Bu has   25 symmetry adapted basis functions (ofs=  35)

Convergence Acceleration:
 AO-DIIS                CNVDIIS         .... on
   Start iteration      DIISMaxIt       ....    12
   Startup error        DIISStart       ....  0.200000
   # of expansion vecs  DIISMaxEq       ....     5
   Bias factor          DIISBfac        ....   1.050
   Max. coefficient     DIISMaxC        ....  10.000
 MO-DIIS                CNVKDIIS        .... off
 Trust-Rad. Augm. Hess. CNVTRAH         .... auto
   Auto Start mean grad. ratio tolernc. ....  1.125000
   Auto Start start iteration           ....    50
   Auto Start num. interpolation iter.  ....    10
   Max. Number of Micro iterations      ....    24
   Max. Number of Macro iterations      .... Maxiter - #DIIS iter
   Number of Davidson start vectors     ....     2
   Converg. threshold    (grad. norm)   ....   1.000e-05
   Grad. Scal. Fac. for Micro threshold ....   0.100
   Minimum threshold for Micro iter.    ....   1.000e-02
   NR start threshold (gradient norm)   ....   1.000e-04
   Initial trust radius                 ....   0.400
   Minimum AH scaling param. (alpha)    ....   1.000
   Maximum AH scaling param. (alpha)    .... 1000.000
   Quad. conv. algorithm                .... NR
   White noise on init. David. guess    .... on
   Maximum white noise                  ....   0.010
   Pseudo random numbers                .... off
   Inactive MOs                         .... canonical
   Orbital update algorithm             .... Taylor
   Preconditioner                       .... Diag
   Full preconditioner red. dimension   ....   250
 SOSCF                  CNVSOSCF        .... on
   Start iteration      SOSCFMaxIt      ....   150
   Startup grad/error   SOSCFStart      ....  0.003300
   Hessian update       SOSCFHessUp     .... L-BFGS
 Level Shifting         CNVShift        .... on
   Level shift para.    LevelShift      ....    0.2500
   Turn off err/grad.   ShiftErr        ....    0.0010
 Zerner damping         CNVZerner       .... off
 Static damping         CNVDamp         .... on
   Fraction old density DampFac         ....    0.7000
   Max. Damping (<1)    DampMax         ....    0.9800
   Min. Damping (>=0)   DampMin         ....    0.0000
   Turn off err/grad.   DampErr         ....    0.1000

SCF Procedure:
 Maximum # iterations   MaxIter         ....   125
 SCF integral mode      SCFMode         .... Direct
   Integral package                     .... SHARK and LIBINT hybrid scheme
 Reset frequency        DirectResetFreq ....    20
 Integral Threshold     Thresh          ....  2.500e-11 Eh
 Primitive CutOff       TCut            ....  2.500e-12 Eh

Convergence Tolerance:
 Convergence Check Mode ConvCheckMode   .... Total+1el-Energy
 Convergence forced     ConvForced      .... 0
 Energy Change          TolE            ....  1.000e-08 Eh
 1-El. energy change                    ....  1.000e-05 Eh
 Orbital Gradient       TolG            ....  1.000e-05
 Orbital Rotation angle TolX            ....  1.000e-05
 DIIS Error             TolErr          ....  5.000e-07

------------------------------
INITIAL GUESS: MODEL POTENTIAL
------------------------------
Loading Hartree-Fock densities                     ... done
Calculating cut-offs                               ... done
Initializing the effective Hamiltonian             ... done
Setting up the integral package (SHARK)            ... done
Starting the Coulomb interaction                   ... done (   0.0 sec)
Making the grid                                    ... done (   0.1 sec)
Mapping shells                                     ... done
Starting the XC term evaluation                    ... done (   0.0 sec)
  promolecular density results
     # of electrons  =     69.991105375
     EX              =    -54.264379225
     EC              =     -2.295156933
     EX+EC           =    -56.559536158
done (   0.0 sec)
Diagonalizing the Hamiltonian                      ... done (   0.0 sec)
Back transforming the eigenvectors                 ... done (   0.0 sec)
Now organizing SCF variables                       ... done
Number of occupied orbitals per irrep:
  Ag   -   15
  Bg   -    3
  Au   -    2
  Bu   -   15
                      ------------------
                      INITIAL GUESS DONE (   0.2 sec)
                      ------------------
             **** ENERGY FILE WAS UPDATED (dvb_gopt.en.tmp) ****
Finished Guess after   0.2 sec
Maximum memory used throughout the entire GUESS-calculation: 14.0 MB

-------------------------------------------------------------------------------------------
                                      ORCA LEAN-SCF
                              memory conserving SCF solver
-------------------------------------------------------------------------------------------

--------------
OVERLAP MATRIX
--------------
                  0          1          2          3          4          5    
      0       1.000000   0.248362   0.000000  -0.000000   0.000000   0.000000
      1       0.248362   1.000000   0.000000   0.000000  -0.000000   0.000303
      2       0.000000   0.000000   1.000000   0.000000   0.000000   0.000000
      3      -0.000000   0.000000   0.000000   1.000000  -0.000000   0.000815
      4       0.000000  -0.000000   0.000000  -0.000000   1.000000  -0.000133
      5       0.000000   0.000303   0.000000   0.000815  -0.000133   1.000000
      6       0.000303   0.021870   0.000000   0.035271  -0.005738   0.248362
      7       0.000000   0.000000   0.008318   0.000000   0.000000   0.000000
      8      -0.000815  -0.035271   0.000000  -0.052776   0.009938   0.000000
      9       0.000133   0.005738   0.000000   0.009938   0.006701  -0.000000
     10       0.000001   0.035571   0.000000   0.038184   0.044995   0.000000
     11       0.035571   0.353710   0.000000   0.245796   0.289638   0.001586
     12       0.000000   0.000000   0.204650   0.000000   0.000000   0.000000
     13      -0.038184  -0.245796   0.000000  -0.017878  -0.262219   0.002887
     14      -0.044995  -0.289638   0.000000  -0.262219  -0.104341  -0.002334
     15       0.000000   0.001586   0.000000   0.002887  -0.002334   0.000001
     16       0.001586   0.056188   0.000000   0.064927  -0.052498   0.035571
     17       0.000000   0.000000   0.023307   0.000000   0.000000   0.000000
     18      -0.002887  -0.064927   0.000000  -0.059282   0.066780   0.038184
     19       0.002334   0.052498   0.000000   0.066780  -0.030689   0.044995
     20       0.000000   0.001566   0.000000   0.003439   0.001284   0.000001
     21       0.001566   0.055779   0.000000   0.077714   0.029024   0.035577
     22       0.000000   0.000000   0.023119   0.000000   0.000000   0.000000
     23      -0.003439  -0.077714   0.000000  -0.096044  -0.044504   0.021827
     24      -0.001284  -0.029024   0.000000  -0.044504   0.006498  -0.054839
     25       0.000001   0.035577   0.000000   0.021827  -0.054839   0.000000
     26       0.035577   0.353743   0.000000   0.140487  -0.352970   0.001566
     27       0.000000   0.000000   0.204675   0.000000   0.000000   0.000000
     28      -0.021827  -0.140487   0.000000   0.131985   0.182632   0.003439
     29       0.054839   0.352970   0.000000   0.182632  -0.254182   0.001284
     30       0.005093   0.093008   0.000000   0.029652   0.116986   0.000080
     31       0.000080   0.005902   0.000000   0.006551  -0.007348   0.005093
     32       0.000079   0.005884   0.000000   0.008518   0.004880   0.005080
     33       0.005080   0.092845   0.000000  -0.008985  -0.120165   0.000079
     34       0.000000   0.000000   0.000000   0.000000  -0.000000   0.000000
     35       0.000000   0.000260   0.000000   0.000567  -0.000099   0.029550
     36       0.000000   0.000000   0.000083   0.000000   0.000000   0.000000
     37      -0.000000  -0.000567   0.000000  -0.001169   0.000219  -0.048351
     38       0.000000   0.000099   0.000000   0.000219   0.000045   0.009572
     39       0.000000   0.029550   0.000000  -0.048351   0.009572   0.000000
     40       0.029550   0.317606   0.000000  -0.345288   0.068353   0.000000
     41       0.000000   0.000000   0.177906   0.000000   0.000000   0.000000
     42       0.048351   0.345288   0.000000  -0.301124   0.094828   0.000000
     43      -0.009572  -0.068353   0.000000   0.094828   0.159134  -0.000000
     44       0.000000   0.000082   0.000000   0.000163  -0.000065   0.004869
     45       0.004869   0.090067   0.000000  -0.092109   0.072708   0.000000
     46       0.000000   0.000000   0.000000   0.000000   0.000000   0.000000
     47       0.000000   0.000007   0.000000   0.000019   0.000001   0.001159
     48       0.000000   0.000000   0.000002   0.000000   0.000000   0.000000
     49      -0.000000  -0.000019   0.000000  -0.000048  -0.000001  -0.002719
     50      -0.000000  -0.000001   0.000000  -0.000001   0.000002  -0.000676
     51       0.000000   0.001159   0.000000  -0.002719  -0.000676   0.000000
     52       0.001159   0.046884   0.000000  -0.068991  -0.017144   0.000000
     53       0.000000   0.000000   0.019082   0.000000   0.000000   0.000000
     54       0.002719   0.068991   0.000000  -0.092040  -0.027613   0.000000
     55       0.000676   0.017144   0.000000  -0.027613   0.012221   0.000000
     56       0.000000   0.000024   0.000000   0.000053   0.000013   0.000741
     57       0.000741   0.024680   0.000000  -0.029617  -0.021993   0.000000
     58       0.000000   0.000000   0.000000   0.000001  -0.000000   0.000058
     59       0.000058   0.004808   0.000000  -0.008103  -0.000694   0.000000
                  6          7          8          9         10         11    
      0       0.000303   0.000000  -0.000815   0.000133   0.000001   0.035571
      1       0.021870   0.000000  -0.035271   0.005738   0.035571   0.353710
      2       0.000000   0.008318   0.000000   0.000000   0.000000   0.000000
      3       0.035271   0.000000  -0.052776   0.009938   0.038184   0.245796
      4      -0.005738   0.000000   0.009938   0.006701   0.044995   0.289638
      5       0.248362   0.000000   0.000000  -0.000000   0.000000   0.001586
      6       1.000000   0.000000  -0.000000   0.000000   0.001586   0.056188
      7       0.000000   1.000000   0.000000   0.000000   0.000000   0.000000
      8      -0.000000   0.000000   1.000000  -0.000000  -0.002887  -0.064927
      9       0.000000   0.000000  -0.000000   1.000000   0.002334   0.052498
     10       0.001586   0.000000  -0.002887   0.002334   1.000000   0.248362
     11       0.056188   0.000000  -0.064927   0.052498   0.248362   1.000000
     12       0.000000   0.023307   0.000000   0.000000   0.000000   0.000000
     13       0.064927   0.000000  -0.059282   0.066780   0.000000   0.000000
     14      -0.052498   0.000000   0.066780  -0.030689  -0.000000  -0.000000
     15       0.035571   0.000000  -0.038184  -0.044995   0.000000   0.000389
     16       0.353710   0.000000  -0.245796  -0.289638   0.000389   0.025192
     17       0.000000   0.204650   0.000000   0.000000   0.000000   0.000000
     18       0.245796   0.000000  -0.017878  -0.262219  -0.000366  -0.014325
     19       0.289638   0.000000  -0.262219  -0.104341   0.000973   0.038030
     20       0.035577   0.000000  -0.021827   0.054839   0.000001   0.037289
     21       0.353743   0.000000  -0.140487   0.352970   0.037289   0.363411
     22       0.000000   0.204675   0.000000   0.000000   0.000000   0.000000
     23       0.140487   0.000000   0.131985   0.182632  -0.061038  -0.382052
     24      -0.352970   0.000000   0.182632  -0.254182   0.009854   0.061676
     25       0.001566   0.000000  -0.003439  -0.001284   0.000000   0.001704
     26       0.055779   0.000000  -0.077714  -0.029024   0.001704   0.058556
     27       0.000000   0.023119   0.000000   0.000000   0.000000   0.000000
     28       0.077714   0.000000  -0.096044  -0.044504   0.000640   0.014008
     29       0.029024   0.000000  -0.044504   0.006498   0.003904   0.085461
     30       0.005902   0.000000  -0.006551   0.007348   0.061021   0.485749
     31       0.093008   0.000000  -0.029652  -0.116986   0.000011   0.001755
     32       0.092845   0.000000   0.008985   0.120165   0.005272   0.095346
     33       0.005884   0.000000  -0.008518  -0.004880   0.000084   0.006109
     34       0.029550   0.000000   0.048351  -0.009572   0.000000   0.000002
     35       0.317606   0.000000   0.345288  -0.068353   0.000002   0.001445
     36       0.000000   0.177906   0.000000   0.000000   0.000000   0.000000
     37      -0.345288   0.000000  -0.301124   0.094828  -0.000007  -0.002536
     38       0.068353   0.000000   0.094828   0.159134   0.000004   0.001377
     39       0.000000   0.000000  -0.000000   0.000000   0.000000   0.001261
     40       0.000260   0.000000  -0.000567   0.000099   0.001261   0.049214
     41       0.000000   0.000083   0.000000   0.000000   0.000000   0.000000
     42       0.000567   0.000000  -0.001169   0.000219   0.002868   0.070447
     43      -0.000099   0.000000   0.000219   0.000045   0.000952   0.023391
     44       0.090067   0.000000   0.092109  -0.072708   0.000000   0.000188
     45       0.000082   0.000000  -0.000163   0.000065   0.001315   0.036238
     46       0.001159   0.000000   0.002719   0.000676   0.000000   0.000000
     47       0.046884   0.000000   0.068991   0.017144   0.000000   0.000177
     48       0.000000   0.019082   0.000000   0.000000   0.000000   0.000000
     49      -0.068991   0.000000  -0.092040  -0.027613  -0.000000  -0.000392
     50      -0.017144   0.000000  -0.027613   0.012221   0.000000   0.000083
     51       0.000000   0.000000  -0.000000  -0.000000   0.000000   0.000003
     52       0.000007   0.000000  -0.000019  -0.000001   0.000003   0.001738
     53       0.000000   0.000002   0.000000   0.000000   0.000000   0.000000
     54       0.000019   0.000000  -0.000048  -0.000001   0.000010   0.003066
     55       0.000001   0.000000  -0.000001   0.000002   0.000005   0.001537
     56       0.024680   0.000000   0.029617   0.021993   0.000003   0.000779
     57       0.000024   0.000000  -0.000053  -0.000013   0.000002   0.000684
     58       0.004808   0.000000   0.008103   0.000694   0.000000   0.000008
     59       0.000000   0.000000  -0.000001   0.000000   0.000000   0.000192
                 12         13         14         15         16         17    
      0       0.000000  -0.038184  -0.044995   0.000000   0.001586   0.000000
      1       0.000000  -0.245796  -0.289638   0.001586   0.056188   0.000000
      2       0.204650   0.000000   0.000000   0.000000   0.000000   0.023307
      3       0.000000  -0.017878  -0.262219   0.002887   0.064927   0.000000
      4       0.000000  -0.262219  -0.104341  -0.002334  -0.052498   0.000000
      5       0.000000   0.002887  -0.002334   0.000001   0.035571   0.000000
      6       0.000000   0.064927  -0.052498   0.035571   0.353710   0.000000
      7       0.023307   0.000000   0.000000   0.000000   0.000000   0.204650
      8       0.000000  -0.059282   0.066780  -0.038184  -0.245796   0.000000
      9       0.000000   0.066780  -0.030689  -0.044995  -0.289638   0.000000
     10       0.000000   0.000000  -0.000000   0.000000   0.000389   0.000000
     11       0.000000   0.000000  -0.000000   0.000389   0.025192   0.000000
     12       1.000000   0.000000   0.000000   0.000000   0.000000   0.009690
     13       0.000000   1.000000  -0.000000   0.000366   0.014325   0.000000
     14       0.000000  -0.000000   1.000000  -0.000973  -0.038030   0.000000
     15       0.000000   0.000366  -0.000973   1.000000   0.248362   0.000000
     16       0.000000   0.014325  -0.038030   0.248362   1.000000   0.000000
     17       0.009690   0.000000   0.000000   0.000000   0.000000   1.000000
     18       0.000000   0.000914   0.023298  -0.000000  -0.000000   0.000000
     19       0.000000   0.023298  -0.052160   0.000000   0.000000   0.000000
     20       0.000000   0.061038  -0.009854   0.000000   0.001704   0.000000
     21       0.000000   0.382052  -0.061676   0.001704   0.058556   0.000000
     22       0.212075   0.000000   0.000000   0.000000   0.000000   0.024399
     23       0.000000  -0.314118   0.084945  -0.000640  -0.014008   0.000000
     24       0.000000   0.084945   0.198362  -0.003904  -0.085461   0.000000
     25       0.000000  -0.000640  -0.003904   0.000001   0.037289   0.000000
     26       0.000000  -0.014008  -0.085461   0.037289   0.363411   0.000000
     27       0.024399   0.000000   0.000000   0.000000   0.000000   0.212075
     28       0.000000   0.020705  -0.022537   0.061038   0.382052   0.000000
     29       0.000000  -0.022537  -0.113098  -0.009854  -0.061676   0.000000
     30       0.000000  -0.162436   0.434921   0.000011   0.001755   0.000000
     31       0.000000   0.001114  -0.002965   0.061021   0.485749   0.000000
     32       0.000000   0.117989   0.035888   0.000084   0.006109   0.000000
     33       0.000000  -0.003205  -0.009648   0.005272   0.095346   0.000000
     34       0.000000   0.000007  -0.000004   0.000000   0.001261   0.000000
     35       0.000000   0.002536  -0.001377   0.001261   0.049214   0.000000
     36       0.000480   0.000000   0.000000   0.000000   0.000000   0.020131
     37       0.000000  -0.004091   0.002483  -0.002868  -0.070447   0.000000
     38       0.000000   0.002483  -0.000868  -0.000952  -0.023391   0.000000
     39       0.000000  -0.002868  -0.000952   0.000000   0.000002   0.000000
     40       0.000000  -0.070447  -0.023391   0.000002   0.001445   0.000000
     41       0.020131   0.000000   0.000000   0.000000   0.000000   0.000480
     42       0.000000  -0.090407  -0.036702   0.000007   0.002536   0.000000
     43       0.000000  -0.036702   0.007944  -0.000004  -0.001377   0.000000
     44       0.000000   0.000302  -0.000241   0.001315   0.036238   0.000000
     45       0.000000  -0.051982   0.005453   0.000000   0.000188   0.000000
     46       0.000000   0.000000  -0.000000   0.000000   0.000003   0.000000
     47       0.000000   0.000392  -0.000083   0.000003   0.001738   0.000000
     48       0.000057   0.000000   0.000000   0.000000   0.000000   0.000581
     49       0.000000  -0.000820   0.000187  -0.000010  -0.003066   0.000000
     50       0.000000   0.000187   0.000017  -0.000005  -0.001537   0.000000
     51       0.000000  -0.000010  -0.000005   0.000000   0.000000   0.000000
     52       0.000000  -0.003066  -0.001537   0.000000   0.000177   0.000000
     53       0.000581   0.000000   0.000000   0.000000   0.000000   0.000057
     54       0.000000  -0.004988  -0.002792   0.000000   0.000392   0.000000
     55       0.000000  -0.002792  -0.000819  -0.000000  -0.000083   0.000000
     56       0.000000   0.001477   0.000052   0.000002   0.000684   0.000000
     57       0.000000  -0.000988  -0.000857   0.000003   0.000779   0.000000
     58       0.000000   0.000018  -0.000004   0.000000   0.000192   0.000000
     59       0.000000  -0.000376  -0.000117   0.000000   0.000008   0.000000
                 18         19         20         21         22         23    
      0      -0.002887   0.002334   0.000000   0.001566   0.000000  -0.003439
      1      -0.064927   0.052498   0.001566   0.055779   0.000000  -0.077714
      2       0.000000   0.000000   0.000000   0.000000   0.023119   0.000000
      3      -0.059282   0.066780   0.003439   0.077714   0.000000  -0.096044
      4       0.066780  -0.030689   0.001284   0.029024   0.000000  -0.044504
      5       0.038184   0.044995   0.000001   0.035577   0.000000   0.021827
      6       0.245796   0.289638   0.035577   0.353743   0.000000   0.140487
      7       0.000000   0.000000   0.000000   0.000000   0.204675   0.000000
      8      -0.017878  -0.262219  -0.021827  -0.140487   0.000000   0.131985
      9      -0.262219  -0.104341   0.054839   0.352970   0.000000   0.182632
     10      -0.000366   0.000973   0.000001   0.037289   0.000000  -0.061038
     11      -0.014325   0.038030   0.037289   0.363411   0.000000  -0.382052
     12       0.000000   0.000000   0.000000   0.000000   0.212075   0.000000
     13       0.000914   0.023298   0.061038   0.382052   0.000000  -0.314118
     14       0.023298  -0.052160  -0.009854  -0.061676   0.000000   0.084945
     15      -0.000000   0.000000   0.000000   0.001704   0.000000  -0.000640
     16      -0.000000   0.000000   0.001704   0.058556   0.000000  -0.014008
     17       0.000000   0.000000   0.000000   0.000000   0.024399   0.000000
     18       1.000000  -0.000000   0.000640   0.014008   0.000000   0.020705
     19      -0.000000   1.000000   0.003904   0.085461   0.000000  -0.022537
     20       0.000640   0.003904   1.000000   0.248362   0.000000  -0.000000
     21       0.014008   0.085461   0.248362   1.000000   0.000000  -0.000000
     22       0.000000   0.000000   0.000000   0.000000   1.000000   0.000000
     23       0.020705  -0.022537  -0.000000  -0.000000   0.000000   1.000000
     24      -0.022537  -0.113098  -0.000000  -0.000000   0.000000   0.000000
     25      -0.061038   0.009854   0.000000   0.000380   0.000000  -0.000642
     26      -0.382052   0.061676   0.000380   0.024839   0.000000  -0.025352
     27       0.000000   0.000000   0.000000   0.000000   0.009544   0.000000
     28      -0.314118   0.084945   0.000642   0.025352   0.000000  -0.018324
     29       0.084945   0.198362   0.000788   0.031097   0.000000  -0.034183
     30      -0.001114   0.002965   0.005261   0.095200   0.000000  -0.100509
     31       0.162436  -0.434921   0.000084   0.006108   0.000000  -0.000029
     32       0.003205   0.009648   0.061264   0.486726   0.000000   0.291748
     33      -0.117989  -0.035888   0.000011   0.001735   0.000000  -0.001976
     34       0.002868   0.000952   0.000000   0.001051   0.000000   0.001996
     35       0.070447   0.023391   0.001051   0.044325   0.000000   0.052594
     36       0.000000   0.000000   0.000000   0.000000   0.017940   0.000000
     37      -0.090407  -0.036702  -0.001996  -0.052594   0.000000  -0.050256
     38      -0.036702   0.007944   0.001612   0.042495   0.000000   0.055100
     39      -0.000007   0.000004   0.000000   0.000003   0.000000  -0.000009
     40      -0.002536   0.001377   0.000003   0.001582   0.000000  -0.003106
     41       0.000000   0.000000   0.000000   0.000000   0.000527   0.000000
     42      -0.004091   0.002483   0.000009   0.003106   0.000000  -0.005744
     43       0.002483  -0.000868   0.000001   0.000469   0.000000  -0.000947
     44       0.051982  -0.005453   0.000064   0.005153   0.000000   0.005576
     45      -0.000302   0.000241   0.000006   0.001141   0.000000  -0.002099
     46       0.000010   0.000005   0.000000   0.000120   0.000000   0.000341
     47       0.003066   0.001537   0.000120   0.013048   0.000000   0.021677
     48       0.000000   0.000000   0.000000   0.000000   0.004783   0.000000
     49      -0.004988  -0.002792  -0.000341  -0.021677   0.000000  -0.033488
     50      -0.002792  -0.000819   0.000081   0.005137   0.000000   0.009069
     51      -0.000000   0.000000   0.000000   0.000000   0.000000  -0.000000
     52      -0.000392   0.000083   0.000000   0.000025   0.000000  -0.000060
     53       0.000000   0.000000   0.000000   0.000000   0.000008   0.000000
     54      -0.000820   0.000187   0.000000   0.000060   0.000000  -0.000136
     55       0.000187   0.000017   0.000000   0.000018   0.000000  -0.000044
     56       0.000988   0.000857   0.000764   0.025192   0.000000   0.037263
     57      -0.001477  -0.000052   0.000000   0.000025   0.000000  -0.000049
     58       0.000376   0.000117   0.000003   0.000835   0.000000   0.001529
     59      -0.000018   0.000004   0.000000   0.000002   0.000000  -0.000004
                 24         25         26         27         28         29    
      0      -0.001284   0.000001   0.035577   0.000000  -0.021827   0.054839
      1      -0.029024   0.035577   0.353743   0.000000  -0.140487   0.352970
      2       0.000000   0.000000   0.000000   0.204675   0.000000   0.000000
      3      -0.044504   0.021827   0.140487   0.000000   0.131985   0.182632
      4       0.006498  -0.054839  -0.352970   0.000000   0.182632  -0.254182
      5      -0.054839   0.000000   0.001566   0.000000   0.003439   0.001284
      6      -0.352970   0.001566   0.055779   0.000000   0.077714   0.029024
      7       0.000000   0.000000   0.000000   0.023119   0.000000   0.000000
      8       0.182632  -0.003439  -0.077714   0.000000  -0.096044  -0.044504
      9      -0.254182  -0.001284  -0.029024   0.000000  -0.044504   0.006498
     10       0.009854   0.000000   0.001704   0.000000   0.000640   0.003904
     11       0.061676   0.001704   0.058556   0.000000   0.014008   0.085461
     12       0.000000   0.000000   0.000000   0.024399   0.000000   0.000000
     13       0.084945  -0.000640  -0.014008   0.000000   0.020705  -0.022537
     14       0.198362  -0.003904  -0.085461   0.000000  -0.022537  -0.113098
     15      -0.003904   0.000001   0.037289   0.000000   0.061038  -0.009854
     16      -0.085461   0.037289   0.363411   0.000000   0.382052  -0.061676
     17       0.000000   0.000000   0.000000   0.212075   0.000000   0.000000
     18      -0.022537  -0.061038  -0.382052   0.000000  -0.314118   0.084945
     19      -0.113098   0.009854   0.061676   0.000000   0.084945   0.198362
     20      -0.000000   0.000000   0.000380   0.000000   0.000642   0.000788
     21      -0.000000   0.000380   0.024839   0.000000   0.025352   0.031097
     22       0.000000   0.000000   0.000000   0.009544   0.000000   0.000000
     23       0.000000  -0.000642  -0.025352   0.000000  -0.018324  -0.034183
     24       1.000000  -0.000788  -0.031097   0.000000  -0.034183  -0.032385
     25      -0.000788   1.000000   0.248362   0.000000   0.000000   0.000000
     26      -0.031097   0.248362   1.000000   0.000000   0.000000   0.000000
     27       0.000000   0.000000   0.000000   1.000000   0.000000   0.000000
     28      -0.034183   0.000000   0.000000   0.000000   1.000000   0.000000
     29      -0.032385   0.000000   0.000000   0.000000   0.000000   1.000000
     30       0.071181   0.000084   0.006108   0.000000   0.000029   0.010164
     31      -0.010164   0.005261   0.095200   0.000000   0.100509  -0.071181
     32       0.361904   0.000011   0.001735   0.000000   0.001976   0.002432
     33      -0.002432   0.061264   0.486726   0.000000  -0.291748  -0.361904
     34      -0.001612   0.000000   0.000003   0.000000   0.000009   0.000001
     35      -0.042495   0.000003   0.001582   0.000000   0.003106   0.000469
     36       0.000000   0.000000   0.000000   0.000527   0.000000   0.000000
     37       0.055100  -0.000009  -0.003106   0.000000  -0.005744  -0.000947
     38      -0.026579  -0.000001  -0.000469   0.000000  -0.000947   0.000384
     39      -0.000001   0.000000   0.001051   0.000000  -0.001996   0.001612
     40      -0.000469   0.001051   0.044325   0.000000  -0.052594   0.042495
     41       0.000000   0.000000   0.000000   0.017940   0.000000   0.000000
     42      -0.000947   0.001996   0.052594   0.000000  -0.050256   0.055100
     43       0.000384  -0.001612  -0.042495   0.000000   0.055100  -0.026579
     44      -0.006646   0.000006   0.001141   0.000000   0.002099  -0.000261
     45       0.000261   0.000064   0.005153   0.000000  -0.005576   0.006646
     46      -0.000081   0.000000   0.000000   0.000000   0.000000   0.000000
     47      -0.005137   0.000000   0.000025   0.000000   0.000060   0.000018
     48       0.000000   0.000000   0.000000   0.000008   0.000000   0.000000
     49       0.009069  -0.000000  -0.000060   0.000000  -0.000136  -0.000044
     50       0.002634  -0.000000  -0.000018   0.000000  -0.000044  -0.000006
     51      -0.000000   0.000000   0.000120   0.000000  -0.000341   0.000081
     52      -0.000018   0.000120   0.013048   0.000000  -0.021677   0.005137
     53       0.000000   0.000000   0.000000   0.004783   0.000000   0.000000
     54      -0.000044   0.000341   0.021677   0.000000  -0.033488   0.009069
     55      -0.000006  -0.000081  -0.005137   0.000000   0.009069   0.002634
     56       0.004935   0.000000   0.000025   0.000000   0.000049   0.000028
     57      -0.000028   0.000764   0.025192   0.000000  -0.037263  -0.004935
     58      -0.000386   0.000000   0.000002   0.000000   0.000004   0.000001
     59      -0.000001   0.000003   0.000835   0.000000  -0.001529   0.000386
                 30         31         32         33         34         35    
      0       0.005093   0.000080   0.000079   0.005080   0.000000   0.000000
      1       0.093008   0.005902   0.005884   0.092845   0.000000   0.000260
      2       0.000000   0.000000   0.000000   0.000000   0.000000   0.000000
      3       0.029652   0.006551   0.008518  -0.008985   0.000000   0.000567
      4       0.116986  -0.007348   0.004880  -0.120165  -0.000000  -0.000099
      5       0.000080   0.005093   0.005080   0.000079   0.000000   0.029550
      6       0.005902   0.093008   0.092845   0.005884   0.029550   0.317606
      7       0.000000   0.000000   0.000000   0.000000   0.000000   0.000000
      8      -0.006551  -0.029652   0.008985  -0.008518   0.048351   0.345288
      9       0.007348  -0.116986   0.120165  -0.004880  -0.009572  -0.068353
     10       0.061021   0.000011   0.005272   0.000084   0.000000   0.000002
     11       0.485749   0.001755   0.095346   0.006109   0.000002   0.001445
     12       0.000000   0.000000   0.000000   0.000000   0.000000   0.000000
     13      -0.162436   0.001114   0.117989  -0.003205   0.000007   0.002536
     14       0.434921  -0.002965   0.035888  -0.009648  -0.000004  -0.001377
     15       0.000011   0.061021   0.000084   0.005272   0.000000   0.001261
     16       0.001755   0.485749   0.006109   0.095346   0.001261   0.049214
     17       0.000000   0.000000   0.000000   0.000000   0.000000   0.000000
     18      -0.001114   0.162436   0.003205  -0.117989   0.002868   0.070447
     19       0.002965  -0.434921   0.009648  -0.035888   0.000952   0.023391
     20       0.005261   0.000084   0.061264   0.000011   0.000000   0.001051
     21       0.095200   0.006108   0.486726   0.001735   0.001051   0.044325
     22       0.000000   0.000000   0.000000   0.000000   0.000000   0.000000
     23      -0.100509  -0.000029   0.291748  -0.001976   0.001996   0.052594
     24       0.071181  -0.010164   0.361904  -0.002432  -0.001612  -0.042495
     25       0.000084   0.005261   0.000011   0.061264   0.000000   0.000003
     26       0.006108   0.095200   0.001735   0.486726   0.000003   0.001582
     27       0.000000   0.000000   0.000000   0.000000   0.000000   0.000000
     28       0.000029   0.100509   0.001976  -0.291748   0.000009   0.003106
     29       0.010164  -0.071181   0.002432  -0.361904   0.000001   0.000469
     30       1.000000   0.000106   0.050494   0.000712   0.000000   0.000147
     31       0.000106   1.000000   0.000712   0.050494   0.001125   0.032620
     32       0.050494   0.000712   1.000000   0.000105   0.000868   0.027412
     33       0.000712   0.050494   0.000105   1.000000   0.000000   0.000170
     34       0.000000   0.001125   0.000868   0.000000   1.000000   0.248362
     35       0.000147   0.032620   0.027412   0.000170   0.248362   1.000000
     36       0.000000   0.000000   0.000000   0.000000   0.000000   0.000000
     37      -0.000243  -0.035170  -0.019005  -0.000336   0.000000   0.000000
     38       0.000185  -0.031970   0.035868  -0.000107  -0.000000   0.000000
     39       0.001125   0.000000   0.000000   0.000868   0.000000   0.000000
     40       0.032620   0.000147   0.000170   0.027412   0.000000   0.000001
     41       0.000000   0.000000   0.000000   0.000000   0.000000   0.000000
     42       0.035170   0.000243   0.000336   0.019005   0.000000   0.000002
     43       0.031970  -0.000185   0.000107  -0.035868  -0.000000  -0.000000
     44       0.000014   0.061526   0.002479   0.000240   0.060698   0.484450
     45       0.061526   0.000014   0.000240   0.002479   0.000000   0.000000
     46       0.000000   0.000006   0.000892   0.000000   0.000002   0.042836
     47       0.000035   0.001164   0.027916   0.000002   0.042836   0.393154
     48       0.000000   0.000000   0.000000   0.000000   0.000000   0.000000
     49      -0.000073  -0.001595  -0.034145  -0.000004  -0.052605  -0.302011
     50       0.000030  -0.001449   0.023179  -0.000002  -0.047737  -0.274064
     51       0.000006   0.000000   0.000000   0.000892   0.000000   0.000000
     52       0.001164   0.000035   0.000002   0.027916   0.000000   0.000000
     53       0.000000   0.000000   0.000000   0.000000   0.000000   0.000000
     54       0.001595   0.000073   0.000004   0.034145   0.000000   0.000000
     55       0.001449  -0.000030   0.000002  -0.023179   0.000000  -0.000000
     56       0.000297   0.000238   0.089436   0.000001   0.005606   0.099656
     57       0.000238   0.000297   0.000001   0.089436   0.000000   0.000000
     58       0.000002   0.000251   0.002637   0.000000   0.005772   0.101772
     59       0.000251   0.000002   0.000000   0.002637   0.000000   0.000000
                 36         37         38         39         40         41    
      0       0.000000  -0.000000   0.000000   0.000000   0.029550   0.000000
      1       0.000000  -0.000567   0.000099   0.029550   0.317606   0.000000
      2       0.000083   0.000000   0.000000   0.000000   0.000000   0.177906
      3       0.000000  -0.001169   0.000219  -0.048351  -0.345288   0.000000
      4       0.000000   0.000219   0.000045   0.009572   0.068353   0.000000
      5       0.000000  -0.048351   0.009572   0.000000   0.000000   0.000000
      6       0.000000  -0.345288   0.068353   0.000000   0.000260   0.000000
      7       0.177906   0.000000   0.000000   0.000000   0.000000   0.000083
      8       0.000000  -0.301124   0.094828  -0.000000  -0.000567   0.000000
      9       0.000000   0.094828   0.159134   0.000000   0.000099   0.000000
     10       0.000000  -0.000007   0.000004   0.000000   0.001261   0.000000
     11       0.000000  -0.002536   0.001377   0.001261   0.049214   0.000000
     12       0.000480   0.000000   0.000000   0.000000   0.000000   0.020131
     13       0.000000  -0.004091   0.002483  -0.002868  -0.070447   0.000000
     14       0.000000   0.002483  -0.000868  -0.000952  -0.023391   0.000000
     15       0.000000  -0.002868  -0.000952   0.000000   0.000002   0.000000
     16       0.000000  -0.070447  -0.023391   0.000002   0.001445   0.000000
     17       0.020131   0.000000   0.000000   0.000000   0.000000   0.000480
     18       0.000000  -0.090407  -0.036702  -0.000007  -0.002536   0.000000
     19       0.000000  -0.036702   0.007944   0.000004   0.001377   0.000000
     20       0.000000  -0.001996   0.001612   0.000000   0.000003   0.000000
     21       0.000000  -0.052594   0.042495   0.000003   0.001582   0.000000
     22       0.017940   0.000000   0.000000   0.000000   0.000000   0.000527
     23       0.000000  -0.050256   0.055100  -0.000009  -0.003106   0.000000
     24       0.000000   0.055100  -0.026579  -0.000001  -0.000469   0.000000
     25       0.000000  -0.000009  -0.000001   0.000000   0.001051   0.000000
     26       0.000000  -0.003106  -0.000469   0.001051   0.044325   0.000000
     27       0.000527   0.000000   0.000000   0.000000   0.000000   0.017940
     28       0.000000  -0.005744  -0.000947  -0.001996  -0.052594   0.000000
     29       0.000000  -0.000947   0.000384   0.001612   0.042495   0.000000
     30       0.000000  -0.000243   0.000185   0.001125   0.032620   0.000000
     31       0.000000  -0.035170  -0.031970   0.000000   0.000147   0.000000
     32       0.000000  -0.019005   0.035868   0.000000   0.000170   0.000000
     33       0.000000  -0.000336  -0.000107   0.000868   0.027412   0.000000
     34       0.000000   0.000000  -0.000000   0.000000   0.000000   0.000000
     35       0.000000   0.000000   0.000000   0.000000   0.000001   0.000000
     36       1.000000   0.000000   0.000000   0.000000   0.000000   0.000000
     37       0.000000   1.000000   0.000000  -0.000000  -0.000002   0.000000
     38       0.000000   0.000000   1.000000   0.000000   0.000000   0.000000
     39       0.000000  -0.000000   0.000000   1.000000   0.248362   0.000000
     40       0.000000  -0.000002   0.000000   0.248362   1.000000   0.000000
     41       0.000000   0.000000   0.000000   0.000000   0.000000   1.000000
     42       0.000000  -0.000005   0.000001  -0.000000  -0.000000   0.000000
     43       0.000000   0.000001   0.000000   0.000000  -0.000000   0.000000
     44       0.000000   0.107662  -0.450798   0.000000   0.000000   0.000000
     45       0.000000  -0.000001   0.000000   0.060698   0.484450   0.000000
     46       0.000000   0.052605   0.047737   0.000000   0.000000   0.000000
     47       0.000000   0.302011   0.274064   0.000000   0.000000   0.000000
     48       0.235487   0.000000   0.000000   0.000000   0.000000   0.000000
     49       0.000000  -0.073677  -0.280555   0.000000  -0.000000   0.000000
     50       0.000000  -0.280555  -0.019107   0.000000   0.000000   0.000000
     51       0.000000   0.000000   0.000000   0.000002   0.042836   0.000000
     52       0.000000  -0.000000   0.000000   0.042836   0.393154   0.000000
     53       0.000000   0.000000   0.000000   0.000000   0.000000   0.235487
     54       0.000000  -0.000000   0.000000   0.052605   0.302011   0.000000
[...]

                     48        49        50        51        52        53   
                   0.45607   0.48158   0.52972   0.54921   0.57940   0.60284
                   0.00000   0.00000   0.00000   0.00000   0.00000   0.00000
                  --------  --------  --------  --------  --------  --------
 0 C  s               2.4       1.1       4.1       0.0       0.0       3.5
 0 C  px              0.4       0.1      12.4       0.1       0.1       0.0
 0 C  py              0.8       3.7       0.4      10.3       1.5       1.8
 1 C  s               2.4       1.1       4.1       0.0       0.0       3.5
 1 C  px              0.4       0.1      12.4       0.1       0.1       0.0
 1 C  py              0.8       3.7       0.4      10.3       1.5       1.8
 2 C  s               2.4       9.8       0.1       8.9       0.0       1.2
 2 C  px              0.7       0.4       0.6       0.4       1.4      16.0
 2 C  py              0.7       0.3       7.4       0.0       9.4       1.4
 3 C  s               2.4       9.8       0.1       8.9       0.0       1.2
 3 C  px              0.7       0.4       0.6       0.4       1.4      16.0
 3 C  py              0.7       0.3       7.4       0.0       9.4       1.4
 4 C  s               3.1       7.6       2.0       1.6       0.0       7.2
 4 C  px              0.8       0.9       0.0       7.3       5.2       5.0
 4 C  py              1.2       0.6       3.2       1.2       9.7       3.2
 5 C  s               3.1       7.6       2.0       1.6       0.0       7.2
 5 C  px              0.8       0.9       0.0       7.3       5.2       5.0
 5 C  py              1.2       0.6       3.2       1.2       9.7       3.2
 6 H  s               0.2       1.3       2.3       2.5       6.3       0.1
 7 H  s               0.2       1.3       2.3       2.5       6.3       0.1
 8 H  s               7.3       3.2       0.1       1.3       8.4       1.6
 9 H  s               7.3       3.2       0.1       1.3       8.4       1.6
10 C  s               3.2       1.1       5.1       0.8       2.3       3.1
10 C  px              0.4       0.1       0.0       0.0       0.6       0.2
10 C  py              0.2       0.0       0.8       2.4       0.4       0.2
11 C  s               3.2       1.1       5.1       0.8       2.3       3.1
11 C  px              0.4       0.1       0.0       0.0       0.6       0.2
11 C  py              0.2       0.0       0.8       2.4       0.4       0.2
12 H  s               2.8       0.2       2.6       0.8       0.2       1.6
13 H  s               2.8       0.2       2.6       0.8       0.2       1.6
14 C  s              10.2       3.7       0.2       0.1       1.4       0.0
14 C  px              0.1       5.3       0.8       7.9       2.2       0.2
14 C  py              1.0       0.6       3.8       0.0       0.2       2.2
15 C  s              10.2       3.7       0.2       0.1       1.4       0.0
15 C  px              0.1       5.3       0.8       7.9       2.2       0.2
15 C  py              1.0       0.6       3.8       0.0       0.2       2.2
16 H  s               8.7       2.6       1.8       0.3       0.4       1.3
17 H  s               8.7       2.6       1.8       0.3       0.4       1.3
18 H  s               3.3       7.3       2.0       4.2       0.2       0.0
19 H  s               3.3       7.3       2.0       4.2       0.2       0.0

                     54        55        56        57        58        59   
                   0.62845   0.64298   0.68642   0.72060   0.78290   0.79789
                   0.00000   0.00000   0.00000   0.00000   0.00000   0.00000
                  --------  --------  --------  --------  --------  --------
 0 C  s               7.4       0.1       0.3       0.4       0.0       1.5
 0 C  px              0.2       4.2       5.0       0.4       0.0      11.8
 0 C  py              1.3       0.5       0.6       5.8      14.2       0.8
 1 C  s               7.4       0.1       0.3       0.4       0.0       1.5
 1 C  px              0.2       4.2       5.0       0.4       0.0      11.8
 1 C  py              1.3       0.5       0.6       5.8      14.2       0.8
 2 C  s               0.2       0.7       0.3       2.0       0.0       2.0
 2 C  px              0.3       4.5       4.8       0.4       8.3       1.5
 2 C  py              1.8       2.1       0.5       1.2       1.7       8.5
 3 C  s               0.2       0.7       0.3       2.0       0.0       2.0
 3 C  px              0.3       4.5       4.8       0.4       8.3       1.5
 3 C  py              1.8       2.1       0.5       1.2       1.7       8.5
 4 C  s               0.7       0.8       0.3       0.5       0.0       2.6
 4 C  px              1.2       2.9       6.1       1.3       5.1       3.9
 4 C  py              4.0       1.0       0.0       0.1       5.5       6.8
 5 C  s               0.7       0.8       0.3       0.5       0.0       2.6
 5 C  px              1.2       2.9       6.1       1.3       5.1       3.9
 5 C  py              4.0       1.0       0.0       0.1       5.5       6.8
 6 H  s               0.5       1.4       0.0       0.0       0.0       2.1
 7 H  s               0.5       1.4       0.0       0.0       0.0       2.1
 8 H  s               0.0       0.1       1.1       0.3       0.1       2.2
 9 H  s               0.0       0.1       1.1       0.3       0.1       2.2
10 C  s               0.6       1.5       1.6       3.4       0.7       0.2
10 C  px              7.0       1.2      13.0       5.5       2.6       4.0
10 C  py              3.2       9.5       0.3      10.3       4.9       0.0
11 C  s               0.6       1.5       1.6       3.4       0.7       0.2
11 C  px              7.0       1.2      13.0       5.5       2.6       4.0
11 C  py              3.2       9.5       0.3      10.3       4.9       0.0
12 H  s               3.4       3.2       0.5       1.0       0.7       0.1
13 H  s               3.4       3.2       0.5       1.0       0.7       0.1
14 C  s               0.3       0.8       2.2       4.6       1.6       0.1
14 C  px              2.0       8.8       1.0       8.0       2.7       0.0
14 C  py              8.7       1.0       9.9       4.2       1.7       1.4
15 C  s               0.3       0.8       2.2       4.6       1.6       0.1
15 C  px              2.0       8.8       1.0       8.0       2.7       0.0
15 C  py              8.7       1.0       9.9       4.2       1.7       1.4
16 H  s               3.9       2.3       2.1       0.0       0.1       0.5
17 H  s               3.9       2.3       2.1       0.0       0.1       0.5
18 H  s               3.3       3.4       0.3       0.4       0.1       0.1
19 H  s               3.3       3.4       0.3       0.4       0.1       0.1



                      *****************************
                      * MAYER POPULATION ANALYSIS *
                      *****************************

  NA   - Mulliken gross atomic population
  ZA   - Total nuclear charge
  QA   - Mulliken gross atomic charge
  VA   - Mayer's total valence
  BVA  - Mayer's bonded valence
  FA   - Mayer's free valence

  ATOM       NA         ZA         QA         VA         BVA        FA
  0 C      6.0044     6.0000    -0.0044     3.9730     3.9730     0.0000
  1 C      6.0044     6.0000    -0.0044     3.9730     3.9730     0.0000
  2 C      6.0764     6.0000    -0.0764     3.9692     3.9692     0.0000
  3 C      6.0764     6.0000    -0.0764     3.9692     3.9692    -0.0000
  4 C      6.0769     6.0000    -0.0769     3.9701     3.9701     0.0000
  5 C      6.0769     6.0000    -0.0769     3.9701     3.9701     0.0000
  6 H      0.9226     1.0000     0.0774     0.9940     0.9940     0.0000
  7 H      0.9226     1.0000     0.0774     0.9940     0.9940     0.0000
  8 H      0.9210     1.0000     0.0790     0.9938     0.9938     0.0000
  9 H      0.9210     1.0000     0.0790     0.9938     0.9938     0.0000
 10 C      6.0762     6.0000    -0.0762     3.9681     3.9681    -0.0000
 11 C      6.0762     6.0000    -0.0762     3.9681     3.9681     0.0000
 12 H      0.9234     1.0000     0.0766     0.9941     0.9941    -0.0000
 13 H      0.9234     1.0000     0.0766     0.9941     0.9941    -0.0000
 14 C      6.1543     6.0000    -0.1543     3.9648     3.9648    -0.0000
 15 C      6.1543     6.0000    -0.1543     3.9648     3.9648    -0.0000
 16 H      0.9239     1.0000     0.0761     0.9942     0.9942    -0.0000
 17 H      0.9239     1.0000     0.0761     0.9942     0.9942    -0.0000
 18 H      0.9209     1.0000     0.0791     0.9937     0.9937    -0.0000
 19 H      0.9209     1.0000     0.0791     0.9937     0.9937    -0.0000

  Mayer bond orders larger than 0.100000
B(  0-C ,  2-C ) :   1.3625 B(  0-C ,  5-C ) :   1.3654 B(  0-C , 11-C ) :   1.0666 
B(  1-C ,  3-C ) :   1.3625 B(  1-C ,  4-C ) :   1.3654 B(  1-C , 10-C ) :   1.0666 
B(  2-C ,  4-C ) :   1.4654 B(  2-C ,  6-H ) :   0.9614 B(  3-C ,  5-C ) :   1.4654 
B(  3-C ,  7-H ) :   0.9614 B(  4-C ,  5-C ) :   0.1019 B(  4-C ,  8-H ) :   0.9596 
B(  5-C ,  9-H ) :   0.9596 B( 10-C , 12-H ) :   0.9591 B( 10-C , 14-C ) :   1.9012 
B( 11-C , 13-H ) :   0.9591 B( 11-C , 15-C ) :   1.9012 B( 14-C , 16-H ) :   0.9665 
B( 14-C , 18-H ) :   0.9693 B( 15-C , 17-H ) :   0.9665 B( 15-C , 19-H ) :   0.9693 


-------
TIMINGS
-------

Total SCF time: 0 days 0 hours 0 min 4 sec 

Total time                  ....       4.523 sec
Sum of individual times     ....       4.504 sec  ( 99.6%)

SCF preparation             ....       0.026 sec  (  0.6%)
Fock matrix formation       ....       4.458 sec  ( 98.6%)
  Startup                   ....       0.000 sec  (  0.0% of F)
  Split-RI-J                ....       0.198 sec  (  4.4% of F)
  Chain of spheres X        ....       3.823 sec  ( 85.8% of F)
  XC integration            ....       0.435 sec  (  9.7% of F)
    Basis function eval.    ....       0.215 sec  ( 49.4% of XC)
    Density eval.           ....       0.077 sec  ( 17.7% of XC)
    XC-Functional eval.     ....       0.048 sec  ( 11.0% of XC)
    XC-Potential eval.      ....       0.061 sec  ( 14.1% of XC)
Diagonalization             ....       0.000 sec  (  0.0%)
Density matrix formation    ....       0.001 sec  (  0.0%)
Total Energy calculation    ....       0.002 sec  (  0.0%)
Population analysis         ....       0.014 sec  (  0.3%)
Orbital Transformation      ....       0.001 sec  (  0.0%)
Orbital Orthonormalization  ....       0.000 sec  (  0.0%)
DIIS solution               ....       0.001 sec  (  0.0%)
  MO trafo                  ....       0.000 sec  (  0.1 % of DIIS)
  Orb grad                  ....       0.000 sec  (  0.0 % of DIIS)
  Energy W gradient         ....       0.000 sec  (  0.0 % of DIIS)
  DIIS error                ....       0.000 sec  (  3.8 % of DIIS)
  DIIS work                 ....       0.001 sec  ( 87.7 % of DIIS)
  Form Q                    ....       0.000 sec  (  0.0 % of DIIS)
  Form QpQm                 ....       0.000 sec  (  0.0 % of DIIS)
  Exp/Cayley                ....       0.000 sec  (  0.0 % of DIIS)
  Orb update                ....       0.000 sec  (  0.0 % of DIIS)
  Wake-sleep                ....       0.000 sec  (  8.1 % of DIIS)
SOSCF solution              ....       0.001 sec  (  0.0%)
  MO trafo                  ....       0.001 sec  ( 48.3 % of SOSCF)
  Orb grad                  ....       0.000 sec  (  8.9 % of SOSCF)
  Rot update                ....       0.000 sec  ( 13.8 % of SOSCF)
  Step                      ....       0.000 sec  ( 26.3 % of SOSCF)
Finished LeanSCF after   4.5 sec

Maximum memory used throughout the entire LEANSCF-calculation: 12.7 MB

-------------------------   --------------------
FINAL SINGLE POINT ENERGY      -382.055133399486
-------------------------   --------------------

                                *** OPTIMIZATION RUN DONE ***


------------------------------------------------------------------------------
                              ORCA PROPERTY CALCULATIONS
------------------------------------------------------------------------------

GBWName                                 ... dvb_gopt.gbw
Number of atoms                         ...     20
Number of basis functions               ...     60
Max core memory                         ...   1024 MB

Electric properties:
Dipole moment                           ... YES
Quadrupole moment                       ...  NO
Static polarizability (Dipole/Dipole)   ...  NO
Static polarizability (Dipole/Quad.)    ...  NO
Static polarizability (Quad./Quad.)     ...  NO
Static polarizability (Velocity)        ...  NO

Atomic electric properties:
Dipole moment                           ...  NO
Quadrupole moment                       ...  NO
Static polarizability                   ...  NO

Choice of electric origin               ... Center of mass
Position of electric origin             ...    -0.000000     0.000000    -0.000000

General magnetic properties:
Magnetizability                         ...  NO

EPR properties:
g-Tensor (aka g-matrix)                 ...  NO
Zero-Field splitting spin-orbit         ...  NO
Zero-field splitting spin-spin          ...  NO
Hyperfine couplings                     ...  NO (   0 nuclei)
Quadrupole couplings                    ...  NO (   0 nuclei)
Contact density                         ...  NO (   0 nuclei)

NMR properties:
Chemical shifts                         ...  NO (   0 nuclei)
Spin-rotation constants                 ...  NO (   0 nuclei)
Spin-spin couplings                     ...  NO (   0 nuclei,    0 pairs)

Choice of magnetic origin               ... GIAO
Position of magnetic origin             ...     0.000000     0.000000     0.000000

Properties with geometric perturbations:
SCF Hessian                             ...  NO
IR spectrum                             ...  NO
VCD spectrum                            ...  NO
X-ray spectroscopy properties:
SCF XES/XAS/RIXS spectra                ...  NO


-------------
DIPOLE MOMENT
-------------

Method             : SCF
Type of density    : Electron Density
Multiplicity       :   1
Irrep              :   0
Energy             :  -382.0551333994864649 Eh
Relativity type    : 
Basis              : AO
                                X                 Y                 Z
Electronic contribution:     -0.000000000       0.000000000      -0.000000000
Nuclear contribution   :      0.000000000       0.000000000      -0.000000000
                        -----------------------------------------
Total Dipole Moment    :     -0.000000000       0.000000000      -0.000000000
                        -----------------------------------------
Magnitude (a.u.)       :      0.000000000
Magnitude (Debye)      :      0.000000000



--------------------
Rotational spectrum 
--------------------
 
Rotational constants in cm-1:             0.154179             0.022814             0.019873 
Rotational constants in MHz :          4622.158493           683.953577           595.792511 

Dipole components along the rotational axes: 
x,y,z [a.u.] :     0.000000    -0.000000    -0.000000 
x,y,z [Debye]:     0.000000    -0.000000    -0.000000 

 

Dipole moment calculation done in   0.0 sec 

Maximum memory used throughout the entire PROP-calculation: 5.5 MB

--------------------------------
SUGGESTED CITATIONS FOR THIS RUN
--------------------------------

Below you find a list of papers that are relevant to this ORCA run
We neither can nor want to force you to cite these papers, but we appreciate if you do
You receive ORCA, which is the product of decades of hard work by many enthusiastic individuals, for free
The only thing we kindly ask in return is that you cite our papers,
We deeply appreciate it, if you show your appreciation for ORCA by not just citing the generic ORCA reference.

Please note that relegating all ORCA citations to the supporting information does *not* help us.
SI sections are not indexed - citations you put there will not count into any citation statistics
But we need these citations in order to attract the funding resources that allow us to do what we are doing

Therefore, if you are a happy ORCA user, please consider citing a few of the papers listed below in the main body of your paper

In addition to the list printed below, the program has created the file dvb_gopt.bibtex that contains the list in bibtex format
You can import this file easily into all common literature databanks and citation aid programs


List of essential papers. We consider these as the minimum necessary citations

  1. Neese,F.
     Software update: the ORCA program system, version 5.0
     WIRES Comput. Molec. Sci., 2022 12(1)e1606
     doi.org/10.1002/wcms.1606

List of papers to cite with high priority. The work reported in these papers was absolutely
necessary for this run to complete.
Our perspective: the developers of density functionals and basis sets usually get cited in chemistry papers
Good! But without the algorithms to do something with them, the functionals or basis sets would not do anything.
Hence, in our opinion, the algorithm design and method developments papers are equally worthy of getting cited

  1. Neese,F.
     An improvement of the resolution of the identity approximation for the formation of the Coulomb matrix
     J. Comp. Chem., 2003 24(14)1740-1747
     doi.org/10.1002/jcc.10318
  2. Neese,F.; Wennmohs,F.; Hansen,A.; Becker,U.
     Efficient, approximate and parallel Hartree-Fock and hybrid DFT calculations. A 'chain-of-spheres' algorithm for the Hartree-Fock exchange
     Chem. Phys., 2009 356(1-3)98-109
     doi.org/10.1016/j.chemphys.2008.10.036
  3. Helmich-Paris,B.; de Souza,B.; Neese,F.; Izsák,R.
     An improved chain of spheres for exchange algorithm
     J. Chem. Phys., 2021 155 104109
     doi.org/doi: 10.1063/5.0058766.
  4. Neese,F.
     The SHARK Integral Generation and Digestion System
     J. Comp. Chem., 2022  1-16
     doi.org/10.1002/jcc.26942

List of suggested additional citations. These are papers that are important in the 'surrounding' of 
of this run, or papers that preceded the highly important papers. If you like your results we are grateful for a citation.

  1. Izsak,R.; Neese,F.
     An overlap fitted chain of spheres exchange method
     J. Chem. Phys., 2011 135 144105
     doi.org/10.1063/1.3646921
  2. Izsak,R.; Hansen,A.; Neese,F.
     The resolution of identity and chain of spheres approximations for the LPNO-CCSD singles Fock term
     Molec. Phys., 2012 110 2413-2417
     doi.org/10.1080/00268976.2012.687466
  3. Neese,F.
     The ORCA program system
     WIRES Comput. Molec. Sci., 2012 2(1)73-78
     doi.org/10.1002/wcms.81
  4. Izsak,R.; Neese,F.; Klopper,W.
     Robust fitting techniques in the chain of spheres approximation to the Fock exchange: The role of the complementary space
     J. Chem. Phys., 2013 139 
     doi.org/10.1063/1.4819264
  5. Neese,F.
     Software update: the ORCA program system, version 4.0
     WIRES Comput. Molec. Sci., 2018 8(1)1-6
     doi.org/10.1002/wcms.1327
  6. Neese,F.; Wennmohs,F.; Becker,U.; Riplinger,C.
     The ORCA quantum chemistry program package
     J. Chem. Phys., 2020 152 Art. No. L224108
     doi.org/10.1063/5.0004608

List of optional additional citations

  1. Neese,F.
     Approximate second-order SCF convergence for spin unrestricted wavefunctions
     Chem. Phys. Lett., 2000 325(1-3)93-98
     doi.org/10.1016/s0009-2614(00)00662-x

Timings for individual modules:

Sum of individual times          ...       51.958 sec (=   0.866 min)
Startup calculation              ...        3.469 sec (=   0.058 min)   6.7 %
SCF iterations                   ...       25.742 sec (=   0.429 min)  49.5 %
Property calculations            ...        0.055 sec (=   0.001 min)   0.1 %
SCF Gradient evaluation          ...       22.677 sec (=   0.378 min)  43.6 %
Geometry relaxation              ...        0.015 sec (=   0.000 min)   0.0 %
                             ****ORCA TERMINATED NORMALLY****
TOTAL RUN TIME: 0 days 0 hours 0 minutes 52 seconds 153 msec
