
                                 *****************
                                 * O   R   C   A *
                                 *****************

                                            #,                                       
                                            ###                                      
                                            ####                                     
                                            #####                                    
                                            ######                                   
                                           ########,                                 
                                     ,,################,,,,,                         
                               ,,#################################,,                 
                          ,,##########################################,,             
                       ,#########################################, ''#####,          
                    ,#############################################,,   '####,        
                  ,##################################################,,,,####,       
                ,###########''''           ''''###############################       
              ,#####''   ,,,,##########,,,,          '''####'''          '####       
            ,##' ,,,,###########################,,,                        '##       
           ' ,,###''''                  '''############,,,                           
         ,,##''                                '''############,,,,        ,,,,,,###''
      ,#''                                            '''#######################'''  
     '                                                          ''''####''''         
             ,#######,   #######,   ,#######,      ##                                
            ,#'     '#,  ##    ##  ,#'     '#,    #''#        ,####,   ,####,        
            ##       ##  ##   ,#'  ##            #'  '#       #'       #'  '#        
            ##       ##  #######   ##           ,######,      #####,   #    #        
            '#,     ,#'  ##    ##  '#,     ,#' ,#      #,     #,   #   #,  ,#        
             '#######'   ##     ##  '#######'  #'      '#     '####' # '####'        



                #########################################################
                #                        -***-                          #
                #          Department of theory and spectroscopy        #
                #                                                       #
                #                      Frank Neese                      #
                #                                                       #
                #     Directorship, Architecture, Infrastructure        #
                #                    SHARK, DRIVERS                     #
                #        Core code/Algorithms in most modules           #
                #                                                       #
                #        Max Planck Institute fuer Kohlenforschung      #
                #                Kaiser Wilhelm Platz 1                 #
                #                 D-45470 Muelheim/Ruhr                 #
                #                      Germany                          #
                #                                                       #
                #                  All rights reserved                  #
                #                        -***-                          #
                #########################################################


                         Program Version 6.0.1  -  RELEASE   -


 With contributions from (in alphabetic order):
[Max-Planck-Institut fuer Kohlenforschung]                               
  Daniel Aravena         : Magnetic Suceptibility                        
  Michael Atanasov       : Ab Initio Ligand Field Theory (pilot matlab implementation)
  Alexander A. Auer      : GIAO ZORA, VPT2 properties, NMR spectrum      
  Ute Becker             : All parallelization in ORCA, NUMFREQ, NUMCALC 
  Giovanni Bistoni       : ED, misc. LED, open-shell LED, HFLD           
  Martin Brehm           : Molecular dynamics                            
  Dmytro Bykov           : pre 5.0 version of the SCF Hessian            
  Marcos Casanova-Páez   : Triplet and SCS-CIS(D). UHF-(DLPNO)-IP/EA/STEOM-CCSD. UHF-CVS-IP/STEOM-CCSD   
  Vijay G. Chilkuri      : MRCI spin determinant printing, contributions to CSF-ICE 
  Pauline Colinet        : FMM embedding                                 
  Dipayan Datta          : RHF DLPNO-CCSD density                        
  Achintya Kumar Dutta   : EOM-CC, STEOM-CC                              
  Nicolas Foglia         : Exact transition moments, OPA infrastructure, MCD improvements    
  Dmitry Ganyushin       : Spin-Orbit,Spin-Spin,Magnetic field MRCI      
  Miquel Garcia-Rates    : C-PCM and meta-GGA Hessian, CCSD/C-PCM, Gaussian charge scheme 
  Tiago L. C. Gouveia    : GS-ROHF, GS-ROCIS                             
  Yang Guo               : DLPNO-NEVPT2, F12-NEVPT2, CIM, IAO-localization        
  Andreas Hansen         : Spin unrestricted coupled pair/coupled cluster methods 
  Ingolf Harden          : AUTO-CI MPn and infrastructure                
  Benjamin Helmich-Paris : MC-RPA, TRAH-(SCF,CASSCF), AVAS, COSX integrals, SCF dyn. polar. 
  Lee Huntington         : MR-EOM, pCC                                   
  Robert Izsak           : Overlap fitted RIJCOSX, COSX-SCS-MP3, EOM     
  Riya Kayal             : Wick's Theorem for AUTO-CI, AUTO-CI UHF-CCSDT 
  Emily Kempfer          : AUTO-CI, RHF CISDT and CCSDT                  
  Christian Kollmar      : KDIIS, OOCD, Brueckner-CCSD(T), CCSD density, CASPT2, CASPT2-K, improved NEVPT2 
  Axel Koslowski         : Symmetry handling                             
  Simone Kossmann        : meta-GGA functionals, TD-DFT gradient, OOMP2, (MP2 Hessian; deprecated post 5.0) 
  Lucas Lang             : DCDCAS                                        
  Marvin Lechner         : AUTO-CI (C++ implementation), FIC-MRCC        
  Spencer Leger          : CASSCF response                               
  Dagmar Lenk            : GEPOL surface, SMD, ORCA-2-JSON               
  Dimitrios Liakos       : Extrapolation schemes; Compound Job, initial MDCI parallelization 
  Dimitrios Manganas     : Further ROCIS development; embedding schemes. LFT, Crystal Embedding 
  Dimitrios Pantazis     : SARC Basis sets                               
  Anastasios Papadopoulos: AUTO-CI, single reference methods and gradients 
  Taras Petrenko         : pre 6.0 DFT Hessian and TD-DFT gradient, (ASA, deprecated), ECA, 1-Electron XAS/XES, NRVS 
  Peter Pinski           : DLPNO-MP2, DLPNO-MP2 Gradient                 
  Christoph Reimann      : Effective Core Potentials                     
  Marius Retegan         : Local ZFS, SOC                                
  Christoph Riplinger    : Optimizer, TS searches, QM/MM, DLPNO-CCSD(T), (RO)-DLPNO pert. Triples 
  Michael Roemelt        : Original ROCIS implementation                 
  Masaaki Saitow         : Open-shell DLPNO-CCSD energy and density      
  Barbara Sandhoefer     : DKH picture change effects                    
  Kantharuban Sivalingam : CASSCF convergence/infrastructure, NEVPT2 and variants, FIC-MRCI 
  Bernardo de Souza      : ESD, SOC TD-DFT                               
  Georgi L. Stoychev     : AutoAux, RI-MP2 NMR, DLPNO-MP2 response, X2C  
  Van Anh Tran           : RI-MP2 g-tensors                              
  Willem Van den Heuvel  : Paramagnetic NMR                              
  Zikuan Wang            : NOTCH, Electric field optimization            
  Frank Wennmohs         : Technical directorship and infrastructure     
  Hang Xu                : AUTO-CI-Response properties                   
                                                                         
[FACCTs GmbH]                                                            
  Markus Bursch, Miquel Garcia-Rates, Christoph Riplinger, Bernardo de Souza, Georgi L. Stoychev 
                                                                 
  APM, Basis sets (HGBS, AHGBS, def-TZVP (Ac-Lr), def2-XVPD (La-Lu)), CI-OPT, improved COSX, DLPNO-Multilevel,           
  DOCKER, DRACO, updates on ESD, GOAT, IRC, LR-CPCM, MBIS, meta-GGA TD-DFT gradient, ML-optimized integration grids, 
  MM, NACMEs, nearIR, NEB, NEB-TS, NL-DFT gradient (VV10), 2- and 3-layer-ONIOM, interface openCOSMO-RS, QMMM,   
  Crystal-QMMM, SF, symmetry and pop. for TD-DFT, r2SCAN hybrids, SOLVATOR                                   
                                                                         
[Other institutions]                                                     
  V. Asgeirsson          : NEB                                           
  Christoph Bannwarth    : sTDA-DFT, sTD-DFT, PBEh-3c, B97-3c, D3        
  Sebastian Ehlert       : rSCAN, r2SCAN, r2SCAN-3c, D4, dhf basis sets  
  Marvin Friede          : D4 for Fr, Ra, Ac-Lr                          
  Lars Goerigk           : TD-DFT with DH, B97 family of functionals     
  Stefan Grimme          : VdW corrections, initial TS optimization, DFT functionals, gCP, sTDA/sTD-DF 
  Waldemar Hujo          : DFT-NL                                        
  H. Jonsson             : NEB                                           
  Holger Kruse           : gCP                                           
  Marcel Mueller         : wB97X-3c, vDZP basis set                      
  Hagen Neugebauer       : wr2SCAN                                       
  Tobias Risthaus        : range-separated hybrid DFT                    
  Lukas Wittmann         : regularized MP2, r2SCAN double-hybrids, wr2SCAN        
                                                                         
We gratefully acknowledge several colleagues who have allowed us to      
interface, adapt or use parts of their codes:                            
  Ed Valeev, F. Pavosevic, A. Kumar             : LibInt (2-el integral package), F12 methods 
  Garnet Chan, S. Sharma, J. Yang, R. Olivares  : DMRG                   
  Ulf Ekstrom                                   : XCFun DFT Library      
  Mihaly Kallay                                 : mrcc  (arbitrary order and MRCC methods)
  Frank Weinhold                                : gennbo (NPA and NBO analysis)           
  Simon Mueller                                 : openCOSMO-RS                            
  Christopher J. Cramer and Donald G. Truhlar   : smd solvation model                     
  S Lehtola, MJT Oliveira, MAL Marques          : LibXC Library                           
  Liviu Ungur et al                             : ANISO software                          


 Your calculation uses the libint2 library for the computation of 2-el integrals
 For citations please refer to: http://libint.valeyev.net

 Your ORCA version has been built with support for libXC version: 6.2.2
 For citations please refer to: https://libxc.gitlab.io

 This ORCA versions uses:
   CBLAS   interface :  Fast vector & matrix operations
   LAPACKE interface :  Fast linear algebra routines
   SCALAPACK package :  Parallel linear algebra routines
   Shared memory     :  Shared parallel matrices
   BLAS/LAPACK       :  OpenBLAS 0.3.27  USE64BITINT DYNAMIC_ARCH NO_AFFINITY Zen SINGLE_THREADED
        Core in use  :  Zen
   Copyright (c) 2011-2014, The OpenBLAS Project


Warning: RI is on but no J-basis has been assigned. Assigning Def2/J (nothing to worry about!)
================================================================================

----- Orbital basis set information -----
Your calculation utilizes the basis: STO-3G
   H-Ne       : W. J. Hehre, R. F. Stewart and J. A. Pople, J. Chem. Phys. 2657 (1969).
   Na-Ar      : W. J. Hehre, R. Ditchfield, R. F. Stewart and J. A. Pople, J. Chem. Phys. 2769 (1970).
   K,Ca,Ga-Kr : W. J. Pietro, B. A. Levy, W. J. Hehre and R. F. Stewart, J. Am. Chem. Soc. 19, 2225 (1980).
   Sc-Zn,Y-Cd : W. J. Pietro and W. J. Hehre, J. Comp. Chem. 4, 241 (1983).

----- AuxJ basis set information -----
Your calculation utilizes the auxiliary basis: def2/J
   F. Weigend, Phys. Chem. Chem. Phys. 8, 1057 (2006).

================================================================================
                                        WARNINGS
                       Please study these warnings very carefully!
================================================================================

WARNING: Old DensityContainer found on disk!
         Will remove this file - 
         If you want to keep old densities, please start your calculation with a different basename. 


================================================================================
                                       INPUT FILE
================================================================================
NAME = dvb_scan_unrelaxed.inp
|  1> ! rks b3lyp STO-3G noautostart
|  2> 
|  3> %output
|  4>  printlevel normal
|  5>  print[ p_basis ] 2
|  6>  print[ p_mos ] 1
|  7> end
|  8> 
|  9> %paras 
| 10>    B1    =        1.39155762
| 11>    B2    =        1.38920112
| 12>    B3    =        1.36617670
| 13>    B4    =        1.39155762
| 14>    B5    =        1.09491754
| 15>    B6    =        1.09598547
| 16>    B7    =        1.09491754
| 17>    B8    =        1.48585283
| 18>    B9    =        1.34292581
| 19>    B10   =        1.10354826
| 20>    B11   =        1.09829801
| 21>    B12   =        1.07000000
| 22>    B13   =        1.48585283
| 23>    B14   =        1.09829801
| 24>    B15   =        1.34292581
| 25>    B16   =        1.10354826
| 26>    B17   =        1.07000000
| 27>    B18   =        1.38920112
| 28>    B19   =        1.09598547
| 29>    A1    =      120.26061806
| 30>    A2    =      119.60307576
| 31>    A3    =      120.13630618
| 32>    A4    =      119.89927090
| 33>    A5    =      119.94428410
| 34>    A6    =      119.89927090
| 35>    A7    =      119.97332138
| 36>    A8    =      123.60169362
| 37>    A9    =      119.56877435
| 38>    A10   =      115.51294680
| 39>    A11   =      122.34164357
| 40>    A12   =      119.89037245
| 41>    A13   =      115.51294680
| 42>    A14   =      123.60169362
| 43>    A15   =      119.56877435
| 44>    A16   =      122.34164357
| 45>    A17   =      120.26061806
| 46>    A18   =      119.94428410
| 47>    D1    =        0.00000000
| 48>    D2    =        0.00000000
| 49>    D3    =      180.00000000
| 50>    D4    =      180.00000000
| 51>    D5    =      180.00000000
| 52>    D6    =      180.00000000
| 53>    D7    =    0.0, 360.0, 12
| 54>    D8    =        0.00000000
| 55>    D9    =        0.00000000
| 56>    D10   =      180.00000000
| 57>    D11   =      180.00000000
| 58>    D12   =      180.00000000
| 59>    D13   =        0.00000000
| 60>    D14   =        0.00000000
| 61>    D15   =      180.00000000
| 62>    D16   =        0.00000000
| 63>    D17   =      180.00000000
| 64> end
| 65> 
| 66> *int 0 1
| 67>  C                  0    0    0       0.0                  0.0                   0.0
| 68>  C                  1    0    0       {B1}                 0.0                   0.0
| 69>  C                  2    1    0       {B2}                 {A1}                  0.0
| 70>  C                  3    2    1       {B3}                 {A2}                  {D1}
| 71>  C                  4    3    2       {B4}                 {A3}                  {D2}
| 72>  H                  2    1    5       {B5}                 {A4}                  {D3}
| 73>  H                  3    2    1       {B6}                 {A5}                  {D4}
| 74>  H                  5    4    3       {B7}                 {A6}                  {D5}
| 75>  C                  4    3    2       {B8}                 {A7}                  {D6}
| 76>  C                  9    4    3       {B9}                 {A8}                  {D7}
| 77>  H                 10    9    4      {B10}                 {A9}                  {D8}
| 78>  H                  9    4    3      {B11}                {A10}                  {D9}
| 79>  H                 10    9    4      {B12}                {A11}                 {D10}
| 80>  C                  1    2    3      {B13}                {A12}                 {D11}
| 81>  H                 14    1    2      {B14}                {A13}                 {D12}
| 82>  C                 14    1    2      {B15}                {A14}                 {D13}
| 83>  H                 16   14    1      {B16}                {A15}                 {D14}
| 84>  H                 16   14    1      {B17}                {A16}                 {D15}
| 85>  C                  5    4    3      {B18}                {A17}                 {D16}
| 86>  H                 19    5    4      {B19}                {A18}                 {D17}
| 87> *
| 88> 
| 89>                          ****END OF INPUT****
================================================================================

                       ******************************
                       * Parameter Scan Calculation *
                       ******************************

Trajectory settings:
    -> SCF surface will be mapped

There are 1 parameter(s) to be scanned
            D7: range=   0.00000000 .. 360.00000000  steps=   12
There will be   12 energy evaluations


         *************************************************************
                                TRAJECTORY STEP   1
                 D7  :   0.00000000
         *************************************************************
---------------------------------
CARTESIAN COORDINATES (ANGSTROEM)
---------------------------------
  C      0.000000    0.000000    0.000000
  C      1.391558    0.000000    0.000000
  C      2.091623    1.199912    0.000000
  C      1.405722    2.381427    0.000000
  C      0.014165    2.381427    0.000000
  H      1.937349   -0.949187    0.000000
  H      3.187592    1.193861    0.000000
  H     -0.531626    3.330614    0.000000
  C      2.146185    3.669632    0.000000
  C      3.486295    3.756559    0.000000
  H      4.091847    2.833995    0.000000
  H      3.241279    3.585803    0.000000
  H      3.998992    4.695730    0.000000
  C     -0.740463   -1.288205   -0.000000
  H     -1.835557   -1.204377   -0.000000
  C     -0.141086   -2.489953   -0.000000
  H      0.960888   -2.548878   -0.000000
  H     -0.694583   -3.405672   -0.000000
  C     -0.685901    1.181515    0.000000
  H     -1.781870    1.187566    0.000000

----------------------------
CARTESIAN COORDINATES (A.U.)
----------------------------
  NO LB      ZA    FRAG     MASS         X           Y           Z
   0 C     6.0000    0    12.011    0.000000    0.000000    0.000000
   1 C     6.0000    0    12.011    2.629663    0.000000    0.000000
   2 C     6.0000    0    12.011    3.952595    2.267504    0.000000
   3 C     6.0000    0    12.011    2.656430    4.500245    0.000000
   4 C     6.0000    0    12.011    0.026767    4.500245    0.000000
   5 H     1.0000    0     1.008    3.661058   -1.793704    0.000000
   6 H     1.0000    0     1.008    6.023676    2.256069    0.000000
   7 H     1.0000    0     1.008   -1.004628    6.293949    0.000000
   8 C     6.0000    0    12.011    4.055702    6.934600    0.000000
   9 C     6.0000    0    12.011    6.588142    7.098868    0.000000
  10 H     1.0000    0     1.008    7.732471    5.355474    0.000000
  11 H     1.0000    0     1.008    6.125130    6.776186    0.000000
  12 H     1.0000    0     1.008    7.557000    8.873643    0.000000
  13 C     6.0000    0    12.011   -1.399272   -2.434355   -0.000000
  14 H     1.0000    0     1.008   -3.468700   -2.275942   -0.000000
  15 C     6.0000    0    12.011   -0.266614   -4.705329   -0.000000
  16 H     1.0000    0     1.008    1.815815   -4.816682   -0.000000
  17 H     1.0000    0     1.008   -1.312571   -6.435787   -0.000000
  18 C     6.0000    0    12.011   -1.296165    2.232740    0.000000
  19 H     1.0000    0     1.008   -3.367246    2.244175    0.000000

--------------------------------
INTERNAL COORDINATES (ANGSTROEM)
--------------------------------
 C      0   0   0     0.000000000000     0.00000000     0.00000000
 C      1   0   0     1.391557620000     0.00000000     0.00000000
 C      2   1   0     1.389201120000   120.26061806     0.00000000
 C      3   2   1     1.366176700000   119.60307576     0.00000000
 C      4   3   2     1.391557620000   120.13630618     0.00000000
 H      2   1   5     1.094917540000   119.89927090   180.00000000
 H      3   2   1     1.095985470000   119.94428410   180.00000000
 H      5   4   3     1.094917540000   119.89927090   180.00000000
 C      4   3   2     1.485852830000   119.97332138   180.00000000
 C      9   4   3     1.342925810000   123.60169362     0.00000000
 H     10   9   4     1.103548260000   119.56877435     0.00000000
 H      9   4   3     1.098298010000   115.51294680     0.00000000
 H     10   9   4     1.070000000000   122.34164357   180.00000000
 C      1   2   3     1.485852830000   119.89037245   180.00000000
 H     14   1   2     1.098298010000   115.51294680   180.00000000
 C     14   1   2     1.342925810000   123.60169362     0.00000000
 H     16  14   1     1.103548260000   119.56877435     0.00000000
 H     16  14   1     1.070000000000   122.34164357   180.00000000
 C      5   4   3     1.389201120000   120.26061806     0.00000000
 H     19   5   4     1.095985470000   119.94428410   180.00000000

---------------------------
INTERNAL COORDINATES (A.U.)
---------------------------
 C      0   0   0     0.000000000000     0.00000000     0.00000000
 C      1   0   0     2.629662801371     0.00000000     0.00000000
 C      2   1   0     2.625209661737   120.26061806     0.00000000
 C      3   2   1     2.581699813544   119.60307576     0.00000000
 C      4   3   2     2.629662801371   120.13630618     0.00000000
 H      2   1   5     2.069094289827   119.89927090   180.00000000
 H      3   2   1     2.071112385057   119.94428410   180.00000000
 H      5   4   3     2.069094289827   119.89927090   180.00000000
 C      4   3   2     2.807854924012   119.97332138   180.00000000
 C      9   4   3     2.537761999074   123.60169362     0.00000000
 H     10   9   4     2.085403986965   119.56877435     0.00000000
 H      9   4   3     2.075482452331   115.51294680     0.00000000
 H     10   9   4     2.022006963296   122.34164357   180.00000000
 C      1   2   3     2.807854924012   119.89037245   180.00000000
 H     14   1   2     2.075482452331   115.51294680   180.00000000
 C     14   1   2     2.537761999074   123.60169362     0.00000000
 H     16  14   1     2.085403986965   119.56877435     0.00000000
 H     16  14   1     2.022006963296   122.34164357   180.00000000
 C      5   4   3     2.625209661737   120.26061806     0.00000000
 H     19   5   4     2.071112385057   119.94428410   180.00000000

---------------------
BASIS SET INFORMATION
---------------------
There are 2 groups of distinct atoms

 Group   1 Type C   : 6s3p contracted to 2s1p pattern {33/3}
 Group   2 Type H   : 3s contracted to 1s pattern {3}

Atom   0C    basis set group =>   1
Atom   1C    basis set group =>   1
Atom   2C    basis set group =>   1
Atom   3C    basis set group =>   1
Atom   4C    basis set group =>   1
Atom   5H    basis set group =>   2
Atom   6H    basis set group =>   2
Atom   7H    basis set group =>   2
Atom   8C    basis set group =>   1
Atom   9C    basis set group =>   1
Atom  10H    basis set group =>   2
Atom  11H    basis set group =>   2
Atom  12H    basis set group =>   2
Atom  13C    basis set group =>   1
Atom  14H    basis set group =>   2
Atom  15C    basis set group =>   1
Atom  16H    basis set group =>   2
Atom  17H    basis set group =>   2
Atom  18C    basis set group =>   1
Atom  19H    basis set group =>   2

-------------------------
BASIS SET IN INPUT FORMAT
-------------------------

 # Basis set for element : H 
 NewGTO H 
 S 3 
   1       3.4252509100      0.1543289707
   2       0.6239137300      0.5353281424
   3       0.1688554000      0.4446345420
  end;

 # Basis set for element : C 
 NewGTO C 
 S 3 
   1      71.6168370000      0.1543289700
   2      13.0450960000      0.5353281400
   3       3.5305122000      0.4446345400
 S 3 
   1       2.9412494000     -0.0999672301
   2       0.6834831000      0.3995128303
   3       0.2222899000      0.7001154705
 P 3 
   1       2.9412494000      0.1559162721
   2       0.6834831000      0.6076837282
   3       0.2222899000      0.3919573953
  end;

---------------------------------
AUXILIARY/J BASIS SET INFORMATION
---------------------------------
There are 2 groups of distinct atoms

 Group   1 Type C   : 12s5p4d2f1g contracted to 6s4p3d1f1g pattern {711111/2111/211/2/1}
 Group   2 Type H   : 5s2p1d contracted to 3s1p1d pattern {311/2/1}

Atom   0C    basis set group =>   1
Atom   1C    basis set group =>   1
Atom   2C    basis set group =>   1
Atom   3C    basis set group =>   1
Atom   4C    basis set group =>   1
Atom   5H    basis set group =>   2
Atom   6H    basis set group =>   2
Atom   7H    basis set group =>   2
Atom   8C    basis set group =>   1
Atom   9C    basis set group =>   1
Atom  10H    basis set group =>   2
Atom  11H    basis set group =>   2
Atom  12H    basis set group =>   2
Atom  13C    basis set group =>   1
Atom  14H    basis set group =>   2
Atom  15C    basis set group =>   1
Atom  16H    basis set group =>   2
Atom  17H    basis set group =>   2
Atom  18C    basis set group =>   1
Atom  19H    basis set group =>   2

-------------------------------------
AUXILIARY/J BASIS SET IN INPUT FORMAT
-------------------------------------

 # Auxiliary/J basis set for element : H 
 NewAuxJGTO H 
 S 3 
   1      15.6752927000      0.1007184237
   2       3.6063578000      0.3404257499
   3       1.2080016000      0.6491996172
 S 1 
   1       0.4726794000      1.0000000000
 S 1 
   1       0.2018100000      1.0000000000
 P 2 
   1       2.0281365000      0.5596620919
   2       0.5358730000      0.5596620919
 D 1 
   1       2.2165124000      1.0000000000
  end;

 # Auxiliary/J basis set for element : C 
 NewAuxJGTO C 
 S 7 
   1    1861.0916331000      0.0134602335
   2     642.9939764000      0.0299160374
   3     235.1105725000      0.1008649584
   4      90.7028894000      0.2370970548
   5      36.7794552000      0.3924037254
   6      15.6046273000      0.3195862154
   7       6.8907294000      0.0530104441
 S 1 
   1       3.1478850000     -1.0000000000
 S 1 
   1       1.4777287000      1.0000000000
 S 1 
   1       0.7076466000      1.0000000000
 S 1 
   1       0.3430122000      1.0000000000
 S 1 
   1       0.1669453000      1.0000000000
 P 2 
   1      13.5472892000     -0.6769313712
   2       5.4669419000     -0.3779500978
 P 1 
   1       2.1751721000      1.0000000000
 P 1 
   1       0.8582194000      1.0000000000
 P 1 
   1       0.3376720000      1.0000000000
 D 2 
   1       5.9287253000     -0.3533329857
   2       1.9809209000     -0.7456525731
 D 1 
   1       0.8055417000     -1.0000000000
 D 1 
   1       0.3531244000     -1.0000000000
 F 2 
   1       1.6755626000      0.6311076882
   2       0.5997536000      0.4968166032
 G 1 
   1       1.0024600000     -1.0000000000
  end;

------------------------------------------------------------------------------
                             ORCA STARTUP CALCULATIONS
                           -- RI-GTO INTEGRALS CHOSEN --
------------------------------------------------------------------------------
------------------------------------------------------------------------------
                   ___                                                        
                  /   \      - P O W E R E D   B Y -                         
                 /     \                                                     
                 |  |  |   _    _      __       _____    __    __             
                 |  |  |  | |  | |    /  \     |  _  \  |  |  /  |          
                  \  \/   | |  | |   /    \    | | | |  |  | /  /          
                 / \  \   | |__| |  /  /\  \   | |_| |  |  |/  /          
                |  |  |   |  __  | /  /__\  \  |    /   |      \           
                |  |  |   | |  | | |   __   |  |    \   |  |\   \          
                \     /   | |  | | |  |  |  |  | |\  \  |  | \   \       
                 \___/    |_|  |_| |__|  |__|  |_| \__\ |__|  \__/        
                                                                              
                      - O R C A' S   B I G   F R I E N D -                    
                                      &                                       
                       - I N T E G R A L  F E E D E R -                       
                                                                              
 v1 FN, 2020, v2 2021, v3 2022-2024                                           
------------------------------------------------------------------------------


----------------------
SHARK INTEGRAL PACKAGE
----------------------

Number of atoms                             ...     20
Number of basis functions                   ...     60
Number of shells                            ...     40
Maximum angular momentum                    ...      1
Integral batch strategy                     ... SHARK/LIBINT Hybrid
RI-J (if used) integral strategy            ... SPLIT-RIJ (Revised 2003 algorithm where possible)
Printlevel                                  ...      1
Contraction scheme used                     ... SEGMENTED contraction
Prescreening option                         ... SCHWARTZ
   Thresh                                   ... 1.000e-10
   Tcut                                     ... 1.000e-11
   Tpresel                                  ... 1.000e-11 
Coulomb Range Separation                    ... NOT USED
Exchange Range Separation                   ... NOT USED
Multipole approximations                    ... NOT USED
Finite Nucleus Model                        ... NOT USED
CABS basis                                  ... NOT available
Auxiliary Coulomb fitting basis             ... AVAILABLE
   # of basis functions in Aux-J            ...    600
   # of shells in Aux-J                     ...    200
   Maximum angular momentum in Aux-J        ...      4
Auxiliary J/K fitting basis                 ... NOT available
Auxiliary Correlation fitting basis         ... NOT available
Auxiliary 'external' fitting basis          ... NOT available

Checking pre-screening integrals            ... done (  0.0 sec) Dimension = 40
Check shell pair data                       ... done (  0.0 sec)
Shell pair information
Shell pair cut-off parameter TPreSel        ...   1.0e-11
Total number of shell pairs                 ...       820
Shell pairs after pre-screening             ...       760
Total number of primitive shell pairs       ...      7380
Primitive shell pairs kept                  ...      4874
          la=0 lb=0:    411 shell pairs
          la=1 lb=0:    294 shell pairs
          la=1 lb=1:     55 shell pairs

Calculating one electron integrals          ... done (  0.0 sec)
Calculating RI/J V-Matrix + Cholesky decomp.... done (  0.0 sec)
Calculating Nuclear repulsion               ... done (  0.0 sec) ENN=    465.089018243124 Eh

Diagonalization of the overlap matrix:
Smallest eigenvalue                        ... 9.768e-03
Time for diagonalization                   ...    0.000 sec
Threshold for overlap eigenvalues          ... 1.000e-07
Number of eigenvalues below threshold      ... 0
Time for construction of square roots      ...    0.000 sec
Total time needed                          ...    0.001 sec

-------------------
DFT GRID GENERATION
-------------------

General Integration Accuracy     IntAcc      ... 4.388
Radial Grid Type                 RadialGrid  ... OptM3 with GC (2021)
Angular Grid (max. ang.)         AngularGrid ... 4 (Lebedev-302)
Angular grid pruning method      GridPruning ... 4 (adaptive)
Weight generation scheme         WeightScheme... mBecke (2022)
Basis function cutoff            BFCut       ... 1.0000e-10
Integration weight cutoff        WCut        ... 1.0000e-14
Partially contracted basis set               ... off
Rotationally invariant grid construction     ... off
Angular grids for H and He will be reduced by one unit

Total number of grid points                  ...    91936
Total number of batches                      ...     1446
Average number of points per batch           ...       63
Average number of grid points per atom       ...     4597

--------------------
COSX GRID GENERATION
--------------------

GRIDX 1
-------
General Integration Accuracy     IntAcc      ... 3.816
Radial Grid Type                 RadialGrid  ... OptM3 with GC (2021)
Angular Grid (max. ang.)         AngularGrid ... 1 (Lebedev-50)
Angular grid pruning method      GridPruning ... 4 (adaptive)
Weight generation scheme         WeightScheme... mBecke (2022)
Basis function cutoff            BFCut       ... 1.0000e-10
Integration weight cutoff        WCut        ... 1.0000e-14
Partially contracted basis set               ... on
Rotationally invariant grid construction     ... off
Angular grids for H and He will be reduced by one unit

Total number of grid points                  ...    11774
Total number of batches                      ...      101
Average number of points per batch           ...      116
Average number of grid points per atom       ...      589
UseSFitting                                  ... on

GRIDX 2
-------
General Integration Accuracy     IntAcc      ... 4.020
Radial Grid Type                 RadialGrid  ... OptM3 with GC (2021)
Angular Grid (max. ang.)         AngularGrid ... 2 (Lebedev-110)
Angular grid pruning method      GridPruning ... 4 (adaptive)
Weight generation scheme         WeightScheme... mBecke (2022)
Basis function cutoff            BFCut       ... 1.0000e-10
Integration weight cutoff        WCut        ... 1.0000e-14
Partially contracted basis set               ... on
Rotationally invariant grid construction     ... off
Angular grids for H and He will be reduced by one unit

Total number of grid points                  ...    25354
Total number of batches                      ...      208
Average number of points per batch           ...      121
Average number of grid points per atom       ...     1268
UseSFitting                                  ... on

GRIDX 3
-------
General Integration Accuracy     IntAcc      ... 4.338
Radial Grid Type                 RadialGrid  ... OptM3 with GC (2021)
Angular Grid (max. ang.)         AngularGrid ... 3 (Lebedev-194)
Angular grid pruning method      GridPruning ... 4 (adaptive)
Weight generation scheme         WeightScheme... mBecke (2022)
Basis function cutoff            BFCut       ... 1.0000e-10
Integration weight cutoff        WCut        ... 1.0000e-14
Partially contracted basis set               ... on
Rotationally invariant grid construction     ... off
Angular grids for H and He will be reduced by one unit

Total number of grid points                  ...    55667
Total number of batches                      ...      444
Average number of points per batch           ...      125
Average number of grid points per atom       ...     2783
UseSFitting                                  ... on
Initializing property integral containers    ... done (  0.0 sec)

SHARK setup successfully completed in   1.1 seconds

Maximum memory used throughout the entire STARTUP-calculation: 32.3 MB
-------------------------------------------------------------------------------
                                 ORCA GUESS
                   Start orbitals & Density for SCF / CASSCF
-------------------------------------------------------------------------------

------------
SCF SETTINGS
------------
Hamiltonian:
 Density Functional     Method          .... DFT(GTOs)
 Exchange Functional    Exchange        .... B88
   X-Alpha parameter    XAlpha          ....  0.666667
   Becke's b parameter  XBeta           ....  0.004200
 Correlation Functional Correlation     .... LYP
 LDA part of GGA corr.  LDAOpt          .... VWN-5
 Gradients option       PostSCFGGA      .... off
 Hybrid DFT is turned on
   Fraction HF Exchange ScalHFX         ....  0.200000
   Scaling of DF-GGA-X  ScalDFX         ....  0.720000
   Scaling of DF-GGA-C  ScalDFC         ....  0.810000
   Scaling of DF-LDA-C  ScalLDAC        ....  1.000000
   Perturbative correction              ....  0.000000
   NL short-range parameter             ....  4.800000
 RI-approximation to the Coulomb term is turned on
   Number of AuxJ basis functions       .... 600
   RIJ-COSX (HFX calculated with COS-X)).... on


General Settings:
 Integral files         IntName         .... dvb_scan_unrelaxed
 Hartree-Fock type      HFTyp           .... RHF
 Total Charge           Charge          ....    0
 Multiplicity           Mult            ....    1
 Number of Electrons    NEL             ....   70
 Basis Dimension        Dim             ....   60
 Nuclear Repulsion      ENuc            ....    465.0890182431 Eh

Convergence Acceleration:
 AO-DIIS                CNVDIIS         .... on
   Start iteration      DIISMaxIt       ....    12
   Startup error        DIISStart       ....  0.200000
   # of expansion vecs  DIISMaxEq       ....     5
   Bias factor          DIISBfac        ....   1.050
   Max. coefficient     DIISMaxC        ....  10.000
 MO-DIIS                CNVKDIIS        .... off
 Trust-Rad. Augm. Hess. CNVTRAH         .... auto
   Auto Start mean grad. ratio tolernc. ....  1.125000
   Auto Start start iteration           ....    50
   Auto Start num. interpolation iter.  ....    10
   Max. Number of Micro iterations      ....    24
   Max. Number of Macro iterations      .... Maxiter - #DIIS iter
   Number of Davidson start vectors     ....     2
   Converg. threshold    (grad. norm)   ....   5.000e-05
   Grad. Scal. Fac. for Micro threshold ....   0.100
   Minimum threshold for Micro iter.    ....   1.000e-02
   NR start threshold (gradient norm)   ....   1.000e-04
   Initial trust radius                 ....   0.400
   Minimum AH scaling param. (alpha)    ....   1.000
   Maximum AH scaling param. (alpha)    .... 1000.000
   Quad. conv. algorithm                .... NR
   White noise on init. David. guess    .... on
   Maximum white noise                  ....   0.010
   Pseudo random numbers                .... off
   Inactive MOs                         .... canonical
   Orbital update algorithm             .... Taylor
   Preconditioner                       .... Diag
   Full preconditioner red. dimension   ....   250
 SOSCF                  CNVSOSCF        .... on
   Start iteration      SOSCFMaxIt      ....   150
   Startup grad/error   SOSCFStart      ....  0.003300
   Hessian update       SOSCFHessUp     .... L-BFGS
 Level Shifting         CNVShift        .... on
   Level shift para.    LevelShift      ....    0.2500
   Turn off err/grad.   ShiftErr        ....    0.0010
 Zerner damping         CNVZerner       .... off
 Static damping         CNVDamp         .... on
   Fraction old density DampFac         ....    0.7000
   Max. Damping (<1)    DampMax         ....    0.9800
   Min. Damping (>=0)   DampMin         ....    0.0000
   Turn off err/grad.   DampErr         ....    0.1000

SCF Procedure:
 Maximum # iterations   MaxIter         ....   125
 SCF integral mode      SCFMode         .... Direct
   Integral package                     .... SHARK and LIBINT hybrid scheme
 Reset frequency        DirectResetFreq ....    20
 Integral Threshold     Thresh          ....  1.000e-10 Eh
 Primitive CutOff       TCut            ....  1.000e-11 Eh

Convergence Tolerance:
 Convergence Check Mode ConvCheckMode   .... Total+1el-Energy
 Convergence forced     ConvForced      .... 0
 Energy Change          TolE            ....  1.000e-06 Eh
 1-El. energy change                    ....  1.000e-03 Eh
 Orbital Gradient       TolG            ....  5.000e-05
 Orbital Rotation angle TolX            ....  5.000e-05
 DIIS Error             TolErr          ....  1.000e-06

------------------------------
INITIAL GUESS: MODEL POTENTIAL
------------------------------
Loading Hartree-Fock densities                     ... done
Calculating cut-offs                               ... done
Initializing the effective Hamiltonian             ... done
Setting up the integral package (SHARK)            ... done
Starting the Coulomb interaction                   ... done (   0.0 sec)
Making the grid                                    ... done (   0.1 sec)
Mapping shells                                     ... done
Starting the XC term evaluation                    ... done (   0.1 sec)
  promolecular density results
     # of electrons  =     69.994970959
     EX              =    -54.571037906
     EC              =     -2.316666440
     EX+EC           =    -56.887704345
Transforming the Hamiltonian                       ... done (   0.0 sec)
Diagonalizing the Hamiltonian                      ... done (   0.0 sec)
Back transforming the eigenvectors                 ... done (   0.0 sec)
Now organizing SCF variables                       ... done
                      ------------------
                      INITIAL GUESS DONE (   0.2 sec)
                      ------------------
             **** ENERGY FILE WAS UPDATED (dvb_scan_unrelaxed.en.tmp) ****
Finished Guess after   0.3 sec
Maximum memory used throughout the entire GUESS-calculation: 14.1 MB

-------------------------------------------------------------------------------------------
                                      ORCA LEAN-SCF
                              memory conserving SCF solver
-------------------------------------------------------------------------------------------

----------------------------------------D-I-I-S--------------------------------------------
Iteration    Energy (Eh)           Delta-E    RMSDP     MaxDP     DIISErr   Damp  Time(sec)
-------------------------------------------------------------------------------------------
               ***  Starting incremental Fock matrix formation  ***
    1    -377.9811758886339135     0.00e+00  9.98e-03  2.05e-01  1.71e-01  0.700   1.5
    2    -378.0424280427913004    -6.13e-02  7.17e-03  1.28e-01  9.45e-02  0.700   0.8
                               ***Turning on AO-DIIS***
    3    -378.0710487627813450    -2.86e-02  3.08e-03  4.08e-02  4.54e-02  0.700   0.8
    4    -378.0878716918859368    -1.68e-02  5.56e-03  7.64e-02  2.62e-02  0.000   0.8
    5    -378.1229317794587246    -3.51e-02  9.25e-04  1.18e-02  7.55e-03  0.000   0.8
                              *** Initializing SOSCF ***
---------------------------------------S-O-S-C-F--------------------------------------
Iteration    Energy (Eh)           Delta-E    RMSDP     MaxDP     MaxGrad    Time(sec)
--------------------------------------------------------------------------------------
    6    -378.1232696032123499    -3.38e-04  2.13e-04  2.12e-03  1.01e-03     0.7
               *** Restarting incremental Fock matrix formation ***
    7    -378.1233585448597410    -8.89e-05  1.59e-04  2.14e-03  3.92e-04     1.5
    8    -378.1233586333732433    -8.85e-08  7.48e-05  1.03e-03  3.21e-04     1.1
                 **** Energy Check signals convergence ****

               *****************************************************
               *                     SUCCESS                       *
               *           SCF CONVERGED AFTER   8 CYCLES          *
               *****************************************************

Recomputing exchange energy using gridx3       ... done (    2.513 sec)
Old exchange energy                            :    -11.140313563 Eh
New exchange energy                            :    -11.140336094 Eh
Exchange energy change after final integration :     -0.000022531 Eh
Total energy after final integration           :   -378.123381165 Eh
             **** ENERGY FILE WAS UPDATED (dvb_scan_unrelaxed.en.tmp) ****

----------------
TOTAL SCF ENERGY
----------------

Total Energy       :       -378.12338116462240 Eh          -10289.26030 eV

Components:
Nuclear Repulsion  :        465.08901824312426 Eh           12655.71559 eV
Electronic Energy  :       -843.21237687649750 Eh          -22944.97527 eV
One Electron Energy:      -1427.96032970672445 Eh          -38856.77601 eV
Two Electron Energy:        584.74795283022695 Eh           15911.80074 eV

Virial components:
Potential Energy   :       -756.55788195447235 Eh          -20586.98659 eV
Kinetic Energy     :        378.43450078984995 Eh           10297.72629 eV
Virial Ratio       :          1.99917787721633

DFT components:
N(Alpha)           :       35.000029639867 electrons
N(Beta)            :       35.000029639867 electrons
N(Total)           :       70.000059279733 electrons
E(X)               :      -44.131506200311 Eh       
E(C)               :       -2.740923960872 Eh       
E(XC)              :      -46.872430161183 Eh       

---------------
SCF CONVERGENCE
---------------

  Last Energy change         ...    8.8514e-08  Tolerance :   1.0000e-06
  Last MAX-Density change    ...    1.0278e-03  Tolerance :   1.0000e-05
  Last RMS-Density change    ...    7.4823e-05  Tolerance :   1.0000e-06
  Last DIIS Error            ...    1.0144e-03  Tolerance :   1.0000e-06
  Last Orbital Gradient      ...    3.2099e-04  Tolerance :   5.0000e-05
  Last Orbital Rotation      ...    5.4991e-04  Tolerance :   5.0000e-05


----------------
ORBITAL ENERGIES
----------------

  NO   OCC          E(Eh)            E(eV) 
   0   2.0000     -10.686688      -290.7996 
   1   2.0000     -10.036536      -273.1080 
   2   2.0000     -10.026961      -272.8475 
   3   2.0000     -10.022930      -272.7378 
   4   2.0000     -10.022230      -272.7187 
   5   2.0000     -10.018962      -272.6298 
   6   2.0000     -10.017989      -272.6033 
   7   2.0000     -10.015004      -272.5221 
   8   2.0000     -10.001546      -272.1559 
   9   2.0000      -9.994511      -271.9645 
  10   2.0000      -0.959245       -26.1024 
  11   2.0000      -0.835812       -22.7436 
  12   2.0000      -0.759908       -20.6782 
  13   2.0000      -0.719976       -19.5915 
  14   2.0000      -0.696135       -18.9428 
  15   2.0000      -0.599560       -16.3149 
  16   2.0000      -0.581865       -15.8333 
  17   2.0000      -0.535723       -14.5778 
  18   2.0000      -0.525624       -14.3030 
  19   2.0000      -0.493309       -13.4236 
  20   2.0000      -0.476494       -12.9661 
  21   2.0000      -0.443442       -12.0667 
  22   2.0000      -0.422079       -11.4854 
  23   2.0000      -0.412300       -11.2192 
  24   2.0000      -0.393210       -10.6998 
  25   2.0000      -0.379498       -10.3267 
  26   2.0000      -0.351451        -9.5635 
  27   2.0000      -0.344049        -9.3620 
  28   2.0000      -0.314000        -8.5444 
  29   2.0000      -0.304411        -8.2835 
  30   2.0000      -0.299225        -8.1423 
  31   2.0000      -0.249357        -6.7854 
  32   2.0000      -0.210831        -5.7370 
  33   2.0000      -0.181812        -4.9473 
  34   2.0000      -0.099856        -2.7172 
  35   0.0000       0.020519         0.5584 
  36   0.0000       0.079014         2.1501 
  37   0.0000       0.097012         2.6398 
  38   0.0000       0.179274         4.8783 
  39   0.0000       0.279568         7.6074 
  40   0.0000       0.294655         8.0180 
  41   0.0000       0.323948         8.8151 
  42   0.0000       0.339962         9.2508 
  43   0.0000       0.357832         9.7371 
  44   0.0000       0.383406        10.4330 
  45   0.0000       0.414376        11.2757 
*Only the first 10 virtual orbitals were printed.
------------------
MOLECULAR ORBITALS (RHF, ROHF)
------------------
                      0         1         2         3         4         5   
                 -10.68669 -10.03654 -10.02696 -10.02293 -10.02223 -10.01896
                   2.00000   2.00000   2.00000   2.00000   2.00000   2.00000
                  --------  --------  --------  --------  --------  --------
  0C   1s        -0.000001 -0.989863 -0.003379 -0.000009  0.000726 -0.015671
  0C   2s        -0.000012 -0.045901  0.000059  0.001247 -0.001282  0.009031
  0C   1pz       -0.000000  0.000000 -0.000000  0.000000 -0.000000  0.000000
  0C   1px       -0.000011 -0.000432  0.000114 -0.000295 -0.000552 -0.003338
  0C   1py       -0.000027 -0.001397  0.000245  0.000543 -0.000120  0.005657
  1C   1s        -0.000006  0.017268  0.000321 -0.004246  0.075580  0.034604
  1C   2s         0.000301  0.010506 -0.000929  0.000192  0.013020  0.001413
  1C   1pz       -0.000000 -0.000000  0.000000 -0.000000 -0.000000 -0.000000
  1C   1px        0.000108 -0.006387 -0.000256  0.000330  0.002948  0.000007
  1C   1py        0.000176  0.000201 -0.000445  0.000073  0.005672  0.000117
  2C   1s         0.000050  0.000692  0.056701 -0.056297 -0.984249 -0.007954
  2C   2s         0.000398 -0.000594  0.012817 -0.002938 -0.045087 -0.000541
  2C   1pz        0.000000 -0.000000 -0.000000  0.000000  0.000000  0.000000
  2C   1px        0.000338  0.000193 -0.003486  0.000246  0.001923 -0.000120
  2C   1py        0.001284  0.000157  0.005556 -0.000411  0.000416  0.000224
  3C   1s         0.000082  0.003462 -0.985104  0.079392 -0.062132 -0.005966
  3C   2s         0.000043  0.000304 -0.046796 -0.005397  0.007783  0.000216
  3C   1pz       -0.000000  0.000000 -0.000000 -0.000000 -0.000000 -0.000000
  3C   1px        0.000113 -0.000114  0.000626  0.006465  0.002832 -0.000371
  3C   1py       -0.000149 -0.000235  0.001633 -0.000263 -0.005568 -0.000021
  4C   1s         0.000007  0.001172  0.081509  0.982455 -0.050023 -0.081965
  4C   2s         0.000073 -0.000541  0.013379  0.044327 -0.002198  0.006015
  4C   1pz        0.000000 -0.000000 -0.000000  0.000000 -0.000000  0.000000
  4C   1px        0.000135  0.000095  0.006408  0.000092  0.000272 -0.003065
  4C   1py        0.000177  0.000195 -0.000304 -0.001980  0.000174 -0.005456
  5H   1s        -0.000040 -0.000334  0.000118 -0.000051 -0.000866 -0.000211
  6H   1s         0.001674  0.000097 -0.000748  0.000442  0.009022  0.000156
  7H   1s         0.000092  0.000107 -0.000912 -0.008907  0.000550  0.000570
  8C   1s        -0.000209  0.000037  0.014408 -0.001688  0.001900  0.000489
  8C   2s         0.019298  0.000028  0.008633 -0.000448  0.000271  0.000127
  8C   1pz       -0.000000  0.000000  0.000000  0.000000  0.000000  0.000000
  8C   1px        0.010928 -0.000011 -0.002702  0.000203 -0.000116 -0.000103
  8C   1py       -0.004196 -0.000022 -0.005284  0.000331 -0.000172 -0.000052
  9C   1s        -0.972077  0.000008 -0.000342  0.000038 -0.000369 -0.000010
  9C   2s         0.107498  0.000034 -0.002326  0.000008 -0.001174 -0.000008
  9C   1pz       -0.000000 -0.000000  0.000000 -0.000000 -0.000000 -0.000000
  9C   1px       -0.025488 -0.000007  0.000734  0.000036  0.000373 -0.000004
  9C   1py       -0.023328 -0.000005  0.000715  0.000017  0.000094  0.000002
 10H   1s         0.002312 -0.000012  0.000292 -0.000044 -0.000294 -0.000005
 11H   1s        -0.166599 -0.000036  0.002044 -0.000055  0.001441  0.000028
 12H   1s         0.003048 -0.000001 -0.000006 -0.000012  0.000044  0.000001
 13C   1s         0.000000  0.021267  0.000335 -0.000886  0.001051  0.005567
 13C   2s        -0.000005  0.009029  0.000090 -0.000153  0.000160  0.000051
 13C   1pz        0.000000 -0.000000 -0.000000  0.000000 -0.000000  0.000000
 13C   1px        0.000000  0.003000  0.000029  0.000000  0.000080 -0.000028
 13C   1py       -0.000003  0.005074  0.000046 -0.000101  0.000040  0.000041
 14H   1s         0.000001 -0.000333 -0.000011 -0.000008 -0.000008  0.000029
 15C   1s         0.000000  0.000040 -0.000011  0.000035  0.000031  0.000378
 15C   2s        -0.000002 -0.000515 -0.000004  0.000004 -0.000028  0.000059
 15C   1pz        0.000000  0.000000 -0.000000 -0.000000  0.000000  0.000000
 15C   1px       -0.000000 -0.000121 -0.000001  0.000006  0.000005  0.000020
 15C   1py        0.000002 -0.000288 -0.000008  0.000007  0.000006  0.000059
 16H   1s         0.000007  0.000195 -0.000011  0.000005  0.000067  0.000017
 17H   1s         0.000001  0.000045 -0.000001  0.000002  0.000006  0.000007
 18C   1s        -0.000001  0.015051 -0.001241 -0.080433  0.015015 -0.986439
 18C   2s         0.000063  0.010911 -0.001241 -0.013249  0.001312 -0.044078
 18C   1pz        0.000000 -0.000000  0.000000  0.000000  0.000000 -0.000000
 18C   1px        0.000014  0.003420 -0.000400 -0.003483  0.000438 -0.001665
 18C   1py        0.000035 -0.005565 -0.000543 -0.005331  0.000253  0.000673
 19H   1s        -0.000007 -0.000319  0.000119  0.000900 -0.000079  0.008933
                      6         7         8         9        10        11   
                 -10.01799 -10.01500 -10.00155  -9.99451  -0.95925  -0.83581
                   2.00000   2.00000   2.00000   2.00000   2.00000   2.00000
                  --------  --------  --------  --------  --------  --------
  0C   1s         0.019032  0.023011 -0.000395 -0.000116  0.002455  0.121954
  0C   2s        -0.009038 -0.007161 -0.000239 -0.000005 -0.005715 -0.301629
  0C   1pz        0.000000 -0.000000  0.000000  0.000000 -0.000000 -0.000000
  0C   1px       -0.006241  0.002753  0.000010  0.000012 -0.001286 -0.021766
  0C   1py       -0.000341  0.005205  0.000039  0.000032 -0.001610 -0.044903
  1C   1s         0.986851  0.007823 -0.001808 -0.000514  0.004215  0.103684
  1C   2s         0.043712  0.000451  0.000079  0.000115 -0.009335 -0.256363
  1C   1pz        0.000000 -0.000000 -0.000000  0.000000 -0.000000  0.000000
  1C   1px       -0.000977  0.000070 -0.000061 -0.000019 -0.000839  0.041857
  1C   1py        0.001023 -0.000069 -0.000220  0.000124 -0.003999 -0.047924
  2C   1s         0.076753  0.001682 -0.000196 -0.001066  0.015231  0.097135
  2C   2s        -0.006196 -0.000080  0.000069 -0.000391 -0.035881 -0.239121
  2C   1pz        0.000000  0.000000  0.000000 -0.000000  0.000000 -0.000000
  2C   1px        0.003227  0.000106 -0.000033  0.000038  0.004848  0.061866
  2C   1py        0.005380  0.000063 -0.000048 -0.000017 -0.010511 -0.001811
  3C   1s         0.005605  0.000486 -0.000007 -0.016116  0.034030  0.095097
  3C   2s        -0.000220  0.000003 -0.000000  0.007669 -0.073898 -0.234221
  3C   1pz        0.000000 -0.000000 -0.000000  0.000000 -0.000000 -0.000000
  3C   1px       -0.000128  0.000021  0.000001  0.003962 -0.016967  0.024845
  3C   1py        0.000332  0.000039  0.000000  0.004853 -0.021543  0.056682
  4C   1s         0.010952  0.001454 -0.000039 -0.000667  0.008300  0.093658
  4C   2s        -0.000011 -0.000052  0.000015 -0.000004 -0.019522 -0.232038
  4C   1pz        0.000000  0.000000  0.000000  0.000000 -0.000000  0.000000
  4C   1px       -0.000054 -0.000013 -0.000006  0.000269 -0.009740 -0.027729
  4C   1py        0.000415  0.000102 -0.000011 -0.000172 -0.000123  0.056410
  5H   1s        -0.009033 -0.000272 -0.000329  0.000018 -0.001318 -0.045495
  6H   1s        -0.000524 -0.000027  0.000006  0.000269 -0.000866 -0.041923
  7H   1s        -0.000182 -0.000030  0.000000  0.000361 -0.003811 -0.037068
  8C   1s        -0.000666 -0.000056  0.000010 -0.990959  0.122818  0.003087
  8C   2s        -0.000148 -0.000018  0.000001 -0.040535 -0.185660 -0.025071
  8C   1pz        0.000000 -0.000000  0.000000  0.000000  0.000000  0.000000
  8C   1px        0.000006  0.000006  0.000000 -0.006910 -0.136757  0.034824
  8C   1py        0.000105  0.000011 -0.000000  0.005858  0.042989  0.028821
  9C   1s         0.000036  0.000000 -0.000000 -0.001647  0.279240 -0.038165
  9C   2s         0.000072  0.000001 -0.000000  0.012214  0.000826  0.009331
  9C   1pz       -0.000000  0.000000  0.000000  0.000000  0.000000  0.000000
  9C   1px       -0.000009  0.000000  0.000000 -0.007646  0.232380 -0.030567
  9C   1py        0.000026  0.000000 -0.000000 -0.001612  0.115697 -0.013586
 10H   1s        -0.000017  0.000000 -0.000000 -0.000360 -0.047635  0.007468
 11H   1s        -0.000080 -0.000000  0.000000 -0.000679 -0.678674  0.089041
 12H   1s        -0.000016 -0.000000  0.000000  0.000161 -0.062234  0.010466
 13C   1s        -0.008499  0.990242 -0.014488 -0.000040  0.000442  0.050876
 13C   2s        -0.000199  0.043963  0.009741  0.000010 -0.001110 -0.128984
 13C   1pz        0.000000  0.000000  0.000000 -0.000000 -0.000000  0.000000
 13C   1px        0.000003  0.001001  0.002880  0.000005 -0.000311 -0.025104
 13C   1py       -0.000024 -0.001513 -0.005818  0.000008 -0.000456 -0.027048
 14H   1s        -0.000025 -0.009052 -0.000073  0.000001 -0.000158 -0.024295
 15C   1s        -0.001665 -0.013272 -0.990579 -0.000009  0.000141  0.024464
 15C   2s        -0.000146 -0.010929 -0.043924 -0.000000 -0.000344 -0.061261
 15C   1pz        0.000000 -0.000000  0.000000  0.000000  0.000000 -0.000000
 15C   1px       -0.000185  0.002876  0.000991 -0.000000  0.000016  0.005310
 15C   1py       -0.000093 -0.005863 -0.001589  0.000001 -0.000174 -0.023563
 16H   1s         0.000366  0.000300  0.008965  0.000001 -0.000078 -0.014580
 17H   1s        -0.000048  0.000326  0.009308  0.000000 -0.000039 -0.010142
 18C   1s         0.032830  0.005438 -0.000527 -0.000382  0.002895  0.105760
 18C   2s         0.001590  0.000264  0.000067  0.000052 -0.006937 -0.259714
 18C   1pz       -0.000000 -0.000000 -0.000000 -0.000000  0.000000  0.000000
 18C   1px        0.000045 -0.000138 -0.000004  0.000061 -0.002538 -0.065893
 18C   1py       -0.000036  0.000001 -0.000089  0.000029 -0.001357  0.016186
 19H   1s        -0.000397 -0.000103  0.000023  0.000010 -0.000770 -0.044795
                     12        13        14        15        16        17   
                  -0.75991  -0.71998  -0.69613  -0.59956  -0.58186  -0.53572
                   2.00000   2.00000   2.00000   2.00000   2.00000   2.00000
                  --------  --------  --------  --------  --------  --------
  0C   1s         0.103775 -0.023199 -0.082059 -0.079484  0.051155 -0.015974
  0C   2s        -0.271487  0.059655  0.218098  0.227932 -0.148459  0.042437
  0C   1pz       -0.000000 -0.000000 -0.000000  0.000000  0.000000 -0.000000
  0C   1px        0.031830 -0.108283  0.070185 -0.151189 -0.176369  0.037744
  0C   1py        0.059078  0.095658  0.079849 -0.038835  0.115915  0.149496
  1C   1s         0.019119  0.106894 -0.102029  0.081313  0.069575 -0.000257
  1C   2s        -0.051237 -0.284044  0.273886 -0.229150 -0.201406 -0.000129
  1C   1pz        0.000000  0.000000 -0.000000  0.000000  0.000000 -0.000000
  1C   1px        0.072275 -0.055314 -0.041570 -0.074073  0.143841 -0.053428
  1C   1py        0.059083 -0.043918  0.016501  0.002409  0.130141  0.003354
  2C   1s        -0.079593  0.130294 -0.004791 -0.006989 -0.116741  0.018067
  2C   2s         0.204023 -0.345890  0.011936  0.020141  0.337365 -0.057293
  2C   1pz       -0.000000  0.000000  0.000000  0.000000  0.000000  0.000000
  2C   1px       -0.029319  0.017928 -0.007625  0.021077  0.087521 -0.023491
  2C   1py        0.063578  0.034161 -0.123859  0.172330  0.030297  0.033948
  3C   1s        -0.114064  0.024274  0.108154 -0.078986  0.046491 -0.003716
  3C   2s         0.294709 -0.063728 -0.292229  0.226933 -0.137658  0.011217
  3C   1pz       -0.000000 -0.000000  0.000000  0.000000  0.000000  0.000000
  3C   1px       -0.005832 -0.113993  0.023957  0.143067  0.136923  0.114550
  3C   1py       -0.036986  0.066695 -0.030253  0.032729 -0.161954  0.044980
  4C   1s        -0.067657 -0.113958  0.070487  0.091192  0.049692  0.058715
  4C   2s         0.175414  0.302527 -0.192668 -0.257958 -0.143399 -0.178506
  4C   1pz       -0.000000 -0.000000  0.000000 -0.000000  0.000000  0.000000
  4C   1px        0.064545 -0.060446 -0.072757  0.091980 -0.127357 -0.021905
  4C   1py        0.003891 -0.064261 -0.040567  0.028992 -0.115653 -0.074412
  5H   1s        -0.023018 -0.081106  0.062976 -0.110915 -0.094441 -0.006363
  6H   1s         0.047172 -0.095940  0.001923  0.013998  0.177620 -0.049756
  7H   1s         0.036794  0.075352 -0.054730 -0.097896 -0.069043 -0.094863
  8C   1s        -0.016081 -0.000806  0.030720 -0.046293  0.052948 -0.059273
  8C   2s         0.060844 -0.005757 -0.100814  0.152057 -0.159909  0.164204
  8C   1pz        0.000000  0.000000 -0.000000 -0.000000 -0.000000  0.000000
  8C   1px       -0.046850  0.011875  0.055417 -0.056689  0.041435  0.022284
  8C   1py       -0.051605  0.019711  0.067499 -0.105864  0.042639 -0.077316
  9C   1s         0.041888 -0.018940 -0.040332  0.055675 -0.022772  0.072921
  9C   2s        -0.021445  0.011601  0.036519 -0.117985  0.081381 -0.453416
  9C   1pz        0.000000  0.000000 -0.000000 -0.000000  0.000000  0.000000
  9C   1px        0.030780 -0.018244 -0.020711 -0.007217  0.058588 -0.261441
  9C   1py        0.012475  0.001985 -0.012890 -0.007090 -0.043755 -0.077402
 10H   1s        -0.009835 -0.001423  0.016596 -0.037879  0.070783 -0.174557
 11H   1s        -0.091633  0.040967  0.077680 -0.057046 -0.004662  0.175408
 12H   1s        -0.014362  0.007791  0.018201 -0.053294  0.025490 -0.213394
 13C   1s         0.139188  0.025286  0.096507 -0.060264 -0.008375  0.089655
 13C   2s        -0.361130 -0.065247 -0.256287  0.180091  0.024003 -0.274137
 13C   1pz        0.000000 -0.000000 -0.000000 -0.000000  0.000000 -0.000000
 13C   1px       -0.048353 -0.023149 -0.012010 -0.041995 -0.072781  0.067002
 13C   1py        0.010586  0.045255  0.128779  0.163046 -0.053038 -0.066201
 14H   1s        -0.080456 -0.006740 -0.067633  0.087883  0.049001 -0.142448
 15C   1s         0.104368  0.043820  0.137083  0.093263 -0.035592 -0.076283
 15C   2s        -0.269936 -0.114864 -0.367376 -0.267853  0.105281  0.235811
 15C   1pz       -0.000000  0.000000  0.000000  0.000000  0.000000 -0.000000
 15C   1px        0.027579  0.003513  0.040819 -0.025019 -0.040510  0.067456
 15C   1py       -0.072608 -0.020464 -0.048961  0.053543 -0.032809 -0.128340
 16H   1s        -0.063888 -0.035130 -0.087775 -0.114525  0.005301  0.133463
 17H   1s        -0.059132 -0.028737 -0.105158 -0.112967  0.063018  0.136704
 18C   1s         0.022155 -0.142784 -0.038867  0.010369 -0.100071 -0.051620
 18C   2s        -0.058703  0.376563  0.102204 -0.029895  0.287287  0.153892
 18C   1pz       -0.000000 -0.000000  0.000000 -0.000000  0.000000 -0.000000
 18C   1px        0.007915  0.030781  0.019445 -0.030291 -0.072938  0.012456
 18C   1py        0.084809  0.039658 -0.082156 -0.194829 -0.011947 -0.068646
 19H   1s        -0.019429  0.097431  0.022087  0.006069  0.142805  0.047309
                     18        19        20        21        22        23   
                  -0.52562  -0.49331  -0.47649  -0.44344  -0.42208  -0.41230
                   2.00000   2.00000   2.00000   2.00000   2.00000   2.00000
                  --------  --------  --------  --------  --------  --------
  0C   1s         0.048845  0.021035 -0.025949  0.003211 -0.067731 -0.039002
  0C   2s        -0.139410 -0.067893  0.082830 -0.014956  0.226192  0.132653
  0C   1pz       -0.000000 -0.000000 -0.000000 -0.000000 -0.000000 -0.000000
  0C   1px       -0.055491  0.040133  0.060881 -0.056248 -0.169449  0.265412
  0C   1py       -0.135949  0.059383 -0.064461  0.186679  0.024549  0.052850
  1C   1s        -0.041727  0.007855  0.024588 -0.047230  0.053284 -0.006142
  1C   2s         0.133497 -0.034642 -0.079007  0.155260 -0.179474  0.014236
  1C   1pz        0.000000 -0.000000  0.000000 -0.000000  0.000000  0.000000
  1C   1px        0.175030 -0.029134 -0.110923  0.106155  0.031770 -0.274244
  1C   1py       -0.076219  0.200304 -0.050475  0.044380  0.119193  0.073951
  2C   1s        -0.022635 -0.013903  0.007168  0.038217 -0.045579 -0.008082
  2C   2s         0.076349  0.033390 -0.021299 -0.123206  0.162255  0.032760
  2C   1pz       -0.000000 -0.000000 -0.000000 -0.000000 -0.000000 -0.000000
  2C   1px        0.132692 -0.193893  0.065272 -0.012993  0.236196  0.138782
  2C   1py       -0.136390 -0.054765  0.103285 -0.197804 -0.120477  0.069774
  3C   1s         0.044760  0.025098  0.009234 -0.008948  0.046576  0.038797
  3C   2s        -0.128610 -0.091053 -0.040762  0.033564 -0.156767 -0.122259
  3C   1pz       -0.000000 -0.000000 -0.000000 -0.000000 -0.000000  0.000000
  3C   1px        0.025647 -0.151705 -0.012727 -0.100778 -0.154102  0.251036
  3C   1py        0.111684 -0.206582 -0.080646  0.215384  0.045406  0.123550
  4C   1s        -0.044400 -0.022643 -0.029808  0.014532 -0.049167 -0.003614
  4C   2s         0.141855  0.061417  0.095497 -0.046923  0.168756  0.018916
  4C   1pz       -0.000000 -0.000000 -0.000000 -0.000000  0.000000  0.000000
  4C   1px       -0.152669  0.076180 -0.018113  0.133203  0.052071 -0.284630
  4C   1py        0.094189 -0.110256 -0.012839  0.101337  0.208569  0.066880
  5H   1s         0.135923 -0.148221 -0.036342  0.060925 -0.144101 -0.189853
  6H   1s         0.101028 -0.120243  0.074889 -0.043471  0.257221  0.123526
  7H   1s         0.141258 -0.054320  0.034872 -0.005248  0.190267  0.161964
  8C   1s        -0.034507  0.039296  0.089411 -0.012968  0.008037 -0.044724
  8C   2s         0.084562 -0.166570 -0.309343  0.052369 -0.044143  0.173379
  8C   1pz       -0.000000 -0.000000 -0.000000 -0.000000  0.000000  0.000000
  8C   1px        0.021295  0.138514 -0.024096 -0.122551  0.053868 -0.052039
  8C   1py       -0.030540  0.121989 -0.067398 -0.098935  0.108223 -0.076986
  9C   1s         0.048925 -0.014902 -0.014186  0.001762 -0.003944  0.028799
  9C   2s        -0.359855 -0.235489 -0.134235  0.031456 -0.058534  0.024796
  9C   1pz        0.000000 -0.000000 -0.000000 -0.000000 -0.000000  0.000000
  9C   1px       -0.213185 -0.251975  0.100406  0.143254 -0.127033  0.062616
  9C   1py       -0.095096 -0.044374 -0.549962 -0.223766  0.091894  0.084956
 10H   1s        -0.114812 -0.123563  0.269164  0.157854 -0.076534 -0.007684
 11H   1s         0.165907  0.247274  0.172773 -0.024078  0.060086 -0.115401
 12H   1s        -0.181578 -0.115874 -0.223251 -0.060591 -0.003457  0.045187
 13C   1s        -0.058982 -0.056700  0.001384  0.016877  0.019754  0.001762
 13C   2s         0.179499  0.180179 -0.005406 -0.047836 -0.057463 -0.008502
 13C   1pz       -0.000000  0.000000 -0.000000 -0.000000 -0.000000 -0.000000
 13C   1px       -0.062207 -0.131487  0.101173 -0.270727  0.057426 -0.017522
 13C   1py        0.036149 -0.076849  0.021075 -0.015525  0.177889 -0.150662
 14H   1s         0.111397  0.145409 -0.072780  0.173599 -0.073560 -0.008566
 15C   1s         0.053173  0.021850  0.002561 -0.006270 -0.015922 -0.001519
 15C   2s        -0.165735 -0.074819 -0.009232  0.026073  0.064582 -0.004405
 15C   1pz        0.000000 -0.000000 -0.000000  0.000000 -0.000000 -0.000000
 15C   1px       -0.037978 -0.156325  0.054710 -0.180338  0.111973 -0.258623
 15C   1py        0.093724  0.055765  0.049361 -0.233030 -0.139189 -0.018862
 16H   1s        -0.078556 -0.150984  0.029452 -0.104796  0.097418 -0.227106
 17H   1s        -0.102381 -0.010978 -0.050898  0.225953  0.077044  0.119679
 18C   1s        -0.012081  0.037558  0.022990 -0.001677  0.047238  0.007973
 18C   2s         0.044130 -0.127587 -0.073614  0.002562 -0.163258 -0.029644
 18C   1pz       -0.000000 -0.000000 -0.000000 -0.000000 -0.000000  0.000000
 18C   1px       -0.147149  0.165200  0.080945  0.003245  0.171224  0.096530
 18C   1py        0.124078  0.045467  0.054373 -0.180252 -0.186435  0.123009
 19H   1s         0.105779 -0.148046 -0.088106  0.006080 -0.214256 -0.090688
                     24        25        26        27        28        29   
                  -0.39321  -0.37950  -0.35145  -0.34405  -0.31400  -0.30441
                   2.00000   2.00000   2.00000   2.00000   2.00000   2.00000
                  --------  --------  --------  --------  --------  --------
  0C   1s        -0.016313 -0.008379  0.000000 -0.018055  0.001593 -0.009339
  0C   2s         0.058928  0.028771  0.000000  0.067460  0.006427  0.048727
  0C   1pz       -0.000000  0.000000 -0.326126  0.000000 -0.000000 -0.000000
  0C   1px        0.039538  0.020793  0.000000  0.000406  0.120716 -0.327682
  0C   1py       -0.172822 -0.114394  0.000000 -0.106980 -0.324938 -0.164703
  1C   1s        -0.013581  0.004138  0.000000  0.007182 -0.001929  0.006374
  1C   2s         0.044016 -0.003441 -0.000000 -0.021207 -0.004815 -0.017649
  1C   1pz       -0.000000 -0.000000 -0.284605  0.000000 -0.000000 -0.000000
  1C   1px       -0.126419 -0.042655 -0.000000 -0.023280 -0.095408  0.322222
  1C   1py        0.136119 -0.342018 -0.000000 -0.171552  0.218911  0.046041
  2C   1s        -0.025224  0.013956 -0.000000  0.002295 -0.002341 -0.010003
  2C   2s         0.078085 -0.046380  0.000000 -0.000126  0.015972  0.024194
  2C   1pz       -0.000000 -0.000000 -0.299356  0.000000 -0.000000  0.000000
  2C   1px       -0.267155  0.127261  0.000000  0.139558  0.080699 -0.222936
  2C   1py        0.083444  0.265090  0.000000  0.066259 -0.253400 -0.085804
  3C   1s        -0.008082 -0.012838 -0.000000 -0.023717  0.008032  0.003664
  3C   2s         0.019921  0.038696  0.000000  0.075604 -0.019057 -0.005362
  3C   1pz       -0.000000 -0.000000 -0.341259  0.000000 -0.000000  0.000000
  3C   1px        0.051387  0.060417 -0.000000 -0.227953 -0.152362  0.193241
  3C   1py       -0.175761 -0.163744 -0.000000 -0.085508  0.187533 -0.005660
  4C   1s         0.003112 -0.024449  0.000000 -0.003018 -0.006846 -0.005862
  4C   2s        -0.001721  0.082988 -0.000000  0.007214  0.010772  0.024899
  4C   1pz        0.000000 -0.000000 -0.280832  0.000000 -0.000000 -0.000000
  4C   1px       -0.100777 -0.038316  0.000000  0.253441  0.094139 -0.216013
  4C   1py        0.289188 -0.165262  0.000000  0.044269 -0.292724 -0.103345
  5H   1s        -0.137013  0.229376  0.000000  0.059223 -0.267594  0.077194
  6H   1s        -0.193451  0.078724  0.000000  0.135470  0.108544 -0.242111
  7H   1s         0.239983 -0.065237  0.000000 -0.080900 -0.299517  0.032138
  8C   1s         0.039634  0.027208  0.000000  0.041308 -0.041075 -0.022719
  8C   2s        -0.148621 -0.101567 -0.000000 -0.168613  0.159087  0.097777
  8C   1pz       -0.000000 -0.000000 -0.179216  0.000000 -0.000000  0.000000
  8C   1px        0.055525  0.084208  0.000000  0.072297 -0.079334 -0.038743
  8C   1py        0.048363  0.042473  0.000000  0.110538 -0.029742 -0.093079
  9C   1s        -0.020120 -0.002606 -0.000000 -0.018164  0.012345  0.007110
  9C   2s        -0.001074 -0.021025 -0.000000 -0.025050  0.000407  0.024484
  9C   1pz       -0.000000 -0.000000 -0.185988  0.000000  0.000000  0.000000
  9C   1px       -0.028830 -0.062988 -0.000000 -0.099312  0.033664  0.078366
  9C   1py       -0.043958  0.078183  0.000000  0.023124 -0.012326 -0.036119
 10H   1s        -0.003037 -0.056493  0.000000 -0.031981  0.030472  0.015892
 11H   1s         0.066248  0.022034  0.000000  0.080421 -0.039774 -0.043832
 12H   1s        -0.014623  0.022985  0.000000 -0.011372 -0.012636  0.007712
 13C   1s         0.018649  0.010715  0.000000  0.014451 -0.015146 -0.019585
 13C   2s        -0.053744 -0.020511 -0.000000 -0.064040  0.067035  0.071723
 13C   1pz        0.000000 -0.000000 -0.149476  0.000000  0.000000 -0.000000
 13C   1px       -0.039929 -0.224746  0.000000  0.246258  0.050586  0.267868
 13C   1py        0.190462  0.218001 -0.000000 -0.103611  0.242138  0.174521
 14H   1s         0.028174  0.188672 -0.000000 -0.269213  0.006625 -0.262167
 15C   1s        -0.001226  0.024161 -0.000000 -0.006772  0.009012 -0.000086
 15C   2s         0.016975 -0.068090  0.000000  0.011886 -0.021815  0.001537
 15C   1pz       -0.000000 -0.000000 -0.075567  0.000000 -0.000000 -0.000000
 15C   1px        0.043399 -0.015208 -0.000000 -0.358931  0.070072 -0.171886
 15C   1py       -0.224530 -0.324106  0.000000  0.005186 -0.169593 -0.078956
 16H   1s         0.036060  0.013609 -0.000000 -0.331398  0.013255 -0.190898
 17H   1s         0.151994  0.215829  0.000000  0.189836  0.105245  0.178075
 18C   1s         0.039017  0.012310 -0.000000 -0.004209  0.006456 -0.004520
 18C   2s        -0.121610 -0.045224  0.000000  0.027422 -0.013826  0.007895
 18C   1pz       -0.000000 -0.000000 -0.284589  0.000000 -0.000000 -0.000000
 18C   1px       -0.329486  0.122770 -0.000000 -0.199839 -0.105253  0.185739
 18C   1py       -0.018689  0.138266 -0.000000 -0.099913  0.324444  0.078195
 19H   1s         0.216695 -0.119349  0.000000  0.186528  0.107760 -0.225860
                     30        31        32        33        34        35   
                  -0.29922  -0.24936  -0.21083  -0.18181  -0.09986   0.02052
                   2.00000   2.00000   2.00000   2.00000   2.00000   0.00000
                  --------  --------  --------  --------  --------  --------
  0C   1s         0.000000  0.000000  0.000000 -0.000000 -0.003055 -0.000000
  0C   2s        -0.000000 -0.000000  0.000000  0.000000  0.014686  0.000000
  0C   1pz       -0.310111 -0.219193 -0.030049  0.343571 -0.000000 -0.433578
  0C   1px        0.000000 -0.000000  0.000000 -0.000000  0.019638 -0.000000
  0C   1py        0.000000 -0.000000 -0.000000 -0.000000 -0.001015 -0.000000
  1C   1s        -0.000000  0.000000 -0.000000 -0.000000 -0.011046  0.000000
  1C   2s         0.000000  0.000000 -0.000000  0.000000  0.047440 -0.000000
  1C   1pz       -0.159259  0.037325  0.429294  0.322498 -0.000000  0.220723
  1C   1px       -0.000000  0.000000 -0.000000 -0.000000  0.022835 -0.000000
  1C   1py       -0.000000  0.000000  0.000000  0.000000  0.056017 -0.000000
  2C   1s         0.000000 -0.000000 -0.000000 -0.000000  0.018221 -0.000000
  2C   2s        -0.000000  0.000000  0.000000 -0.000000 -0.077311  0.000000
  2C   1pz        0.038215  0.266960  0.462481 -0.075278  0.000000  0.282248
  2C   1px        0.000000  0.000000 -0.000000 -0.000000  0.095372 -0.000000
  2C   1py        0.000000 -0.000000 -0.000000 -0.000000 -0.123026  0.000000
  3C   1s         0.000000 -0.000000  0.000000 -0.000000 -0.031527 -0.000000
  3C   2s        -0.000000 -0.000000 -0.000000  0.000000  0.133155  0.000000
  3C   1pz        0.200966  0.304577  0.023059 -0.382914  0.000000 -0.382773
  3C   1px       -0.000000 -0.000000  0.000000  0.000000  0.076677 -0.000000
  3C   1py       -0.000000  0.000000 -0.000000  0.000000  0.180417 -0.000000
  4C   1s         0.000000 -0.000000  0.000000 -0.000000 -0.015610  0.000000
  4C   2s        -0.000000 -0.000000  0.000000 -0.000000  0.072651 -0.000000
  4C   1pz        0.005169  0.236366 -0.451152 -0.192784 -0.000000  0.327884
  4C   1px        0.000000  0.000000 -0.000000 -0.000000  0.054182  0.000000
  4C   1py        0.000000 -0.000000 -0.000000 -0.000000  0.013773 -0.000000
  5H   1s        -0.000000 -0.000000  0.000000 -0.000000 -0.057594  0.000000
  6H   1s         0.000000 -0.000000 -0.000000  0.000000 -0.028947  0.000000
  7H   1s        -0.000000 -0.000000 -0.000000  0.000000 -0.041766  0.000000
  8C   1s         0.000000 -0.000000 -0.000000  0.000000  0.141444 -0.000000
  8C   2s        -0.000000  0.000000  0.000000 -0.000000 -0.647759  0.000000
  8C   1pz        0.376941 -0.146557 -0.014578 -0.026848  0.000000 -0.462643
  8C   1px        0.000000  0.000000 -0.000000  0.000000  0.281286  0.000000
  8C   1py        0.000000 -0.000000  0.000000 -0.000000 -0.659059  0.000000
  9C   1s        -0.000000  0.000000 -0.000000 -0.000000 -0.056751  0.000000
  9C   2s        -0.000000 -0.000000 -0.000000 -0.000000 -0.046752  0.000000
  9C   1pz        0.596355 -0.461446 -0.035306  0.263530  0.000000  0.402518
  9C   1px       -0.000000  0.000000  0.000000  0.000000 -0.077562 -0.000000
  9C   1py        0.000000  0.000000  0.000000  0.000000  0.042295 -0.000000
 10H   1s        -0.000000 -0.000000  0.000000 -0.000000 -0.306828 -0.000000
 11H   1s         0.000000  0.000000  0.000000  0.000000  0.225695 -0.000000
 12H   1s        -0.000000  0.000000  0.000000  0.000000  0.262715 -0.000000
 13C   1s         0.000000 -0.000000  0.000000  0.000000 -0.000206  0.000000
 13C   2s        -0.000000 -0.000000 -0.000000 -0.000000  0.001195 -0.000000
 13C   1pz       -0.230057 -0.431978  0.059814 -0.356614 -0.000000 -0.207661
 13C   1px       -0.000000 -0.000000 -0.000000  0.000000 -0.000042  0.000000
 13C   1py       -0.000000 -0.000000  0.000000 -0.000000  0.000943 -0.000000
 14H   1s         0.000000 -0.000000  0.000000  0.000000  0.003134 -0.000000
 15C   1s        -0.000000 -0.000000 -0.000000 -0.000000 -0.001614 -0.000000
 15C   2s         0.000000  0.000000  0.000000  0.000000  0.007294  0.000000
 15C   1pz       -0.145649 -0.359641  0.077817 -0.495465  0.000000  0.408371
 15C   1px        0.000000 -0.000000 -0.000000 -0.000000  0.011024 -0.000000
 15C   1py        0.000000  0.000000 -0.000000 -0.000000 -0.000952  0.000000
 16H   1s         0.000000 -0.000000 -0.000000 -0.000000  0.001243 -0.000000
 17H   1s        -0.000000 -0.000000 -0.000000 -0.000000 -0.004898  0.000000
 18C   1s         0.000000 -0.000000  0.000000 -0.000000  0.001459  0.000000
 18C   2s        -0.000000  0.000000 -0.000000  0.000000 -0.005563 -0.000000
 18C   1pz       -0.183864  0.012341 -0.483419  0.216833 -0.000000  0.197587
 18C   1px       -0.000000 -0.000000 -0.000000 -0.000000 -0.007430  0.000000
 18C   1py       -0.000000  0.000000 -0.000000 -0.000000  0.004268 -0.000000
 19H   1s         0.000000 -0.000000  0.000000 -0.000000  0.008937 -0.000000
                     36        37        38        39        40        41   
                   0.07901   0.09701   0.17927   0.27957   0.29466   0.32395
                   0.00000   0.00000   0.00000   0.00000   0.00000   0.00000
                  --------  --------  --------  --------  --------  --------
  0C   1s         0.000000 -0.000000 -0.000000  0.000000  0.016376 -0.034825
  0C   2s        -0.000000  0.000000 -0.000000 -0.000000 -0.093488  0.212378
  0C   1pz        0.007873  0.083034 -0.529197  0.548273 -0.000000 -0.000000
  0C   1px        0.000000 -0.000000 -0.000000 -0.000000 -0.025393 -0.161364
  0C   1py        0.000000  0.000000  0.000000  0.000000  0.065481 -0.134942
  1C   1s         0.000000 -0.000000 -0.000000 -0.000000 -0.017181 -0.053159
  1C   2s        -0.000000  0.000000  0.000000  0.000000  0.091436  0.318984
  1C   1pz       -0.613894 -0.146263  0.196703 -0.470047  0.000000  0.000000
  1C   1px       -0.000000  0.000000  0.000000  0.000000  0.002839  0.081524
  1C   1py        0.000000 -0.000000 -0.000000  0.000000  0.146313 -0.106352
  2C   1s        -0.000000  0.000000  0.000000  0.000000  0.084753 -0.022848
  2C   2s        -0.000000 -0.000000 -0.000000 -0.000000 -0.504004  0.145238
  2C   1pz        0.601189  0.078348  0.214134  0.482509 -0.000000 -0.000000
  2C   1px        0.000000  0.000000  0.000000 -0.000000 -0.195323  0.170117
  2C   1py        0.000000 -0.000000 -0.000000 -0.000000 -0.067683  0.061628
  3C   1s        -0.000000 -0.000000 -0.000000 -0.000000 -0.011511 -0.080779
  3C   2s         0.000000  0.000000  0.000000  0.000000  0.066876  0.472034
  3C   1pz        0.006806  0.064990 -0.525349 -0.567078  0.000000  0.000000
  3C   1px        0.000000  0.000000 -0.000000  0.000000  0.109128  0.159197
  3C   1py        0.000000  0.000000 -0.000000  0.000000 -0.082837  0.413741
  4C   1s         0.000000  0.000000  0.000000 -0.000000 -0.015124 -0.030976
  4C   2s        -0.000000 -0.000000 -0.000000  0.000000  0.088428  0.192759
  4C   1pz       -0.515176  0.308470  0.183741  0.474672 -0.000000 -0.000000
  4C   1px       -0.000000 -0.000000 -0.000000  0.000000  0.059705 -0.202525
  4C   1py        0.000000  0.000000 -0.000000 -0.000000 -0.061542  0.281719
  5H   1s         0.000000 -0.000000 -0.000000 -0.000000  0.078535 -0.324570
  6H   1s         0.000000 -0.000000  0.000000  0.000000  0.357392 -0.308832
[...]
Prescreening option                         ... SCHWARTZ
   Thresh                                   ... 1.000e-10
   Tcut                                     ... 1.000e-11
   Tpresel                                  ... 1.000e-11 
Coulomb Range Separation                    ... NOT USED
Exchange Range Separation                   ... NOT USED
Multipole approximations                    ... NOT USED
Finite Nucleus Model                        ... NOT USED
CABS basis                                  ... NOT available
Auxiliary Coulomb fitting basis             ... AVAILABLE
   # of basis functions in Aux-J            ...    600
   # of shells in Aux-J                     ...    200
   Maximum angular momentum in Aux-J        ...      4
Auxiliary J/K fitting basis                 ... NOT available
Auxiliary Correlation fitting basis         ... NOT available
Auxiliary 'external' fitting basis          ... NOT available

Checking pre-screening integrals            ... done (  0.0 sec) Dimension = 40
Check shell pair data                       ... done (  0.0 sec)
Shell pair information
Shell pair cut-off parameter TPreSel        ...   1.0e-11
Total number of shell pairs                 ...       820
Shell pairs after pre-screening             ...       760
Total number of primitive shell pairs       ...      7380
Primitive shell pairs kept                  ...      4874
          la=0 lb=0:    411 shell pairs
          la=1 lb=0:    294 shell pairs
          la=1 lb=1:     55 shell pairs

Calculating one electron integrals          ... done (  0.0 sec)
Calculating RI/J V-Matrix + Cholesky decomp.... done (  0.0 sec)
Calculating Nuclear repulsion               ... done (  0.0 sec) ENN=    465.089018243124 Eh

Diagonalization of the overlap matrix:
Smallest eigenvalue                        ... 9.768e-03
Time for diagonalization                   ...    0.000 sec
Threshold for overlap eigenvalues          ... 1.000e-07
Number of eigenvalues below threshold      ... 0
Time for construction of square roots      ...    0.000 sec
Total time needed                          ...    0.001 sec

-------------------
DFT GRID GENERATION
-------------------

General Integration Accuracy     IntAcc      ... 4.388
Radial Grid Type                 RadialGrid  ... OptM3 with GC (2021)
Angular Grid (max. ang.)         AngularGrid ... 4 (Lebedev-302)
Angular grid pruning method      GridPruning ... 4 (adaptive)
Weight generation scheme         WeightScheme... mBecke (2022)
Basis function cutoff            BFCut       ... 1.0000e-10
Integration weight cutoff        WCut        ... 1.0000e-14
Partially contracted basis set               ... off
Rotationally invariant grid construction     ... off
Angular grids for H and He will be reduced by one unit

Total number of grid points                  ...    91936
Total number of batches                      ...     1446
Average number of points per batch           ...       63
Average number of grid points per atom       ...     4597

--------------------
COSX GRID GENERATION
--------------------

GRIDX 1
-------
General Integration Accuracy     IntAcc      ... 3.816
Radial Grid Type                 RadialGrid  ... OptM3 with GC (2021)
Angular Grid (max. ang.)         AngularGrid ... 1 (Lebedev-50)
Angular grid pruning method      GridPruning ... 4 (adaptive)
Weight generation scheme         WeightScheme... mBecke (2022)
Basis function cutoff            BFCut       ... 1.0000e-10
Integration weight cutoff        WCut        ... 1.0000e-14
Partially contracted basis set               ... on
Rotationally invariant grid construction     ... off
Angular grids for H and He will be reduced by one unit

Total number of grid points                  ...    11774
Total number of batches                      ...      101
Average number of points per batch           ...      116
Average number of grid points per atom       ...      589
UseSFitting                                  ... on

GRIDX 2
-------
General Integration Accuracy     IntAcc      ... 4.020
Radial Grid Type                 RadialGrid  ... OptM3 with GC (2021)
Angular Grid (max. ang.)         AngularGrid ... 2 (Lebedev-110)
Angular grid pruning method      GridPruning ... 4 (adaptive)
Weight generation scheme         WeightScheme... mBecke (2022)
Basis function cutoff            BFCut       ... 1.0000e-10
Integration weight cutoff        WCut        ... 1.0000e-14
Partially contracted basis set               ... on
Rotationally invariant grid construction     ... off
Angular grids for H and He will be reduced by one unit

Total number of grid points                  ...    25354
Total number of batches                      ...      208
Average number of points per batch           ...      121
Average number of grid points per atom       ...     1268
UseSFitting                                  ... on

GRIDX 3
-------
General Integration Accuracy     IntAcc      ... 4.338
Radial Grid Type                 RadialGrid  ... OptM3 with GC (2021)
Angular Grid (max. ang.)         AngularGrid ... 3 (Lebedev-194)
Angular grid pruning method      GridPruning ... 4 (adaptive)
Weight generation scheme         WeightScheme... mBecke (2022)
Basis function cutoff            BFCut       ... 1.0000e-10
Integration weight cutoff        WCut        ... 1.0000e-14
Partially contracted basis set               ... on
Rotationally invariant grid construction     ... off
Angular grids for H and He will be reduced by one unit

Total number of grid points                  ...    55667
Total number of batches                      ...      444
Average number of points per batch           ...      125
Average number of grid points per atom       ...     2783
UseSFitting                                  ... on
Initializing property integral containers    ... done (  0.0 sec)

SHARK setup successfully completed in   1.1 seconds

Maximum memory used throughout the entire STARTUP-calculation: 32.4 MB
Occupation numbers will be reassigned to an Aufbau configuration
             **** ENERGY FILE WAS UPDATED (dvb_scan_unrelaxed.en.tmp) ****
Finished Guess after   0.1 sec
Maximum memory used throughout the entire GUESS-calculation: 6.4 MB
----------------------------------------D-I-I-S--------------------------------------------
Iteration    Energy (Eh)           Delta-E    RMSDP     MaxDP     DIISErr   Damp  Time(sec)
-------------------------------------------------------------------------------------------
               ***  Starting incremental Fock matrix formation  ***
    1    -377.7392802601751214     0.00e+00  1.47e-02  2.76e-01  2.25e-01  0.700   1.5
Warning: op=0 Small HOMO/LUMO gap (   0.092) - skipping pre-diagonalization
         Will do a full diagonalization
    2    -377.8472569977748776    -1.08e-01  1.24e-02  2.16e-01  1.74e-01  0.700   0.8
                               ***Turning on AO-DIIS***
    3    -377.9266201506824814    -7.94e-02  8.75e-03  1.74e-01  1.28e-01  0.700   0.8
    4    -377.9824186546763372    -5.58e-02  6.56e-03  1.32e-01  9.27e-02  0.700   0.8
    5    -378.0227371153526406    -4.03e-02  1.63e-02  3.24e-01  6.62e-02  0.000   0.8
    6    -378.1216916057446156    -9.90e-02  1.45e-03  1.96e-02  6.82e-03  0.000   0.8
    7    -378.1224625741393197    -7.71e-04  1.01e-03  1.40e-02  4.94e-03  0.000   0.8
    8    -378.1228389564576560    -3.76e-04  8.44e-04  1.16e-02  3.56e-03  0.000   0.7
                              *** Initializing SOSCF ***
---------------------------------------S-O-S-C-F--------------------------------------
Iteration    Energy (Eh)           Delta-E    RMSDP     MaxDP     MaxGrad    Time(sec)
--------------------------------------------------------------------------------------
    9    -378.1230734137129161    -2.34e-04  6.07e-04  7.88e-03  2.37e-03     0.7
               *** Restarting incremental Fock matrix formation ***
   10    -378.1232411295422366    -1.68e-04  1.12e-03  1.30e-02  2.31e-03     1.6
   11    -378.1233499149427075    -1.09e-04  4.58e-04  5.43e-03  4.97e-04     1.2
   12    -378.1233567729923948    -6.86e-06  1.40e-04  2.35e-03  5.91e-04     1.2
   13    -378.1233592007562834    -2.43e-06  1.13e-04  1.36e-03  2.78e-04     1.1
   14    -378.1233608745043853    -1.67e-06  3.02e-05  3.86e-04  5.31e-05     1.1
   15    -378.1233609046220749    -3.01e-08  1.63e-05  2.21e-04  7.22e-05     0.9
                 **** Energy Check signals convergence ****

               *****************************************************
               *                     SUCCESS                       *
               *           SCF CONVERGED AFTER  15 CYCLES          *
               *****************************************************

Recomputing exchange energy using gridx3       ... done (    2.510 sec)
Old exchange energy                            :    -11.140302341 Eh
New exchange energy                            :    -11.140324866 Eh
Exchange energy change after final integration :     -0.000022526 Eh
Total energy after final integration           :   -378.123383430 Eh
             **** ENERGY FILE WAS UPDATED (dvb_scan_unrelaxed.en.tmp) ****

----------------
TOTAL SCF ENERGY
----------------

Total Energy       :       -378.12338343022810 Eh          -10289.26036 eV

Components:
Nuclear Repulsion  :        465.08901824312426 Eh           12655.71559 eV
Electronic Energy  :       -843.21237914774633 Eh          -22944.97534 eV
One Electron Energy:      -1427.95559221748340 Eh          -38856.64710 eV
Two Electron Energy:        584.74321306973707 Eh           15911.67176 eV

Virial components:
Potential Energy   :       -756.55705661215859 Eh          -20586.96413 eV
Kinetic Energy     :        378.43367318193049 Eh           10297.70377 eV
Virial Ratio       :          1.99918006833511

DFT components:
N(Alpha)           :       35.000029641145 electrons
N(Beta)            :       35.000029641145 electrons
N(Total)           :       70.000059282290 electrons
E(X)               :      -44.131436434105 Eh       
E(C)               :       -2.740914689530 Eh       
E(XC)              :      -46.872351123635 Eh       

---------------
SCF CONVERGENCE
---------------

  Last Energy change         ...    3.0118e-08  Tolerance :   1.0000e-06
  Last MAX-Density change    ...    2.2133e-04  Tolerance :   1.0000e-05
  Last RMS-Density change    ...    1.6313e-05  Tolerance :   1.0000e-06
  Last DIIS Error            ...    2.3727e-03  Tolerance :   1.0000e-06
  Last Orbital Gradient      ...    7.2226e-05  Tolerance :   5.0000e-05
  Last Orbital Rotation      ...    1.1038e-04  Tolerance :   5.0000e-05


Total SCF time: 0 days 0 hours 0 min 17 sec 
Finished LeanSCF after  17.3 sec

Maximum memory used throughout the entire LEANSCF-calculation: 13.8 MB

-------------------------   --------------------
FINAL SINGLE POINT ENERGY      -378.123383430228
-------------------------   --------------------

Storing actual gbw-file in dvb_scan_unrelaxed.012.gbw ... done

------------------------------------------------------------------------------
                              ORCA PROPERTY CALCULATIONS
------------------------------------------------------------------------------

GBWName                                 ... dvb_scan_unrelaxed.gbw
Number of atoms                         ...     20
Number of basis functions               ...     60
Max core memory                         ...   1024 MB

Electric properties:
Dipole moment                           ... YES
Quadrupole moment                       ...  NO
Static polarizability (Dipole/Dipole)   ...  NO
Static polarizability (Dipole/Quad.)    ...  NO
Static polarizability (Quad./Quad.)     ...  NO
Static polarizability (Velocity)        ...  NO

Atomic electric properties:
Dipole moment                           ...  NO
Quadrupole moment                       ...  NO
Static polarizability                   ...  NO

Choice of electric origin               ... Center of mass
Position of electric origin             ...     1.747488     2.009123     0.000000

General magnetic properties:
Magnetizability                         ...  NO

EPR properties:
g-Tensor (aka g-matrix)                 ...  NO
Zero-Field splitting spin-orbit         ...  NO
Zero-field splitting spin-spin          ...  NO
Hyperfine couplings                     ...  NO (   0 nuclei)
Quadrupole couplings                    ...  NO (   0 nuclei)
Contact density                         ...  NO (   0 nuclei)

NMR properties:
Chemical shifts                         ...  NO (   0 nuclei)
Spin-rotation constants                 ...  NO (   0 nuclei)
Spin-spin couplings                     ...  NO (   0 nuclei,    0 pairs)

Choice of magnetic origin               ... GIAO
Position of magnetic origin             ...     0.000000     0.000000     0.000000

Properties with geometric perturbations:
SCF Hessian                             ...  NO
IR spectrum                             ...  NO
VCD spectrum                            ...  NO
X-ray spectroscopy properties:
SCF XES/XAS/RIXS spectra                ...  NO


-------------
DIPOLE MOMENT
-------------

Method             : SCF
Type of density    : Electron Density
Multiplicity       :   1
Irrep              :   0
Energy             :  -378.1233834302281025 Eh
Relativity type    : 
Basis              : AO
                                X                 Y                 Z
Electronic contribution:     -3.151970427       0.802821521       0.000120891
Nuclear contribution   :      3.121314416      -1.794137557       0.000000000
                        -----------------------------------------
Total Dipole Moment    :     -0.030656012      -0.991316035       0.000120891
                        -----------------------------------------
Magnitude (a.u.)       :      0.991789941
Magnitude (Debye)      :      2.520929689



--------------------
Rotational spectrum 
--------------------
 
Rotational constants in cm-1:             0.138319             0.025058             0.021215 
Rotational constants in MHz :          4146.692775           751.230231           636.008563 

Dipole components along the rotational axes: 
x,y,z [a.u.] :    -0.865603     0.484126     0.000121 
x,y,z [Debye]:    -2.200189     1.230551     0.000307 

 

Dipole moment calculation done in   0.0 sec 

Maximum memory used throughout the entire PROP-calculation: 6.6 MB
                              **** TRAJECTORY DONE ***

                         SUMMARY OF THE CALCULATED SURFACE

------------------
TRAJECTORY RESULTS
------------------

Column   1: D7

The Calculated Surface using the 'Actual Energy'
   0.00000000 -378.12338116
  32.72727273 -381.41468565
  65.45454545 -381.84074054
  98.18181818 -381.93271403
 130.90909091 -382.00590686
 163.63636364 -382.03776536
 196.36363636 -382.03776542
 229.09090909 -382.00590647
 261.81818182 -381.93271429
 294.54545455 -381.84072939
 327.27272727 -381.41468547
 360.00000000 -378.12338343

The Calculated Surface using the SCF energy
   0.00000000 -378.12338116
  32.72727273 -381.41468565
  65.45454545 -381.84074054
  98.18181818 -381.93271403
 130.90909091 -382.00590686
 163.63636364 -382.03776536
 196.36363636 -382.03776542
 229.09090909 -382.00590647
 261.81818182 -381.93271429
 294.54545455 -381.84072939
 327.27272727 -381.41468547
 360.00000000 -378.12338343


--------------------------------
SUGGESTED CITATIONS FOR THIS RUN
--------------------------------

Below you find a list of papers that are relevant to this ORCA run
We neither can nor want to force you to cite these papers, but we appreciate if you do
You receive ORCA, which is the product of decades of hard work by many enthusiastic individuals, for free
The only thing we kindly ask in return is that you cite our papers,
We deeply appreciate it, if you show your appreciation for ORCA by not just citing the generic ORCA reference.

Please note that relegating all ORCA citations to the supporting information does *not* help us.
SI sections are not indexed - citations you put there will not count into any citation statistics
But we need these citations in order to attract the funding resources that allow us to do what we are doing

Therefore, if you are a happy ORCA user, please consider citing a few of the papers listed below in the main body of your paper

In addition to the list printed below, the program has created the file dvb_scan_unrelaxed.bibtex that contains the list in bibtex format
You can import this file easily into all common literature databanks and citation aid programs


List of essential papers. We consider these as the minimum necessary citations

  1. Neese,F.
     Software update: the ORCA program system, version 5.0
     WIRES Comput. Molec. Sci., 2022 12(1)e1606
     doi.org/10.1002/wcms.1606

List of papers to cite with high priority. The work reported in these papers was absolutely
necessary for this run to complete.
Our perspective: the developers of density functionals and basis sets usually get cited in chemistry papers
Good! But without the algorithms to do something with them, the functionals or basis sets would not do anything.
Hence, in our opinion, the algorithm design and method developments papers are equally worthy of getting cited

  1. Neese,F.
     An improvement of the resolution of the identity approximation for the formation of the Coulomb matrix
     J. Comp. Chem., 2003 24(14)1740-1747
     doi.org/10.1002/jcc.10318
  2. Neese,F.; Wennmohs,F.; Hansen,A.; Becker,U.
     Efficient, approximate and parallel Hartree-Fock and hybrid DFT calculations. A 'chain-of-spheres' algorithm for the Hartree-Fock exchange
     Chem. Phys., 2009 356(1-3)98-109
     doi.org/10.1016/j.chemphys.2008.10.036
  3. Helmich-Paris,B.; de Souza,B.; Neese,F.; Izsák,R.
     An improved chain of spheres for exchange algorithm
     J. Chem. Phys., 2021 155 104109
     doi.org/doi: 10.1063/5.0058766.
  4. Neese,F.
     The SHARK Integral Generation and Digestion System
     J. Comp. Chem., 2022  1-16
     doi.org/10.1002/jcc.26942

List of suggested additional citations. These are papers that are important in the 'surrounding' of 
of this run, or papers that preceded the highly important papers. If you like your results we are grateful for a citation.

  1. Izsak,R.; Neese,F.
     An overlap fitted chain of spheres exchange method
     J. Chem. Phys., 2011 135 144105
     doi.org/10.1063/1.3646921
  2. Izsak,R.; Hansen,A.; Neese,F.
     The resolution of identity and chain of spheres approximations for the LPNO-CCSD singles Fock term
     Molec. Phys., 2012 110 2413-2417
     doi.org/10.1080/00268976.2012.687466
  3. Neese,F.
     The ORCA program system
     WIRES Comput. Molec. Sci., 2012 2(1)73-78
     doi.org/10.1002/wcms.81
  4. Izsak,R.; Neese,F.; Klopper,W.
     Robust fitting techniques in the chain of spheres approximation to the Fock exchange: The role of the complementary space
     J. Chem. Phys., 2013 139 
     doi.org/10.1063/1.4819264
  5. Neese,F.
     Software update: the ORCA program system, version 4.0
     WIRES Comput. Molec. Sci., 2018 8(1)1-6
     doi.org/10.1002/wcms.1327
  6. Neese,F.; Wennmohs,F.; Becker,U.; Riplinger,C.
     The ORCA quantum chemistry program package
     J. Chem. Phys., 2020 152 Art. No. L224108
     doi.org/10.1063/5.0004608

List of optional additional citations

  1. Neese,F.
     Approximate second-order SCF convergence for spin unrestricted wavefunctions
     Chem. Phys. Lett., 2000 325(1-3)93-98
     doi.org/10.1016/s0009-2614(00)00662-x

Timings for individual modules:

Sum of individual times          ...      180.321 sec (=   3.005 min)
Startup calculation              ...       13.762 sec (=   0.229 min)   7.6 %
SCF iterations                   ...      166.005 sec (=   2.767 min)  92.1 %
Property calculations            ...        0.554 sec (=   0.009 min)   0.3 %
                             ****ORCA TERMINATED NORMALLY****
TOTAL RUN TIME: 0 days 0 hours 3 minutes 0 seconds 796 msec
