
                                 *****************
                                 * O   R   C   A *
                                 *****************

                                            #,                                       
                                            ###                                      
                                            ####                                     
                                            #####                                    
                                            ######                                   
                                           ########,                                 
                                     ,,################,,,,,                         
                               ,,#################################,,                 
                          ,,##########################################,,             
                       ,#########################################, ''#####,          
                    ,#############################################,,   '####,        
                  ,##################################################,,,,####,       
                ,###########''''           ''''###############################       
              ,#####''   ,,,,##########,,,,          '''####'''          '####       
            ,##' ,,,,###########################,,,                        '##       
           ' ,,###''''                  '''############,,,                           
         ,,##''                                '''############,,,,        ,,,,,,###''
      ,#''                                            '''#######################'''  
     '                                                          ''''####''''         
             ,#######,   #######,   ,#######,      ##                                
            ,#'     '#,  ##    ##  ,#'     '#,    #''#        ,####,   ,####,        
            ##       ##  ##   ,#'  ##            #'  '#       #'       #'  '#        
            ##       ##  #######   ##           ,######,      #####,   #    #        
            '#,     ,#'  ##    ##  '#,     ,#' ,#      #,     #,   #   #,  ,#        
             '#######'   ##     ##  '#######'  #'      '#     '####' # '####'        



                #########################################################
                #                        -***-                          #
                #          Department of theory and spectroscopy        #
                #                                                       #
                #                      Frank Neese                      #
                #                                                       #
                #     Directorship, Architecture, Infrastructure        #
                #                    SHARK, DRIVERS                     #
                #        Core code/Algorithms in most modules           #
                #                                                       #
                #        Max Planck Institute fuer Kohlenforschung      #
                #                Kaiser Wilhelm Platz 1                 #
                #                 D-45470 Muelheim/Ruhr                 #
                #                      Germany                          #
                #                                                       #
                #                  All rights reserved                  #
                #                        -***-                          #
                #########################################################


                         Program Version 6.0.1  -  RELEASE   -


 With contributions from (in alphabetic order):
[Max-Planck-Institut fuer Kohlenforschung]                               
  Daniel Aravena         : Magnetic Suceptibility                        
  Michael Atanasov       : Ab Initio Ligand Field Theory (pilot matlab implementation)
  Alexander A. Auer      : GIAO ZORA, VPT2 properties, NMR spectrum      
  Ute Becker             : All parallelization in ORCA, NUMFREQ, NUMCALC 
  Giovanni Bistoni       : ED, misc. LED, open-shell LED, HFLD           
  Martin Brehm           : Molecular dynamics                            
  Dmytro Bykov           : pre 5.0 version of the SCF Hessian            
  Marcos Casanova-Páez   : Triplet and SCS-CIS(D). UHF-(DLPNO)-IP/EA/STEOM-CCSD. UHF-CVS-IP/STEOM-CCSD   
  Vijay G. Chilkuri      : MRCI spin determinant printing, contributions to CSF-ICE 
  Pauline Colinet        : FMM embedding                                 
  Dipayan Datta          : RHF DLPNO-CCSD density                        
  Achintya Kumar Dutta   : EOM-CC, STEOM-CC                              
  Nicolas Foglia         : Exact transition moments, OPA infrastructure, MCD improvements    
  Dmitry Ganyushin       : Spin-Orbit,Spin-Spin,Magnetic field MRCI      
  Miquel Garcia-Rates    : C-PCM and meta-GGA Hessian, CCSD/C-PCM, Gaussian charge scheme 
  Tiago L. C. Gouveia    : GS-ROHF, GS-ROCIS                             
  Yang Guo               : DLPNO-NEVPT2, F12-NEVPT2, CIM, IAO-localization        
  Andreas Hansen         : Spin unrestricted coupled pair/coupled cluster methods 
  Ingolf Harden          : AUTO-CI MPn and infrastructure                
  Benjamin Helmich-Paris : MC-RPA, TRAH-(SCF,CASSCF), AVAS, COSX integrals, SCF dyn. polar. 
  Lee Huntington         : MR-EOM, pCC                                   
  Robert Izsak           : Overlap fitted RIJCOSX, COSX-SCS-MP3, EOM     
  Riya Kayal             : Wick's Theorem for AUTO-CI, AUTO-CI UHF-CCSDT 
  Emily Kempfer          : AUTO-CI, RHF CISDT and CCSDT                  
  Christian Kollmar      : KDIIS, OOCD, Brueckner-CCSD(T), CCSD density, CASPT2, CASPT2-K, improved NEVPT2 
  Axel Koslowski         : Symmetry handling                             
  Simone Kossmann        : meta-GGA functionals, TD-DFT gradient, OOMP2, (MP2 Hessian; deprecated post 5.0) 
  Lucas Lang             : DCDCAS                                        
  Marvin Lechner         : AUTO-CI (C++ implementation), FIC-MRCC        
  Spencer Leger          : CASSCF response                               
  Dagmar Lenk            : GEPOL surface, SMD, ORCA-2-JSON               
  Dimitrios Liakos       : Extrapolation schemes; Compound Job, initial MDCI parallelization 
  Dimitrios Manganas     : Further ROCIS development; embedding schemes. LFT, Crystal Embedding 
  Dimitrios Pantazis     : SARC Basis sets                               
  Anastasios Papadopoulos: AUTO-CI, single reference methods and gradients 
  Taras Petrenko         : pre 6.0 DFT Hessian and TD-DFT gradient, (ASA, deprecated), ECA, 1-Electron XAS/XES, NRVS 
  Peter Pinski           : DLPNO-MP2, DLPNO-MP2 Gradient                 
  Christoph Reimann      : Effective Core Potentials                     
  Marius Retegan         : Local ZFS, SOC                                
  Christoph Riplinger    : Optimizer, TS searches, QM/MM, DLPNO-CCSD(T), (RO)-DLPNO pert. Triples 
  Michael Roemelt        : Original ROCIS implementation                 
  Masaaki Saitow         : Open-shell DLPNO-CCSD energy and density      
  Barbara Sandhoefer     : DKH picture change effects                    
  Kantharuban Sivalingam : CASSCF convergence/infrastructure, NEVPT2 and variants, FIC-MRCI 
  Bernardo de Souza      : ESD, SOC TD-DFT                               
  Georgi L. Stoychev     : AutoAux, RI-MP2 NMR, DLPNO-MP2 response, X2C  
  Van Anh Tran           : RI-MP2 g-tensors                              
  Willem Van den Heuvel  : Paramagnetic NMR                              
  Zikuan Wang            : NOTCH, Electric field optimization            
  Frank Wennmohs         : Technical directorship and infrastructure     
  Hang Xu                : AUTO-CI-Response properties                   
                                                                         
[FACCTs GmbH]                                                            
  Markus Bursch, Miquel Garcia-Rates, Christoph Riplinger, Bernardo de Souza, Georgi L. Stoychev 
                                                                 
  APM, Basis sets (HGBS, AHGBS, def-TZVP (Ac-Lr), def2-XVPD (La-Lu)), CI-OPT, improved COSX, DLPNO-Multilevel,           
  DOCKER, DRACO, updates on ESD, GOAT, IRC, LR-CPCM, MBIS, meta-GGA TD-DFT gradient, ML-optimized integration grids, 
  MM, NACMEs, nearIR, NEB, NEB-TS, NL-DFT gradient (VV10), 2- and 3-layer-ONIOM, interface openCOSMO-RS, QMMM,   
  Crystal-QMMM, SF, symmetry and pop. for TD-DFT, r2SCAN hybrids, SOLVATOR                                   
                                                                         
[Other institutions]                                                     
  V. Asgeirsson          : NEB                                           
  Christoph Bannwarth    : sTDA-DFT, sTD-DFT, PBEh-3c, B97-3c, D3        
  Sebastian Ehlert       : rSCAN, r2SCAN, r2SCAN-3c, D4, dhf basis sets  
  Marvin Friede          : D4 for Fr, Ra, Ac-Lr                          
  Lars Goerigk           : TD-DFT with DH, B97 family of functionals     
  Stefan Grimme          : VdW corrections, initial TS optimization, DFT functionals, gCP, sTDA/sTD-DF 
  Waldemar Hujo          : DFT-NL                                        
  H. Jonsson             : NEB                                           
  Holger Kruse           : gCP                                           
  Marcel Mueller         : wB97X-3c, vDZP basis set                      
  Hagen Neugebauer       : wr2SCAN                                       
  Tobias Risthaus        : range-separated hybrid DFT                    
  Lukas Wittmann         : regularized MP2, r2SCAN double-hybrids, wr2SCAN        
                                                                         
We gratefully acknowledge several colleagues who have allowed us to      
interface, adapt or use parts of their codes:                            
  Ed Valeev, F. Pavosevic, A. Kumar             : LibInt (2-el integral package), F12 methods 
  Garnet Chan, S. Sharma, J. Yang, R. Olivares  : DMRG                   
  Ulf Ekstrom                                   : XCFun DFT Library      
  Mihaly Kallay                                 : mrcc  (arbitrary order and MRCC methods)
  Frank Weinhold                                : gennbo (NPA and NBO analysis)           
  Simon Mueller                                 : openCOSMO-RS                            
  Christopher J. Cramer and Donald G. Truhlar   : smd solvation model                     
  S Lehtola, MJT Oliveira, MAL Marques          : LibXC Library                           
  Liviu Ungur et al                             : ANISO software                          


 Your calculation uses the libint2 library for the computation of 2-el integrals
 For citations please refer to: http://libint.valeyev.net

 Your ORCA version has been built with support for libXC version: 6.2.2
 For citations please refer to: https://libxc.gitlab.io

 This ORCA versions uses:
   CBLAS   interface :  Fast vector & matrix operations
   LAPACKE interface :  Fast linear algebra routines
   SCALAPACK package :  Parallel linear algebra routines
   Shared memory     :  Shared parallel matrices
   BLAS/LAPACK       :  OpenBLAS 0.3.27  USE64BITINT DYNAMIC_ARCH NO_AFFINITY Cooperlake SINGLE_THREADED
        Core in use  :  Cooperlake
   Copyright (c) 2011-2014, The OpenBLAS Project


NOTE: MaxCore=700 MB was set to SCF,MP2,MDCI,CIPSI,MRCI and CIS
      => If you want to overwrite this, your respective input block should be placed after the MaxCore statement
Warning: RI is on but no J-basis has been assigned. Assigning Def2/J (nothing to worry about!)
================================================================================

----- Orbital basis set information -----
Your calculation utilizes the basis: STO-3G
   H-Ne       : W. J. Hehre, R. F. Stewart and J. A. Pople, J. Chem. Phys. 2657 (1969).
   Na-Ar      : W. J. Hehre, R. Ditchfield, R. F. Stewart and J. A. Pople, J. Chem. Phys. 2769 (1970).
   K,Ca,Ga-Kr : W. J. Pietro, B. A. Levy, W. J. Hehre and R. F. Stewart, J. Am. Chem. Soc. 19, 2225 (1980).
   Sc-Zn,Y-Cd : W. J. Pietro and W. J. Hehre, J. Comp. Chem. 4, 241 (1983).

----- AuxJ basis set information -----
Your calculation utilizes the auxiliary basis: def2/J
   F. Weigend, Phys. Chem. Chem. Phys. 8, 1057 (2006).

================================================================================
                                        WARNINGS
                       Please study these warnings very carefully!
================================================================================


================================================================================
                                       INPUT FILE
================================================================================
NAME = dvb_coupling_nmr.inp
|  1> !  b3lyp sto-3g usesym sp
|  2> 
|  3> * xyz 0 1
|  4> C            -1.41525000     0.23022000     0.00000000
|  5> C             1.41525000    -0.23022000     0.00000000
|  6> C            -0.49513000     1.31446000     0.00000000
|  7> C             0.49513000    -1.31446000     0.00000000
|  8> C             0.88941000     1.09095000     0.00000000
|  9> C            -0.88941000    -1.09095000     0.00000000
| 10> H            -0.87955000     2.34373000     0.00000000
| 11> H             0.87955000    -2.34373000     0.00000000
| 12> H             1.57790000     1.94501000     0.00000000
| 13> H            -1.57790000    -1.94501000     0.00000000
| 14> C             2.88458000    -0.52109000     0.00000000
| 15> C            -2.88458000     0.52109000     0.00000000
| 16> H             3.14034000    -1.59196000     0.00000000
| 17> H            -3.14034000     1.59196000     0.00000000
| 18> C             3.88004000     0.38225000     0.00000000
| 19> C            -3.88004000    -0.38225000     0.00000000
| 20> H             3.69468000     1.46244000     0.00000000
| 21> H            -3.69468000    -1.46244000     0.00000000
| 22> H             4.93164000     0.07111000     0.00000000
| 23> H            -4.93164000    -0.07111000     0.00000000
| 24> *
| 25> %pal
| 26>  nprocs 4
| 27> end
| 28> %MaxCore 700
| 29> %eprnmr
| 30>   nuclei = all C { shift, ssall};
| 31>   nuclei = all H { shift, ssall};
| 32> end
| 33> 
| 34>                          ****END OF INPUT****
================================================================================
-----------------------
SYMMETRY HANDLING SETUP
-----------------------
Auto-detected point group .... C2h
Reduced point group       .... C2h
Root mean square distance .... 0.000000000000000 au
Maximum distance          .... 0.000000000000000 au
Threshold in use          .... 0.000100000000000 au
Time for symmetry setup   .... 0.001 s


Symmetry-perfected Cartesians for point group C2h:

Index  Symbol         Symmetry-perfected Cartesians (x, y, z; au)
   0     C      -2.67443491103205    0.43505275055135    0.00000000000000
   1     C       2.67443491103205   -0.43505275055135    0.00000000000000
   2     C      -0.93566010068843    2.48396941399413    0.00000000000000
   3     C       0.93566010068843   -2.48396941399413    0.00000000000000
   4     C       1.68074132077090    2.06159672580139    0.00000000000000
   5     C      -1.68074132077090   -2.06159672580139    0.00000000000000
   6     H      -1.66210862109044    4.42900783185526    0.00000000000000
   7     H       1.66210862109044   -4.42900783185526    0.00000000000000
   8     H       2.98179886671434    3.67553622773817    0.00000000000000
   9     H      -2.98179886671434   -3.67553622773817    0.00000000000000
  10     C       5.45106621138656   -0.98471739112503    0.00000000000000
  11     C      -5.45106621138656    0.98471739112503    0.00000000000000
  12     H       5.93438256739826   -3.00836841615728    0.00000000000000
  13     H      -5.93438256739826    3.00836841615728    0.00000000000000
  14     C       7.33221298865981    0.72234781469140    0.00000000000000
  15     C      -7.33221298865981   -0.72234781469140    0.00000000000000
  16     H       6.98193335247617    2.76361108729180    0.00000000000000
  17     H      -6.98193335247617   -2.76361108729180    0.00000000000000
  18     H       9.31944899109140    0.13437842538314    0.00000000000000
  19     H      -9.31944899109140   -0.13437842538314    0.00000000000000

Index  Symbol         Symmetry-perfected Cartesians (x, y, z; Ang)
   0     C      -1.41525000000000    0.23022000000000    0.00000000000000
   1     C       1.41525000000000   -0.23022000000000    0.00000000000000
   2     C      -0.49513000000000    1.31446000000000    0.00000000000000
   3     C       0.49513000000000   -1.31446000000000    0.00000000000000
   4     C       0.88941000000000    1.09095000000000    0.00000000000000
   5     C      -0.88941000000000   -1.09095000000000    0.00000000000000
   6     H      -0.87955000000000    2.34373000000000    0.00000000000000
   7     H       0.87955000000000   -2.34373000000000    0.00000000000000
   8     H       1.57790000000000    1.94501000000000    0.00000000000000
   9     H      -1.57790000000000   -1.94501000000000    0.00000000000000
  10     C       2.88458000000000   -0.52109000000000    0.00000000000000
  11     C      -2.88458000000000    0.52109000000000    0.00000000000000
  12     H       3.14034000000000   -1.59196000000000    0.00000000000000
  13     H      -3.14034000000000    1.59196000000000    0.00000000000000
  14     C       3.88004000000000    0.38225000000000    0.00000000000000
  15     C      -3.88004000000000   -0.38225000000000    0.00000000000000
  16     H       3.69468000000000    1.46244000000000    0.00000000000000
  17     H      -3.69468000000000   -1.46244000000000    0.00000000000000
  18     H       4.93164000000000    0.07111000000000    0.00000000000000
  19     H      -4.93164000000000   -0.07111000000000    0.00000000000000

                       ****************************
                       * Single Point Calculation *
                       ****************************

---------------------------------
CARTESIAN COORDINATES (ANGSTROEM)
---------------------------------
  C     -1.415250    0.230220    0.000000
  C      1.415250   -0.230220    0.000000
  C     -0.495130    1.314460    0.000000
  C      0.495130   -1.314460    0.000000
  C      0.889410    1.090950    0.000000
  C     -0.889410   -1.090950    0.000000
  H     -0.879550    2.343730    0.000000
  H      0.879550   -2.343730    0.000000
  H      1.577900    1.945010    0.000000
  H     -1.577900   -1.945010    0.000000
  C      2.884580   -0.521090    0.000000
  C     -2.884580    0.521090    0.000000
  H      3.140340   -1.591960    0.000000
  H     -3.140340    1.591960    0.000000
  C      3.880040    0.382250    0.000000
  C     -3.880040   -0.382250    0.000000
  H      3.694680    1.462440    0.000000
  H     -3.694680   -1.462440    0.000000
  H      4.931640    0.071110    0.000000
  H     -4.931640   -0.071110    0.000000

----------------------------
CARTESIAN COORDINATES (A.U.)
----------------------------
  NO LB      ZA    FRAG     MASS         X           Y           Z
   0 C     6.0000    0    12.011   -2.674435    0.435053    0.000000
   1 C     6.0000    0    12.011    2.674435   -0.435053    0.000000
   2 C     6.0000    0    12.011   -0.935660    2.483969    0.000000
   3 C     6.0000    0    12.011    0.935660   -2.483969    0.000000
   4 C     6.0000    0    12.011    1.680741    2.061597    0.000000
   5 C     6.0000    0    12.011   -1.680741   -2.061597    0.000000
   6 H     1.0000    0     1.008   -1.662109    4.429008    0.000000
   7 H     1.0000    0     1.008    1.662109   -4.429008    0.000000
   8 H     1.0000    0     1.008    2.981799    3.675536    0.000000
   9 H     1.0000    0     1.008   -2.981799   -3.675536    0.000000
  10 C     6.0000    0    12.011    5.451066   -0.984717    0.000000
  11 C     6.0000    0    12.011   -5.451066    0.984717    0.000000
  12 H     1.0000    0     1.008    5.934383   -3.008368    0.000000
  13 H     1.0000    0     1.008   -5.934383    3.008368    0.000000
  14 C     6.0000    0    12.011    7.332213    0.722348    0.000000
  15 C     6.0000    0    12.011   -7.332213   -0.722348    0.000000
  16 H     1.0000    0     1.008    6.981933    2.763611    0.000000
  17 H     1.0000    0     1.008   -6.981933   -2.763611    0.000000
  18 H     1.0000    0     1.008    9.319449    0.134378    0.000000
  19 H     1.0000    0     1.008   -9.319449   -0.134378    0.000000

--------------------------------
INTERNAL COORDINATES (ANGSTROEM)
--------------------------------
 C      0   0   0     0.000000000000     0.00000000     0.00000000
 C      1   0   0     2.867705571289     0.00000000     0.00000000
 C      1   2   0     1.422039799724    58.92044775     0.00000000
 C      2   1   3     1.422039799724    58.92044775   180.00000000
 C      3   1   2     1.402464877172   121.14868209     0.00000000
 C      4   2   1     1.402464877172   121.14868209     0.00000000
 H      3   1   2     1.098715372287   119.20096435   180.00000085
 H      4   2   1     1.098715372287   119.20096435   180.00000085
 H      5   3   1     1.097012745459   119.70330166   180.00000085
 H      6   4   2     1.097012745459   119.70330166   180.00000085
 C      2   1   3     1.497843785513   178.04187185   180.00000000
 C      1   2   3     1.497843785513   178.04187185     0.00000000
 H     11   2   5     1.100988526053   114.63009424   180.00000000
 H     12   1   6     1.100988526053   114.63009424   180.00000000
 C     11   2   5     1.344233524057   126.57996405     0.00000000
 C     12   1   6     1.344233524057   126.57996405     0.00000000
 H     15  11   2     1.095978451294   122.48539266     0.00000000
 H     16  12   1     1.095978451294   122.48539266     0.00000000
 H     15  11   2     1.096663421292   121.29545771   180.00000085
 H     16  12   1     1.096663421292   121.29545771   180.00000085

---------------------------
INTERNAL COORDINATES (A.U.)
---------------------------
 C      0   0   0     0.000000000000     0.00000000     0.00000000
 C      1   0   0     5.419178162456     0.00000000     0.00000000
 C      1   2   0     2.687265773015    58.92044775     0.00000000
 C      2   1   3     2.687265773015    58.92044775   180.00000000
 C      3   1   2     2.650274530298   121.14868209     0.00000000
 C      4   2   1     2.650274530298   121.14868209     0.00000000
 H      3   1   2     2.076271152752   119.20096435   180.00000085
 H      4   2   1     2.076271152752   119.20096435   180.00000085
 H      5   3   1     2.073053654339   119.70330166   180.00000085
 H      6   4   2     2.073053654339   119.70330166   180.00000085
 C      2   1   3     2.830514546016   178.04187185   180.00000000
 C      1   2   3     2.830514546016   178.04187185     0.00000000
 H     11   2   5     2.080566790829   114.63009424   180.00000000
 H     12   1   6     2.080566790829   114.63009424   180.00000000
 C     11   2   5     2.540233220504   126.57996405     0.00000000
 C     12   1   6     2.540233220504   126.57996405     0.00000000
 H     15  11   2     2.071099121624   122.48539266     0.00000000
 H     16  12   1     2.071099121624   122.48539266     0.00000000
 H     15  11   2     2.072393527331   121.29545771   180.00000085
 H     16  12   1     2.072393527331   121.29545771   180.00000085

---------------------
BASIS SET INFORMATION
---------------------
There are 2 groups of distinct atoms

 Group   1 Type C   : 6s3p contracted to 2s1p pattern {33/3}
 Group   2 Type H   : 3s contracted to 1s pattern {3}

Atom   0C    basis set group =>   1
Atom   1C    basis set group =>   1
Atom   2C    basis set group =>   1
Atom   3C    basis set group =>   1
Atom   4C    basis set group =>   1
Atom   5C    basis set group =>   1
Atom   6H    basis set group =>   2
Atom   7H    basis set group =>   2
Atom   8H    basis set group =>   2
Atom   9H    basis set group =>   2
Atom  10C    basis set group =>   1
Atom  11C    basis set group =>   1
Atom  12H    basis set group =>   2
Atom  13H    basis set group =>   2
Atom  14C    basis set group =>   1
Atom  15C    basis set group =>   1
Atom  16H    basis set group =>   2
Atom  17H    basis set group =>   2
Atom  18H    basis set group =>   2
Atom  19H    basis set group =>   2
---------------------------------
AUXILIARY/J BASIS SET INFORMATION
---------------------------------
There are 2 groups of distinct atoms

 Group   1 Type C   : 12s5p4d2f1g contracted to 6s4p3d1f1g pattern {711111/2111/211/2/1}
 Group   2 Type H   : 5s2p1d contracted to 3s1p1d pattern {311/2/1}

Atom   0C    basis set group =>   1
Atom   1C    basis set group =>   1
Atom   2C    basis set group =>   1
Atom   3C    basis set group =>   1
Atom   4C    basis set group =>   1
Atom   5C    basis set group =>   1
Atom   6H    basis set group =>   2
Atom   7H    basis set group =>   2
Atom   8H    basis set group =>   2
Atom   9H    basis set group =>   2
Atom  10C    basis set group =>   1
Atom  11C    basis set group =>   1
Atom  12H    basis set group =>   2
Atom  13H    basis set group =>   2
Atom  14C    basis set group =>   1
Atom  15C    basis set group =>   1
Atom  16H    basis set group =>   2
Atom  17H    basis set group =>   2
Atom  18H    basis set group =>   2
Atom  19H    basis set group =>   2


           ************************************************************
           *        Program running with 4 parallel MPI-processes     *
           *              working on a common directory               *
           ************************************************************
------------------------------------------------------------------------------
                             ORCA STARTUP CALCULATIONS
                           -- RI-GTO INTEGRALS CHOSEN --
------------------------------------------------------------------------------
------------------------------------------------------------------------------
                   ___                                                        
                  /   \      - P O W E R E D   B Y -                         
                 /     \                                                     
                 |  |  |   _    _      __       _____    __    __             
                 |  |  |  | |  | |    /  \     |  _  \  |  |  /  |          
                  \  \/   | |  | |   /    \    | | | |  |  | /  /          
                 / \  \   | |__| |  /  /\  \   | |_| |  |  |/  /          
                |  |  |   |  __  | /  /__\  \  |    /   |      \           
                |  |  |   | |  | | |   __   |  |    \   |  |\   \          
                \     /   | |  | | |  |  |  |  | |\  \  |  | \   \       
                 \___/    |_|  |_| |__|  |__|  |_| \__\ |__|  \__/        
                                                                              
                      - O R C A' S   B I G   F R I E N D -                    
                                      &                                       
                       - I N T E G R A L  F E E D E R -                       
                                                                              
 v1 FN, 2020, v2 2021, v3 2022-2024                                           
------------------------------------------------------------------------------


----------------------
SHARK INTEGRAL PACKAGE
----------------------

Number of atoms                             ...     20
Number of basis functions                   ...     60
Number of shells                            ...     40
Maximum angular momentum                    ...      1
Integral batch strategy                     ... SHARK/LIBINT Hybrid
RI-J (if used) integral strategy            ... SPLIT-RIJ (Revised 2003 algorithm where possible)
Printlevel                                  ...      1
Contraction scheme used                     ... SEGMENTED contraction
Prescreening option                         ... SCHWARTZ
   Thresh                                   ... 1.000e-10
   Tcut                                     ... 1.000e-11
   Tpresel                                  ... 1.000e-11 
Coulomb Range Separation                    ... NOT USED
Exchange Range Separation                   ... NOT USED
Multipole approximations                    ... NOT USED
Finite Nucleus Model                        ... NOT USED
CABS basis                                  ... NOT available
Auxiliary Coulomb fitting basis             ... AVAILABLE
   # of basis functions in Aux-J            ...    600
   # of shells in Aux-J                     ...    200
   Maximum angular momentum in Aux-J        ...      4
Auxiliary J/K fitting basis                 ... NOT available
Auxiliary Correlation fitting basis         ... NOT available
Auxiliary 'external' fitting basis          ... NOT available

Checking pre-screening integrals            ... done (  0.0 sec) Dimension = 40
Check shell pair data                       ... done (  0.0 sec)
Shell pair information
Shell pair cut-off parameter TPreSel        ...   1.0e-11
Total number of shell pairs                 ...       820
Shell pairs after pre-screening             ...       750
Total number of primitive shell pairs       ...      7380
Primitive shell pairs kept                  ...      4803
          la=0 lb=0:    405 shell pairs
          la=1 lb=0:    290 shell pairs
          la=1 lb=1:     55 shell pairs

Calculating one electron integrals          ... done (  0.0 sec)
Calculating RI/J V-Matrix + Cholesky decomp.... done (  0.3 sec)
Calculating Nuclear repulsion               ... done (  0.0 sec) ENN=    445.937320829021 Eh

Diagonalization of the overlap matrix:
Smallest eigenvalue                        ... 1.815e-01
Time for diagonalization                   ...    0.001 sec
Threshold for overlap eigenvalues          ... 1.000e-07
Number of eigenvalues below threshold      ... 0
Time for construction of square roots      ...    0.002 sec
Total time needed                          ...    0.004 sec

-------------------
DFT GRID GENERATION
-------------------

General Integration Accuracy     IntAcc      ... 4.388
Radial Grid Type                 RadialGrid  ... OptM3 with GC (2021)
Angular Grid (max. ang.)         AngularGrid ... 4 (Lebedev-302)
Angular grid pruning method      GridPruning ... 4 (adaptive)
Weight generation scheme         WeightScheme... mBecke (2022)
Basis function cutoff            BFCut       ... 1.0000e-10
Integration weight cutoff        WCut        ... 1.0000e-14
Partially contracted basis set               ... off
Rotationally invariant grid construction     ... off
Angular grids for H and He will be reduced by one unit

Total number of grid points                  ...    92318
Total number of batches                      ...     1450
Average number of points per batch           ...       63
Average number of grid points per atom       ...     4616

--------------------
COSX GRID GENERATION
--------------------

GRIDX 1
-------
General Integration Accuracy     IntAcc      ... 3.816
Radial Grid Type                 RadialGrid  ... OptM3 with GC (2021)
Angular Grid (max. ang.)         AngularGrid ... 1 (Lebedev-50)
Angular grid pruning method      GridPruning ... 4 (adaptive)
Weight generation scheme         WeightScheme... mBecke (2022)
Basis function cutoff            BFCut       ... 1.0000e-10
Integration weight cutoff        WCut        ... 1.0000e-14
Partially contracted basis set               ... on
Rotationally invariant grid construction     ... off
Angular grids for H and He will be reduced by one unit

Total number of grid points                  ...    11840
Total number of batches                      ...      104
Average number of points per batch           ...      113
Average number of grid points per atom       ...      592
UseSFitting                                  ... on

GRIDX 2
-------
General Integration Accuracy     IntAcc      ... 4.020
Radial Grid Type                 RadialGrid  ... OptM3 with GC (2021)
Angular Grid (max. ang.)         AngularGrid ... 2 (Lebedev-110)
Angular grid pruning method      GridPruning ... 4 (adaptive)
Weight generation scheme         WeightScheme... mBecke (2022)
Basis function cutoff            BFCut       ... 1.0000e-10
Integration weight cutoff        WCut        ... 1.0000e-14
Partially contracted basis set               ... on
Rotationally invariant grid construction     ... off
Angular grids for H and He will be reduced by one unit

Total number of grid points                  ...    25542
Total number of batches                      ...      212
Average number of points per batch           ...      120
Average number of grid points per atom       ...     1277
UseSFitting                                  ... on

GRIDX 3
-------
General Integration Accuracy     IntAcc      ... 4.338
Radial Grid Type                 RadialGrid  ... OptM3 with GC (2021)
Angular Grid (max. ang.)         AngularGrid ... 3 (Lebedev-194)
Angular grid pruning method      GridPruning ... 4 (adaptive)
Weight generation scheme         WeightScheme... mBecke (2022)
Basis function cutoff            BFCut       ... 1.0000e-10
Integration weight cutoff        WCut        ... 1.0000e-14
Partially contracted basis set               ... on
Rotationally invariant grid construction     ... off
Angular grids for H and He will be reduced by one unit

Total number of grid points                  ...    55986
Total number of batches                      ...      446
Average number of points per batch           ...      125
Average number of grid points per atom       ...     2799
UseSFitting                                  ... on
Initializing property integral containers    ... done (  0.0 sec)

SHARK setup successfully completed in   2.0 seconds

Maximum memory used throughout the entire STARTUP-calculation: 22.4 MB


           ************************************************************
           *        Program running with 4 parallel MPI-processes     *
           *              working on a common directory               *
           ************************************************************
-------------------------------------------------------------------------------
                                 ORCA GUESS
                   Start orbitals & Density for SCF / CASSCF
-------------------------------------------------------------------------------

Producing symmetrization matrix            ... done (   0.002 sec)
------------
SCF SETTINGS
------------
Hamiltonian:
 Density Functional     Method          .... DFT(GTOs)
 Exchange Functional    Exchange        .... B88
   X-Alpha parameter    XAlpha          ....  0.666667
   Becke's b parameter  XBeta           ....  0.004200
 Correlation Functional Correlation     .... LYP
 LDA part of GGA corr.  LDAOpt          .... VWN-5
 Gradients option       PostSCFGGA      .... off
 Hybrid DFT is turned on
   Fraction HF Exchange ScalHFX         ....  0.200000
   Scaling of DF-GGA-X  ScalDFX         ....  0.720000
   Scaling of DF-GGA-C  ScalDFC         ....  0.810000
   Scaling of DF-LDA-C  ScalLDAC        ....  1.000000
   Perturbative correction              ....  0.000000
   NL short-range parameter             ....  4.800000
 RI-approximation to the Coulomb term is turned on
   Number of AuxJ basis functions       .... 600
   RIJ-COSX (HFX calculated with COS-X)).... on


General Settings:
 Integral files         IntName         .... dvb_coupling_nmr
 Hartree-Fock type      HFTyp           .... RHF
 Total Charge           Charge          ....    0
 Multiplicity           Mult            ....    1
 Number of Electrons    NEL             ....   70
 Basis Dimension        Dim             ....   60
 Nuclear Repulsion      ENuc            ....    445.9373208290 Eh

 Symmetry handling      UseSym         .... ON
 Point group                           .... C2h
 Symmetry-adapted orbitals             .... C2h
 Petite-list algorithm                 .... OFF
 Number of irreps                      .... 4
   Irrep   Ag has   25 symmetry adapted basis functions (ofs=   0)
   Irrep   Bg has    5 symmetry adapted basis functions (ofs=  25)
   Irrep   Au has    5 symmetry adapted basis functions (ofs=  30)
   Irrep   Bu has   25 symmetry adapted basis functions (ofs=  35)

Convergence Acceleration:
 AO-DIIS                CNVDIIS         .... on
   Start iteration      DIISMaxIt       ....    12
   Startup error        DIISStart       ....  0.200000
   # of expansion vecs  DIISMaxEq       ....     5
   Bias factor          DIISBfac        ....   1.050
   Max. coefficient     DIISMaxC        ....  10.000
 MO-DIIS                CNVKDIIS        .... off
 Trust-Rad. Augm. Hess. CNVTRAH         .... auto
   Auto Start mean grad. ratio tolernc. ....  1.125000
   Auto Start start iteration           ....    50
   Auto Start num. interpolation iter.  ....    10
   Max. Number of Micro iterations      ....    24
   Max. Number of Macro iterations      .... Maxiter - #DIIS iter
   Number of Davidson start vectors     ....     2
   Converg. threshold    (grad. norm)   ....   5.000e-05
   Grad. Scal. Fac. for Micro threshold ....   0.100
   Minimum threshold for Micro iter.    ....   1.000e-02
   NR start threshold (gradient norm)   ....   1.000e-04
   Initial trust radius                 ....   0.400
   Minimum AH scaling param. (alpha)    ....   1.000
   Maximum AH scaling param. (alpha)    .... 1000.000
   Quad. conv. algorithm                .... NR
   White noise on init. David. guess    .... on
   Maximum white noise                  ....   0.010
   Pseudo random numbers                .... off
   Inactive MOs                         .... canonical
   Orbital update algorithm             .... Taylor
   Preconditioner                       .... Diag
   Full preconditioner red. dimension   ....   250
 SOSCF                  CNVSOSCF        .... on
   Start iteration      SOSCFMaxIt      ....   150
   Startup grad/error   SOSCFStart      ....  0.003300
   Hessian update       SOSCFHessUp     .... L-BFGS
 Level Shifting         CNVShift        .... on
   Level shift para.    LevelShift      ....    0.2500
   Turn off err/grad.   ShiftErr        ....    0.0010
 Zerner damping         CNVZerner       .... off
 Static damping         CNVDamp         .... on
   Fraction old density DampFac         ....    0.7000
   Max. Damping (<1)    DampMax         ....    0.9800
   Min. Damping (>=0)   DampMin         ....    0.0000
   Turn off err/grad.   DampErr         ....    0.1000

SCF Procedure:
 Maximum # iterations   MaxIter         ....   125
 SCF integral mode      SCFMode         .... Direct
   Integral package                     .... SHARK and LIBINT hybrid scheme
 Reset frequency        DirectResetFreq ....    20
 Integral Threshold     Thresh          ....  1.000e-10 Eh
 Primitive CutOff       TCut            ....  1.000e-11 Eh

Convergence Tolerance:
 Convergence Check Mode ConvCheckMode   .... Total+1el-Energy
 Convergence forced     ConvForced      .... 0
 Energy Change          TolE            ....  1.000e-06 Eh
 1-El. energy change                    ....  1.000e-03 Eh
 Orbital Gradient       TolG            ....  5.000e-05
 Orbital Rotation angle TolX            ....  5.000e-05
 DIIS Error             TolErr          ....  1.000e-06

------------------------------
INITIAL GUESS: MODEL POTENTIAL
------------------------------
Loading Hartree-Fock densities                     ... done
Calculating cut-offs                               ... done
Initializing the effective Hamiltonian             ... done
Setting up the integral package (SHARK)            ... done
Starting the Coulomb interaction                   ... done (   0.1 sec)
Making the grid                                    ... done (   0.2 sec)
Mapping shells                                     ... done
Starting the XC term evaluation                    ... done (   0.0 sec)
  promolecular density results
     # of electrons  =     69.991104443
     EX              =    -54.264383749
     EC              =     -2.295157295
     EX+EC           =    -56.559541044
done (   0.0 sec)
Diagonalizing the Hamiltonian                      ... done (   0.0 sec)
Back transforming the eigenvectors                 ... done (   0.0 sec)
Now organizing SCF variables                       ... done
Number of occupied orbitals per irrep:
  Ag   -   15
  Bg   -    3
  Au   -    2
  Bu   -   15
                      ------------------
                      INITIAL GUESS DONE (   0.3 sec)
                      ------------------
             **** ENERGY FILE WAS UPDATED (dvb_coupling_nmr.en.tmp) ****
Finished Guess after   0.9 sec
Maximum memory used throughout the entire GUESS-calculation: 11.0 MB


           ************************************************************
           *        Program running with 4 parallel MPI-processes     *
           *              working on a common directory               *
           ************************************************************

-------------------------------------------------------------------------------------------
                                      ORCA LEAN-SCF
                              memory conserving SCF solver
-------------------------------------------------------------------------------------------

----------------------------------------D-I-I-S--------------------------------------------
Iteration    Energy (Eh)           Delta-E    RMSDP     MaxDP     DIISErr   Damp  Time(sec)
-------------------------------------------------------------------------------------------
               ***  Starting incremental Fock matrix formation  ***
    1    -382.0027939035193754     0.00e+00  4.51e-03  4.25e-02  7.66e-02  0.700   1.0
    2    -382.0234996707402502    -2.07e-02  3.56e-03  3.34e-02  4.79e-02  0.700   0.4
                               ***Turning on AO-DIIS***
    3    -382.0348811019673008    -1.14e-02  1.62e-03  1.52e-02  2.57e-02  0.700   0.4
    4    -382.0415398278825592    -6.66e-03  3.00e-03  2.76e-02  1.66e-02  0.000   0.4
    5    -382.0550798370225607    -1.35e-02  4.18e-04  5.23e-03  3.39e-03  0.000   0.4
                              *** Initializing SOSCF ***
---------------------------------------S-O-S-C-F--------------------------------------
Iteration    Energy (Eh)           Delta-E    RMSDP     MaxDP     MaxGrad    Time(sec)
--------------------------------------------------------------------------------------
    6    -382.0551245852787474    -4.47e-05  9.94e-05  1.08e-03  1.59e-03     0.3
               *** Restarting incremental Fock matrix formation ***
    7    -382.0551744263312344    -4.98e-05  9.16e-05  1.52e-03  2.64e-04     0.7
    8    -382.0551736262175950     8.00e-07  5.83e-05  1.07e-03  3.19e-04     0.5
                 **** Energy Check signals convergence ****

               *****************************************************
               *                     SUCCESS                       *
               *           SCF CONVERGED AFTER   8 CYCLES          *
               *****************************************************

Recomputing exchange energy using gridx3       ... done (    1.048 sec)
Old exchange energy                            :    -11.058907380 Eh
New exchange energy                            :    -11.058840872 Eh
Exchange energy change after final integration :      0.000066508 Eh
Total energy after final integration           :   -382.055107118 Eh
             **** ENERGY FILE WAS UPDATED (dvb_coupling_nmr.en.tmp) ****

----------------
TOTAL SCF ENERGY
----------------

Total Energy       :       -382.05510711843215 Eh          -10396.24800 eV

Components:
Nuclear Repulsion  :        445.93732082902062 Eh           12134.57141 eV
Electronic Energy  :       -827.99249445523822 Eh          -22530.82122 eV
One Electron Energy:      -1400.63289555534607 Eh          -38113.15872 eV
Two Electron Energy:        572.64040110010785 Eh           15582.33750 eV

Virial components:
Potential Energy   :       -757.89795931517824 Eh          -20623.45195 eV
Kinetic Energy     :        375.84285219674615 Eh           10227.20395 eV
Virial Ratio       :          2.01652886275574

DFT components:
N(Alpha)           :       34.999915904717 electrons
N(Beta)            :       34.999915904717 electrons
N(Total)           :       69.999831809434 electrons
E(X)               :      -43.808455059393 Eh       
E(C)               :       -2.717824977043 Eh       
E(XC)              :      -46.526280036436 Eh       

---------------
SCF CONVERGENCE
---------------

  Last Energy change         ...   -8.0011e-07  Tolerance :   1.0000e-06
  Last MAX-Density change    ...    1.0738e-03  Tolerance :   1.0000e-05
  Last RMS-Density change    ...    5.8255e-05  Tolerance :   1.0000e-06
  Last DIIS Error            ...    1.5890e-03  Tolerance :   1.0000e-06
  Last Orbital Gradient      ...    3.1868e-04  Tolerance :   5.0000e-05
  Last Orbital Rotation      ...    4.5442e-04  Tolerance :   5.0000e-05


----------------
ORBITAL ENERGIES
----------------

  NO   OCC          E(Eh)            E(eV)    Irrep 
   0   2.0000     -10.017320      -272.5851    1-Bu
   1   2.0000     -10.017272      -272.5838    1-Ag
   2   2.0000     -10.005038      -272.2509    2-Bu
   3   2.0000     -10.005037      -272.2509    2-Ag
   4   2.0000     -10.003437      -272.2074    3-Ag
   5   2.0000     -10.003435      -272.2073    3-Bu
   6   2.0000     -10.002809      -272.1903    4-Bu
   7   2.0000     -10.002665      -272.1864    4-Ag
   8   2.0000      -9.987938      -271.7856    5-Bu
   9   2.0000      -9.987938      -271.7856    5-Ag
  10   2.0000      -0.806051       -21.9338    6-Ag
  11   2.0000      -0.750468       -20.4213    6-Bu
  12   2.0000      -0.714220       -19.4349    7-Ag
  13   2.0000      -0.696394       -18.9498    7-Bu
  14   2.0000      -0.663706       -18.0604    8-Bu
  15   2.0000      -0.584985       -15.9182    8-Ag
  16   2.0000      -0.555658       -15.1202    9-Ag
  17   2.0000      -0.527826       -14.3629    9-Bu
  18   2.0000      -0.506379       -13.7793   10-Ag
  19   2.0000      -0.454036       -12.3549   11-Ag
  20   2.0000      -0.435636       -11.8542   10-Bu
  21   2.0000      -0.407445       -11.0871   11-Bu
  22   2.0000      -0.394113       -10.7244   12-Bu
  23   2.0000      -0.392221       -10.6729   12-Ag
  24   2.0000      -0.370890       -10.0924   13-Bu
  25   2.0000      -0.347381        -9.4527   14-Bu
  26   2.0000      -0.343354        -9.3431   13-Ag
  27   2.0000      -0.321075        -8.7369    1-Au
  28   2.0000      -0.307512        -8.3678   15-Bu
  29   2.0000      -0.289515        -7.8781   14-Ag
  30   2.0000      -0.284028        -7.7288   15-Ag
  31   2.0000      -0.260030        -7.0758    1-Bg
  32   2.0000      -0.208725        -5.6797    2-Au
  33   2.0000      -0.191654        -5.2152    2-Bg
  34   2.0000      -0.149434        -4.0663    3-Bg
  35   0.0000       0.041101         1.1184    3-Au
  36   0.0000       0.093672         2.5490    4-Au
  37   0.0000       0.114388         3.1127    4-Bg
  38   0.0000       0.185692         5.0529    5-Au
  39   0.0000       0.275789         7.5046    5-Bg
  40   0.0000       0.336033         9.1439   16-Ag
  41   0.0000       0.344231         9.3670   16-Bu
  42   0.0000       0.383050        10.4233   17-Bu
  43   0.0000       0.384885        10.4733   17-Ag
  44   0.0000       0.414039        11.2666   18-Ag
  45   0.0000       0.414903        11.2901   18-Bu
*Only the first 10 virtual orbitals were printed.

                    ********************************
                    * MULLIKEN POPULATION ANALYSIS *
                    ********************************

-----------------------
MULLIKEN ATOMIC CHARGES
-----------------------
   0 C :   -0.004142
   1 C :   -0.004142
   2 C :   -0.076580
   3 C :   -0.076580
   4 C :   -0.076951
   5 C :   -0.076951
   6 H :    0.077764
   7 H :    0.077764
   8 H :    0.079095
   9 H :    0.079095
  10 C :   -0.076313
  11 C :   -0.076313
  12 H :    0.076502
  13 H :    0.076502
  14 C :   -0.154359
  15 C :   -0.154359
  16 H :    0.075910
  17 H :    0.075910
  18 H :    0.079075
  19 H :    0.079075
Sum of atomic charges:   -0.0000000

--------------------------------
MULLIKEN REDUCED ORBITAL CHARGES
--------------------------------
  0 C s       :     3.136754  s :     3.136754
      pz      :     0.993311  p :     2.867388
      px      :     0.929434
      py      :     0.944644

  1 C s       :     3.136754  s :     3.136754
      pz      :     0.993311  p :     2.867388
      px      :     0.929434
      py      :     0.944644

  2 C s       :     3.150920  s :     3.150920
      pz      :     1.001407  p :     2.925660
      px      :     0.950901
      py      :     0.973351

  3 C s       :     3.150920  s :     3.150920
      pz      :     1.001407  p :     2.925660
      px      :     0.950901
      py      :     0.973351

  4 C s       :     3.148706  s :     3.148706
      pz      :     1.000967  p :     2.928245
      px      :     0.961711
      py      :     0.965567

  5 C s       :     3.148706  s :     3.148706
      pz      :     1.000967  p :     2.928245
      px      :     0.961711
      py      :     0.965567

  6 H s       :     0.922236  s :     0.922236

  7 H s       :     0.922236  s :     0.922236

  8 H s       :     0.920905  s :     0.920905

  9 H s       :     0.920905  s :     0.920905

 10 C s       :     3.153882  s :     3.153882
      pz      :     0.997970  p :     2.922432
      px      :     0.935655
      py      :     0.988807

 11 C s       :     3.153882  s :     3.153882
      pz      :     0.997970  p :     2.922432
      px      :     0.935655
      py      :     0.988807

 12 H s       :     0.923498  s :     0.923498

 13 H s       :     0.923498  s :     0.923498

 14 C s       :     3.168889  s :     3.168889
      pz      :     1.006346  p :     2.985471
      px      :     0.987926
      py      :     0.991200

 15 C s       :     3.168889  s :     3.168889
      pz      :     1.006346  p :     2.985471
      px      :     0.987926
      py      :     0.991200

 16 H s       :     0.924090  s :     0.924090

 17 H s       :     0.924090  s :     0.924090

 18 H s       :     0.920925  s :     0.920925

 19 H s       :     0.920925  s :     0.920925



                     *******************************
                     * LOEWDIN POPULATION ANALYSIS *
                     *******************************

----------------------
LOEWDIN ATOMIC CHARGES
----------------------
   0 C :    0.003938
   1 C :    0.003938
   2 C :   -0.043833
   3 C :   -0.043833
   4 C :   -0.044090
   5 C :   -0.044090
   6 H :    0.042053
   7 H :    0.042053
   8 H :    0.043587
   9 H :    0.043587
  10 C :   -0.038965
  11 C :   -0.038965
  12 H :    0.040905
  13 H :    0.040905
  14 C :   -0.091364
  15 C :   -0.091364
  16 H :    0.042889
  17 H :    0.042889
  18 H :    0.044879
  19 H :    0.044879

-------------------------------
LOEWDIN REDUCED ORBITAL CHARGES
-------------------------------
  0 C s       :     3.032263  s :     3.032263
      pz      :     0.992408  p :     2.963799
      px      :     0.975416
      py      :     0.995975

  1 C s       :     3.032263  s :     3.032263
      pz      :     0.992408  p :     2.963799
      px      :     0.975416
      py      :     0.995975

  2 C s       :     3.031773  s :     3.031773
      pz      :     1.001718  p :     3.012060
      px      :     1.003532
      py      :     1.006810

  3 C s       :     3.031773  s :     3.031773
      pz      :     1.001718  p :     3.012060
      px      :     1.003532
      py      :     1.006810

  4 C s       :     3.029434  s :     3.029434
      pz      :     1.001371  p :     3.014656
      px      :     1.007450
      py      :     1.005834

  5 C s       :     3.029434  s :     3.029434
      pz      :     1.001371  p :     3.014656
      px      :     1.007450
      py      :     1.005834

  6 H s       :     0.957947  s :     0.957947

  7 H s       :     0.957947  s :     0.957947

  8 H s       :     0.956413  s :     0.956413

  9 H s       :     0.956413  s :     0.956413

 10 C s       :     3.033557  s :     3.033557
      pz      :     0.997345  p :     3.005408
      px      :     0.986402
      py      :     1.021662

 11 C s       :     3.033557  s :     3.033557
      pz      :     0.997345  p :     3.005408
      px      :     0.986402
      py      :     1.021662

 12 H s       :     0.959095  s :     0.959095

 13 H s       :     0.959095  s :     0.959095

 14 C s       :     3.033099  s :     3.033099
      pz      :     1.007159  p :     3.058265
      px      :     1.025354
      py      :     1.025753

 15 C s       :     3.033099  s :     3.033099
      pz      :     1.007159  p :     3.058265
      px      :     1.025354
      py      :     1.025753

 16 H s       :     0.957111  s :     0.957111

 17 H s       :     0.957111  s :     0.957111

 18 H s       :     0.955121  s :     0.955121

 19 H s       :     0.955121  s :     0.955121



                      *****************************
                      * MAYER POPULATION ANALYSIS *
                      *****************************

  NA   - Mulliken gross atomic population
  ZA   - Total nuclear charge
  QA   - Mulliken gross atomic charge
  VA   - Mayer's total valence
  BVA  - Mayer's bonded valence
  FA   - Mayer's free valence

  ATOM       NA         ZA         QA         VA         BVA        FA
  0 C      6.0041     6.0000    -0.0041     3.9731     3.9731    -0.0000
  1 C      6.0041     6.0000    -0.0041     3.9731     3.9731    -0.0000
  2 C      6.0766     6.0000    -0.0766     3.9693     3.9693    -0.0000
  3 C      6.0766     6.0000    -0.0766     3.9693     3.9693     0.0000
  4 C      6.0770     6.0000    -0.0770     3.9701     3.9701    -0.0000
  5 C      6.0770     6.0000    -0.0770     3.9701     3.9701    -0.0000
  6 H      0.9222     1.0000     0.0778     0.9940     0.9940    -0.0000
  7 H      0.9222     1.0000     0.0778     0.9940     0.9940    -0.0000
  8 H      0.9209     1.0000     0.0791     0.9937     0.9937    -0.0000
  9 H      0.9209     1.0000     0.0791     0.9937     0.9937     0.0000
 10 C      6.0763     6.0000    -0.0763     3.9681     3.9681    -0.0000
 11 C      6.0763     6.0000    -0.0763     3.9681     3.9681    -0.0000
 12 H      0.9235     1.0000     0.0765     0.9941     0.9941    -0.0000
 13 H      0.9235     1.0000     0.0765     0.9941     0.9941    -0.0000
 14 C      6.1544     6.0000    -0.1544     3.9648     3.9648    -0.0000
 15 C      6.1544     6.0000    -0.1544     3.9648     3.9648    -0.0000
 16 H      0.9241     1.0000     0.0759     0.9942     0.9942    -0.0000
 17 H      0.9241     1.0000     0.0759     0.9942     0.9942    -0.0000
 18 H      0.9209     1.0000     0.0791     0.9937     0.9937    -0.0000
 19 H      0.9209     1.0000     0.0791     0.9937     0.9937    -0.0000

  Mayer bond orders larger than 0.100000
B(  0-C ,  2-C ) :   1.3631 B(  0-C ,  5-C ) :   1.3652 B(  0-C , 11-C ) :   1.0664 
B(  1-C ,  3-C ) :   1.3631 B(  1-C ,  4-C ) :   1.3652 B(  1-C , 10-C ) :   1.0664 
B(  2-C ,  4-C ) :   1.4652 B(  2-C ,  6-H ) :   0.9614 B(  3-C ,  5-C ) :   1.4652 
B(  3-C ,  7-H ) :   0.9614 B(  4-C ,  5-C ) :   0.1022 B(  4-C ,  8-H ) :   0.9595 
B(  5-C ,  9-H ) :   0.9595 B( 10-C , 12-H ) :   0.9592 B( 10-C , 14-C ) :   1.9013 
B( 11-C , 13-H ) :   0.9592 B( 11-C , 15-C ) :   1.9013 B( 14-C , 16-H ) :   0.9664 
B( 14-C , 18-H ) :   0.9693 B( 15-C , 17-H ) :   0.9664 B( 15-C , 19-H ) :   0.9693 


-------
TIMINGS
-------

Total SCF time: 0 days 0 hours 0 min 5 sec 

Total time                  ....       5.920 sec
Sum of individual times     ....       5.854 sec  ( 98.9%)

SCF preparation             ....       0.859 sec  ( 14.5%)
Fock matrix formation       ....       4.842 sec  ( 81.8%)
  Startup                   ....       0.007 sec  (  0.2% of F)
  Split-RI-J                ....       0.585 sec  ( 12.1% of F)
  Chain of spheres X        ....       3.517 sec  ( 72.6% of F)
  XC integration            ....       0.706 sec  ( 14.6% of F)
    XC Preparation          ....       0.000 sec  (  0.0% of XC)
    Basis function eval.    ....       0.307 sec  ( 43.5% of XC)
    Density eval.           ....       0.078 sec  ( 11.1% of XC)
    XC-Functional eval.     ....       0.092 sec  ( 13.1% of XC)
    XC-Potential eval.      ....       0.062 sec  (  8.7% of XC)
Diagonalization             ....       0.000 sec  (  0.0%)
Density matrix formation    ....       0.013 sec  (  0.2%)
Total Energy calculation    ....       0.009 sec  (  0.2%)
Population analysis         ....       0.010 sec  (  0.2%)
Orbital Transformation      ....       0.006 sec  (  0.1%)
Orbital Orthonormalization  ....       0.000 sec  (  0.0%)
DIIS solution               ....       0.101 sec  (  1.7%)
SOSCF solution              ....       0.014 sec  (  0.2%)
Finished LeanSCF after   5.9 sec

Maximum memory used throughout the entire LEANSCF-calculation: 12.2 MB


           ************************************************************
           *        Program running with 4 parallel MPI-processes     *
           *              working on a common directory               *
           ************************************************************

------------------------------------------------------------------------------
                         ORCA PROPERTY INTEGRAL CALCULATIONS
------------------------------------------------------------------------------

GBWName                                   ... dvb_coupling_nmr.gbw
Number of atoms                           ...     20
Number of basis functions                 ...     60
Max core memory                           ...    700 MB

Dipole integrals                          ... YES
Quadrupole integrals                      ...  NO
Linear momentum integrals                 ...  NO
Angular momentum integrals                ...  NO
Higher moments length integrals           ...  NO
Higher moments velocity integrals         ...  NO
Kinetic energy integrals                  ...  NO
GIAO right hand sides                     ... YES
GIAO dipole derivative integrals          ...  NO
SOC integrals                             ...  NO
EPR diamagnetic integrals (GIAO)          ...  NO
EPR gauge integrals                       ...  NO
Field gradient integrals                  ...  NO (   0 nuclei)
Spin-dipole/Fermi contact integrals       ... YES (  20 nuclei)
Contact density integrals                 ...  NO (   0 nuclei)
Nucleus-orbit integrals                   ... YES (  20 nuclei)
Geometric perturbations                   ...  NO (  20 nuclei)

Choice of electric origin   ... Center of mass
Position of electric origin ... (  0.0000,  0.0000,  0.0000) 
Choice of magnetic origin   ... GIAO
Position of magnetic origin ... (  0.0000,  0.0000,  0.0000) 

Calculating integrals                     ... Electric Dipole (Length)     done (  0.0 sec)
Calculating integrals                     ... Nucleus-Orbit integrals      done (  0.0 sec)
Calculating integrals                     ... SD/FC/EFG integrals          done (  0.0 sec)

Calculating integrals                     ... GIAO Right Hand Sides
     -> RIJCOSX used in SCF. Same chosen for GIAO calculation.
  One-electron GIAO integrals (SHARK)     ... done (  0.0 sec)
  Calculating G(B)[P]                     ... (RI-J: SHARK-ok) (COSX-ok) (add-J+K:ok) => dG/dB done (  0.9 sec)
  DFT XC-terms                            ... done (  0.5 sec)
  Extracting occupied and virtual blocks  ... 
  Operator  0  NO=  35 NV=  25 
  Transforming and RHS contribution       ... done
  Adding eps_i * S(B)_ai terms            ... done
  Projecting overlap derivatives          ... done (  0.0 sec)
  Building G[dS/dB_ij] (COSX)             ... done (  0.2 sec)
  Transforming to MO basis                ... done
  Summing G[dS/dB_ij] into RHS contribs.  ... done
  GIAO Right hand sides done (  1.7 sec)


Property integrals calculated in   1.8 sec

Maximum memory used throughout the entire PROPINT-calculation: 13.2 MB

-------------------------   --------------------
FINAL SINGLE POINT ENERGY      -382.055107118432
-------------------------   --------------------



           ************************************************************
           *        Program running with 4 parallel MPI-processes     *
           *              working on a common directory               *
           ************************************************************
------------------------------------------------------------------------------
                            ORCA SCF RESPONSE CALCULATION
------------------------------------------------------------------------------

GBWName                                 ... dvb_coupling_nmr.gbw
Number of atoms                         ...     20
Number of basis functions               ...     60
Max core memory                         ...    700 MB

Electric field perturbation             ...  NO
Quadrupolar field perturbation          ...  NO
Magnetic field perturbation (no GIAO)   ...  NO
Magnetic field perturbation (with GIAO) ... YES
Linear momentum (velocity) perturbation ...  NO
Spin-orbit coupling perturbation        ...  NO
Choice of electric origin               ... Center of mass
Position of electric origin             ...     0.000000     0.000000     0.000000
Choice of magnetic origin               ... GIAO
Position of magnetic origin             ...     0.000000     0.000000     0.000000
Nuclear geometric perturbations         ...  NO (  60 perturbations)
Nucleus-orbit perturbations             ... YES (  54 perturbations)
Spin-dipole/Fermi contact perturbations ... YES ( 126 perturbations)

Total number of real perturbations      ...      0
Total number of imaginary perturbations ...     57
Total number of triplet perturbations   ...    126
Total number of SOC perturbations       ...      0

Using XC Grid                  ... (dvb_coupling_nmr.grid_cpscf.tmp) 
Recalculating density on grid  ... (dvb_coupling_nmr.grho_cpscf0.tmp) done
Calculating the xc-kernel      ... (dvb_coupling_nmr.fxc_cpscf0.tmp) done

                              ***************************
                              * IMAGINARY PERTURBATIONS *
                              ***************************



-------------------
SHARK CP-SCF DRIVER
-------------------

Dimension of the orbital basis          ...     60
Dimension of the CPSCF-problem          ...    875
Number of operators                     ...      1
Max. number of iterations               ...    128
Convergence Tolerance                   ... 1.0e-03
Number of perturbations                 ...     57
Perturbation type                       ... IMAGINARY

----------------------------
POPLE LINEAR EQUATION SOLVER
----------------------------

  ITERATION   0:   ||err||_max =   6.9926e-01 (   0.5 sec   0/ 57 done)
  ITERATION   1:   ||err||_max =   9.5226e-03 (   0.4 sec  34/ 57 done)
  ITERATION   2:   ||err||_max =   3.3892e-04 (   0.3 sec  57/ 57 done)

CP-SCF equations solved in   1.2 sec
Response densities calculated in   0.1 sec

                               *************************
                               * TRIPLET PERTURBATIONS *
                               *************************



-------------------
SHARK CP-SCF DRIVER
-------------------

Dimension of the orbital basis          ...     60
Dimension of the CPSCF-problem          ...    875
Number of operators                     ...      1
Max. number of iterations               ...    128
Convergence Tolerance                   ... 1.0e-03
Number of perturbations                 ...    126
Perturbation type                       ... TRIPLET

----------------------------
POPLE LINEAR EQUATION SOLVER
----------------------------

  ITERATION   0:   ||err||_max =   1.5383e+00 (   1.4 sec   0/126 done)
  ITERATION   1:   ||err||_max =   8.3152e-01 (   1.4 sec  16/126 done)
  ITERATION   2:   ||err||_max =   3.1556e-01 (   1.3 sec  36/126 done)
  ITERATION   3:   ||err||_max =   1.0924e-01 (   1.1 sec  38/126 done)
  ITERATION   4:   ||err||_max =   4.4059e-02 (   1.1 sec  60/126 done)
  ITERATION   5:   ||err||_max =   9.0589e-03 (   0.8 sec  86/126 done)
  ITERATION   6:   ||err||_max =   3.8344e-03 (   0.6 sec 114/126 done)
  ITERATION   7:   ||err||_max =   8.1900e-04 (   0.3 sec 126/126 done)

CP-SCF equations solved in   8.1 sec
Response densities calculated in   0.0 sec

Maximum memory used throughout the entire SCFRESP-calculation: 54.6 MB


           ************************************************************
           *        Program running with 4 parallel MPI-processes     *
           *              working on a common directory               *
           ************************************************************

------------------------------------------------------------------------------
                              ORCA PROPERTY CALCULATIONS
------------------------------------------------------------------------------

GBWName                                 ... dvb_coupling_nmr.gbw
Number of atoms                         ...     20
Number of basis functions               ...     60
Max core memory                         ...    700 MB

Electric properties:
Dipole moment                           ... YES
Quadrupole moment                       ...  NO
Static polarizability (Dipole/Dipole)   ...  NO
Static polarizability (Dipole/Quad.)    ...  NO
Static polarizability (Quad./Quad.)     ...  NO
Static polarizability (Velocity)        ...  NO

Atomic electric properties:
Dipole moment                           ...  NO
Quadrupole moment                       ...  NO
Static polarizability                   ...  NO

Choice of electric origin               ... Center of mass
Position of electric origin             ...     0.000000     0.000000     0.000000

General magnetic properties:
Magnetizability                         ...  NO

EPR properties:
g-Tensor (aka g-matrix)                 ...  NO
Zero-Field splitting spin-orbit         ...  NO
Zero-field splitting spin-spin          ...  NO
Hyperfine couplings                     ...  NO (   0 nuclei)
Quadrupole couplings                    ...  NO (   0 nuclei)
Contact density                         ...  NO (   0 nuclei)

NMR properties:
Chemical shifts                         ... YES (  20 nuclei)
Spin-rotation constants                 ...  NO (   0 nuclei)
Spin-spin couplings                     ... YES (  20 nuclei,  139 pairs)

Choice of magnetic origin               ... GIAO
Position of magnetic origin             ...     0.000000     0.000000     0.000000

Properties with geometric perturbations:
SCF Hessian                             ...  NO
IR spectrum                             ...  NO
VCD spectrum                            ...  NO
X-ray spectroscopy properties:
SCF XES/XAS/RIXS spectra                ...  NO


-------------
DIPOLE MOMENT
-------------

Method             : SCF
Type of density    : Electron Density
Multiplicity       :   1
Irrep              :   0
Energy             :  -382.0551071184321472 Eh
Relativity type    : 
Basis              : AO
                                X                 Y                 Z
Electronic contribution:     -0.000000000      -0.000000000      -0.000000000
Nuclear contribution   :      0.000000000       0.000000000       0.000000000
                        -----------------------------------------
Total Dipole Moment    :     -0.000000000      -0.000000000      -0.000000000
                        -----------------------------------------
Magnitude (a.u.)       :      0.000000000
Magnitude (Debye)      :      0.000000000



--------------------
Rotational spectrum 
--------------------
 
Rotational constants in cm-1:             0.153923             0.022856             0.019901 
Rotational constants in MHz :          4614.502067           685.206881           596.615512 

Dipole components along the rotational axes: 
x,y,z [a.u.] :     0.000000    -0.000000    -0.000000 
x,y,z [Debye]:     0.000000    -0.000000    -0.000000 

 

Dipole moment calculation done in   0.1 sec 
GIAO: Analytic para- and diamagnetic shielding integrals (SHARK)       ... done (  0.1 sec)
-------------------
CHEMICAL SHIELDINGS (ppm)
-------------------

Method             : SCF
Type of density    : Electron Density
Type of derivative : Magnetic Field (with GIAOs) (Direction=X)
Multiplicity       :   1
Irrep              :   0
Relativity type    : 
Basis              : AO
 --------------
 Nucleus   0C :
 --------------

Diamagnetic contribution to the shielding tensor (ppm) : 
           267.113         -0.561        -0.000
            -0.693        260.076         0.000
            -0.000          0.000       244.893

Paramagnetic contribution to the shielding tensor (ppm): 
          -217.458          5.109         0.000
             7.257       -179.946         0.000
             0.000         -0.000       -32.428

Total shielding tensor (ppm): 
            49.655          4.547         0.000
             6.564         80.131         0.000
             0.000         -0.000       212.465


 Diagonalized sT*s matrix:
 
 sDSO           267.105          260.084          244.893  iso=     257.361
 sPSO          -218.430         -178.974          -32.428  iso=    -143.277
        ---------------  ---------------  ---------------
 Total           48.675           81.110          212.465  iso=     114.083

 Orientation: 
  X          -0.9833800    0.1815594    0.0000000
  Y           0.1815594    0.9833800   -0.0000000
  Z           0.0000000    0.0000000    1.0000000

 --------------
 Nucleus   1C :
 --------------

Diamagnetic contribution to the shielding tensor (ppm) : 
           267.113         -0.561        -0.000
            -0.693        260.076        -0.000
            -0.000          0.000       244.893

Paramagnetic contribution to the shielding tensor (ppm): 
          -217.458          5.109        -0.000
             7.257       -179.946        -0.000
            -0.000          0.000       -32.428

Total shielding tensor (ppm): 
            49.655          4.547        -0.000
             6.564         80.131        -0.000
            -0.000          0.000       212.465


 Diagonalized sT*s matrix:
 
 sDSO           267.105          260.084          244.893  iso=     257.361
 sPSO          -218.430         -178.974          -32.428  iso=    -143.277
        ---------------  ---------------  ---------------
 Total           48.675           81.110          212.465  iso=     114.083

 Orientation: 
  X           0.9833800    0.1815594   -0.0000000
  Y          -0.1815594    0.9833800    0.0000000
  Z           0.0000000   -0.0000000    1.0000000

 --------------
 Nucleus   2C :
 --------------

Diamagnetic contribution to the shielding tensor (ppm) : 
           266.974          2.151        -0.000
             2.139        259.521         0.000
            -0.000         -0.000       243.747

Paramagnetic contribution to the shielding tensor (ppm): 
          -168.699         15.500         0.000
            14.747       -210.603         0.000
             0.000          0.000       -37.613

Total shielding tensor (ppm): 
            98.275         17.651         0.000
            16.886         48.918         0.000
             0.000          0.000       206.134


 Diagonalized sT*s matrix:
 
 sDSO           258.966          267.528          243.747  iso=     256.747
 sPSO          -215.490         -163.812          -37.613  iso=    -138.972
        ---------------  ---------------  ---------------
 Total           43.477          103.716          206.134  iso=     117.775

 Orientation: 
  X           0.3030371    0.9529788    0.0000000
  Y          -0.9529788    0.3030371    0.0000000
  Z           0.0000000   -0.0000000    1.0000000

 --------------
 Nucleus   3C :
 --------------

Diamagnetic contribution to the shielding tensor (ppm) : 
           266.974          2.151         0.000
             2.139        259.521         0.000
             0.000         -0.000       243.747

Paramagnetic contribution to the shielding tensor (ppm): 
          -168.699         15.500         0.000
            14.747       -210.603         0.000
             0.000          0.000       -37.613

Total shielding tensor (ppm): 
            98.275         17.651         0.000
            16.886         48.918         0.000
             0.000          0.000       206.134


 Diagonalized sT*s matrix:
 
 sDSO           258.966          267.528          243.747  iso=     256.747
 sPSO          -215.490         -163.812          -37.613  iso=    -138.972
        ---------------  ---------------  ---------------
 Total           43.477          103.716          206.134  iso=     117.775

 Orientation: 
  X          -0.3030371    0.9529788    0.0000000
  Y           0.9529788    0.3030371    0.0000000
  Z          -0.0000000   -0.0000000    1.0000000

 --------------
 Nucleus   4C :
 --------------

Diamagnetic contribution to the shielding tensor (ppm) : 
           265.581         -3.626        -0.000
            -3.696        261.197        -0.000
            -0.000          0.000       245.269

Paramagnetic contribution to the shielding tensor (ppm): 
          -181.852        -27.020        -0.000
           -24.524       -197.359        -0.000
            -0.000          0.000       -29.000

Total shielding tensor (ppm): 
            83.728        -30.646        -0.000
           -28.221         63.838        -0.000
            -0.000          0.000       216.269


 Diagonalized sT*s matrix:
 
 sDSO           259.234          267.544          245.269  iso=     257.349
 sPSO          -216.515         -162.697          -29.000  iso=    -136.071
        ---------------  ---------------  ---------------
 Total           42.719          104.847          216.269  iso=     121.278

 Orientation: 
  X           0.5897026    0.8076205   -0.0000000
  Y           0.8076205   -0.5897026    0.0000000
  Z          -0.0000000    0.0000000    1.0000000

 --------------
 Nucleus   5C :
 --------------

Diamagnetic contribution to the shielding tensor (ppm) : 
           265.581         -3.626         0.000
            -3.696        261.197         0.000
            -0.000          0.000       245.269

Paramagnetic contribution to the shielding tensor (ppm): 
          -181.852        -27.020        -0.000
           -24.524       -197.359         0.000
            -0.000         -0.000       -29.000

Total shielding tensor (ppm): 
            83.728        -30.646        -0.000
           -28.221         63.838         0.000
            -0.000         -0.000       216.269


 Diagonalized sT*s matrix:
 
 sDSO           259.234          267.544          245.269  iso=     257.349
 sPSO          -216.515         -162.697          -29.000  iso=    -136.071
        ---------------  ---------------  ---------------
 Total           42.719          104.847          216.269  iso=     121.278

 Orientation: 
  X           0.5897026    0.8076205   -0.0000000
  Y           0.8076205   -0.5897026   -0.0000000
  Z           0.0000000    0.0000000    1.0000000

 --------------
 Nucleus  10C :
 --------------

Diamagnetic contribution to the shielding tensor (ppm) : 
           269.240          1.878         0.000
             1.817        255.791         0.000
            -0.000          0.000       228.365

Paramagnetic contribution to the shielding tensor (ppm): 
          -178.546         40.125        -0.000
            40.378       -192.611         0.000
            -0.000         -0.000       -33.860

Total shielding tensor (ppm): 
            90.693         42.003        -0.000
            42.195         63.179         0.000
            -0.000         -0.000       194.504


 Diagonalized sT*s matrix:
 
 sDSO           258.663          266.367          228.365  iso=     251.132
 sPSO          -226.016         -145.141          -33.860  iso=    -135.006
        ---------------  ---------------  ---------------
 Total           32.647          121.226          194.504  iso=     116.126

 Orientation: 
  X          -0.5865980    0.8098782   -0.0000000
  Y           0.8098782    0.5865980   -0.0000000
  Z           0.0000000    0.0000000    1.0000000

 --------------
 Nucleus  11C :
 --------------

Diamagnetic contribution to the shielding tensor (ppm) : 
           269.240          1.878         0.000
             1.817        255.791        -0.000
            -0.000         -0.000       228.365

Paramagnetic contribution to the shielding tensor (ppm): 
          -178.546         40.125        -0.000
            40.378       -192.611        -0.000
            -0.000         -0.000       -33.860

Total shielding tensor (ppm): 
            90.693         42.003        -0.000
            42.195         63.179        -0.000
            -0.000         -0.000       194.504


 Diagonalized sT*s matrix:
 
 sDSO           258.663          266.367          228.365  iso=     251.132
 sPSO          -226.016         -145.141          -33.860  iso=    -135.006
        ---------------  ---------------  ---------------
 Total           32.647          121.226          194.504  iso=     116.126

 Orientation: 
  X           0.5865980    0.8098782   -0.0000000
  Y          -0.8098782    0.5865980   -0.0000000
  Z          -0.0000000    0.0000000    1.0000000

 --------------
 Nucleus  14C :
 --------------

Diamagnetic contribution to the shielding tensor (ppm) : 
           264.509          4.617         0.000
             4.626        258.375        -0.000
            -0.000         -0.000       229.993

Paramagnetic contribution to the shielding tensor (ppm): 
          -175.536         39.933        -0.000
            35.918       -174.690         0.000
             0.000         -0.000       -17.331

Total shielding tensor (ppm): 
            88.973         44.550        -0.000
            40.544         83.685         0.000
             0.000         -0.000       212.662


 Diagonalized sT*s matrix:
 
 sDSO           256.705          266.179          229.993  iso=     250.959
 sPSO          -212.994         -137.233          -17.331  iso=    -122.519
        ---------------  ---------------  ---------------
 Total           43.711          128.947          212.662  iso=     128.440

 Orientation: 
  X          -0.6932321    0.7207144    0.0000000
  Y           0.7207144    0.6932321   -0.0000000
  Z           0.0000000    0.0000000    1.0000000

 --------------
 Nucleus  15C :
 --------------

Diamagnetic contribution to the shielding tensor (ppm) : 
           264.509          4.617         0.000
             4.626        258.375        -0.000
            -0.000          0.000       229.993

Paramagnetic contribution to the shielding tensor (ppm): 
          -175.536         39.933        -0.000
            35.918       -174.690        -0.000
             0.000          0.000       -17.331

Total shielding tensor (ppm): 
            88.973         44.550        -0.000
            40.544         83.685        -0.000
             0.000          0.000       212.662


 Diagonalized sT*s matrix:
 
 sDSO           256.705          266.179          229.993  iso=     250.959
 sPSO          -212.994         -137.233          -17.331  iso=    -122.519
        ---------------  ---------------  ---------------
 Total           43.711          128.947          212.662  iso=     128.440

 Orientation: 
[...]
       -1.2165        -1.1174        0.0000
        0.0000        -0.0000        0.8718
Spin-dipolar/Fermi contact cross term contribution to J (Hz):
        2.8041        -0.9779       -0.0000
       -0.9779        -0.0328        0.0000
       -0.0000         0.0000       -2.7784

Total spin-spin coupling tensor J (Hz):
      144.3140        -5.2092       -0.0000
       -4.0322       133.9868        0.0000
       -0.0000         0.0000      131.4222

 Diagonalized JT*J matrix:
 
 J[14,18](DSO)           -5.464           -5.785           13.289  iso=      0.680
 J[14,18](PSO)            3.071            4.246           -8.671  iso=     -0.451
 J[14,18](FC)           135.721          135.721          135.721  iso=    135.721
 J[14,18](SD)             0.872           -1.639            2.646  iso=      0.626
 J[14,18](SD/FC)         -2.778           -0.322            3.094  iso=     -0.002
                ---------------  ---------------  ---------------  ---------------
 J[14,18](Total)        131.422          132.221          146.079  iso=    136.574



-----------------------------------------------------------
 NUCLEUS A = C   15 NUCLEUS B = H   17 
 ( 13C  gnA =  1.405   1H  gnB =  5.586) r(AB) =     1.0960
-----------------------------------------------------------

Diamagnetic contribution to J (Hz):
       -5.3042        -3.3049        0.0000
       -3.6950        12.9127        0.0000
        0.0000        -0.0000       -5.3899
Paramagnetic contribution to J (Hz):
        4.1480         2.0519       -0.0000
        1.5550        -8.5253        0.0000
        0.0000         0.0000        3.0625
Fermi-contact contribution to J (Hz):
      132.1826         0.0000        0.0000
        0.0000       132.1826        0.0000
        0.0000         0.0000      132.1826
Spin-dipolar contribution to J (Hz):
       -1.4085        -0.7782       -0.0000
       -1.1527         2.4377        0.0000
        0.0000        -0.0000        0.8714
Spin-dipolar/Fermi contact cross term contribution to J (Hz):
       -0.1775        -0.6424       -0.0000
       -0.6424         2.8508        0.0000
       -0.0000         0.0000       -2.6791

Total spin-spin coupling tensor J (Hz):
      129.4405        -2.6735       -0.0000
       -3.9351       141.8585        0.0000
       -0.0000         0.0000      128.0474

 Diagonalized JT*J matrix:
 
 J[15,17](DSO)           -5.390           -5.875           13.484  iso=      0.740
 J[15,17](PSO)            3.063            4.246           -8.623  iso=     -0.438
 J[15,17](FC)           132.183          132.183          132.183  iso=    132.183
 J[15,17](SD)             0.871           -1.636            2.666  iso=      0.634
 J[15,17](SD/FC)         -2.679           -0.301            2.974  iso=     -0.002
                ---------------  ---------------  ---------------  ---------------
 J[15,17](Total)        128.047          128.616          142.683  iso=    133.115



-----------------------------------------------------------
 NUCLEUS A = C   15 NUCLEUS B = H   19 
 ( 13C  gnA =  1.405   1H  gnB =  5.586) r(AB) =     1.0967
-----------------------------------------------------------

Diamagnetic contribution to J (Hz):
       11.6507        -5.6488        0.0000
       -5.3171        -4.1465       -0.0000
       -0.0000         0.0000       -5.4641
Paramagnetic contribution to J (Hz):
       -7.9865         3.0044        0.0000
        3.4793         3.5620       -0.0000
       -0.0000        -0.0000        3.0715
Fermi-contact contribution to J (Hz):
      135.7214         0.0000        0.0000
        0.0000       135.7214        0.0000
        0.0000         0.0000      135.7214
Spin-dipolar contribution to J (Hz):
        2.1242        -1.5869        0.0000
       -1.2165        -1.1174       -0.0000
       -0.0000         0.0000        0.8718
Spin-dipolar/Fermi contact cross term contribution to J (Hz):
        2.8041        -0.9779        0.0000
       -0.9779        -0.0328       -0.0000
        0.0000        -0.0000       -2.7784

Total spin-spin coupling tensor J (Hz):
      144.3140        -5.2092        0.0000
       -4.0322       133.9868       -0.0000
        0.0000        -0.0000      131.4222

 Diagonalized JT*J matrix:
 
 J[15,19](DSO)           -5.464           -5.785           13.289  iso=      0.680
 J[15,19](PSO)            3.071            4.246           -8.671  iso=     -0.451
 J[15,19](FC)           135.721          135.721          135.721  iso=    135.721
 J[15,19](SD)             0.872           -1.639            2.646  iso=      0.626
 J[15,19](SD/FC)         -2.778           -0.322            3.094  iso=     -0.002
                ---------------  ---------------  ---------------  ---------------
 J[15,19](Total)        131.422          132.221          146.079  iso=    136.574



-----------------------------------------------------------
 NUCLEUS A = H   16 NUCLEUS B = H   18 
 (  1H  gnA =  5.586   1H  gnB =  5.586) r(AB) =     1.8617
-----------------------------------------------------------

Diamagnetic contribution to J (Hz):
       -2.6021       -12.4833        0.0000
       -2.9913        -0.3777       -0.0000
        0.0000        -0.0000       -6.4204
Paramagnetic contribution to J (Hz):
        0.8991         0.2549       -0.0000
        1.3746         0.7074        0.0000
        0.0000         0.0000        0.4010
Fermi-contact contribution to J (Hz):
       -2.4317         0.0000        0.0000
        0.0000        -2.4317        0.0000
        0.0000         0.0000       -2.4317
Spin-dipolar contribution to J (Hz):
        0.8442        -1.1721       -0.0000
        1.7910         0.7741       -0.0000
       -0.0000         0.0000       -0.1764
Spin-dipolar/Fermi contact cross term contribution to J (Hz):
       -2.1411         1.5951        0.0000
        1.5951        -2.5085       -0.0000
        0.0000        -0.0000        4.5923

Total spin-spin coupling tensor J (Hz):
       -5.4317       -11.8055       -0.0000
        1.7694        -3.8364       -0.0000
        0.0000        -0.0000       -4.0352

 Diagonalized JT*J matrix:
 
 J[16,18](DSO)            3.013           -6.420           -5.993  iso=     -3.133
 J[16,18](PSO)            0.314            0.401            1.293  iso=      0.669
 J[16,18](FC)            -2.432           -2.432           -2.432  iso=     -2.432
 J[16,18](SD)             0.622           -0.176            0.996  iso=      0.481
 J[16,18](SD/FC)         -3.286            4.592           -1.363  iso=     -0.019
                ---------------  ---------------  ---------------  ---------------
 J[16,18](Total)         -1.769           -4.035           -7.499  iso=     -4.434



-----------------------------------------------------------
 NUCLEUS A = H   17 NUCLEUS B = H   19 
 (  1H  gnA =  5.586   1H  gnB =  5.586) r(AB) =     1.8617
-----------------------------------------------------------

Diamagnetic contribution to J (Hz):
       -2.6021       -12.4833        0.0000
       -2.9913        -0.3777       -0.0000
        0.0000         0.0000       -6.4204
Paramagnetic contribution to J (Hz):
        0.8991         0.2549        0.0000
        1.3746         0.7074       -0.0000
       -0.0000        -0.0000        0.4010
Fermi-contact contribution to J (Hz):
       -2.4317         0.0000        0.0000
        0.0000        -2.4317        0.0000
        0.0000         0.0000       -2.4317
Spin-dipolar contribution to J (Hz):
        0.8442        -1.1721        0.0000
        1.7910         0.7741        0.0000
        0.0000        -0.0000       -0.1764
Spin-dipolar/Fermi contact cross term contribution to J (Hz):
       -2.1411         1.5951       -0.0000
        1.5951        -2.5085        0.0000
       -0.0000         0.0000        4.5923

Total spin-spin coupling tensor J (Hz):
       -5.4317       -11.8055        0.0000
        1.7694        -3.8364        0.0000
       -0.0000        -0.0000       -4.0352

 Diagonalized JT*J matrix:
 
 J[17,19](DSO)            3.013           -6.420           -5.993  iso=     -3.133
 J[17,19](PSO)            0.314            0.401            1.293  iso=      0.669
 J[17,19](FC)            -2.432           -2.432           -2.432  iso=     -2.432
 J[17,19](SD)             0.622           -0.176            0.996  iso=      0.481
 J[17,19](SD/FC)         -3.286            4.592           -1.363  iso=     -0.019
                ---------------  ---------------  ---------------  ---------------
 J[17,19](Total)         -1.769           -4.035           -7.499  iso=     -4.434



-----------------------------------------------------------------------------
                SUMMARY OF ISOTROPIC COUPLING CONSTANTS J (Hz)                
-----------------------------------------------------------------------------
                  0 C        1 C        2 C        3 C        4 C        5 C  
      0 C        0.000      9.473     45.453     -6.884     -6.993     46.077
      1 C        9.473      0.000     -6.884     45.453     46.077     -6.993
      2 C       45.453     -6.884      0.000      8.624     46.796     -6.273
      3 C       -6.884     45.453      8.624      0.000     -6.273     46.796
      4 C       -6.993     46.077     46.796     -6.273      0.000      8.727
      5 C       46.077     -6.993     -6.273     46.796      8.727      0.000
      6 H       -3.821      5.674    133.986     -2.771     -3.954      5.078
      7 H        5.674     -3.821     -2.771    133.986      5.078     -3.954
      8 H        5.639     -4.027     -4.083      5.218    133.618     -2.851
      9 H       -4.027      5.639      5.218     -4.083     -2.851    133.618
     10 C       -3.504     42.646      4.060     -2.631     -3.422      4.401
     11 C       42.646     -3.504     -2.631      4.060      4.401     -3.422
     12 H        0.652     -1.598     -0.585      2.351      4.052     -0.982
     13 H       -1.598      0.652      2.351     -0.585     -0.982      4.052
     14 C        0.000     -6.585     -2.956      6.011      5.580     -2.779
     15 C       -6.585      0.000      6.011     -2.956     -2.779      5.580
     16 H        0.000      5.084      1.049     -1.864     -1.820      0.000
     17 H        5.084      0.000     -1.864      1.049      0.000     -1.820
     18 H        0.000      8.707      0.000     -1.504     -1.914      0.000
     19 H        8.707      0.000     -1.504      0.000      0.000     -1.914
                  6 H        7 H        8 H        9 H       10 C       11 C  
      0 C       -3.821      5.674      5.639     -4.027     -3.504     42.646
      1 C        5.674     -3.821     -4.027      5.639     42.646     -3.504
      2 C      133.986     -2.771     -4.083      5.218      4.060     -2.631
      3 C       -2.771    133.986      5.218     -4.083     -2.631      4.060
      4 C       -3.954      5.078    133.618     -2.851     -3.422      4.401
      5 C        5.078     -3.954     -2.851    133.618      4.401     -3.422
      6 H        0.000      0.000      5.278     -0.542     -0.515      3.288
      7 H        0.000      0.000     -0.542      5.279      3.288     -0.515
      8 H        5.278     -0.542      0.000      0.000      2.700     -0.614
      9 H       -0.542      5.279      0.000      0.000     -0.614      2.700
     10 C       -0.515      3.288      2.700     -0.614      0.000      0.000
     11 C        3.288     -0.515     -0.614      2.700      0.000      0.000
     12 H        0.000      1.216     -2.167     -0.233    131.309      0.000
     13 H        1.216      0.000     -0.233     -2.167      0.000    131.309
     14 C        0.000     -1.679     -1.886      0.000     60.601      0.000
     15 C       -1.679      0.000      0.000     -1.886      0.000     60.601
     16 H       -0.569     -0.129      3.503      0.000     -9.790      0.000
     17 H       -0.129     -0.569      0.000      3.503      0.000     -9.790
     18 H        0.000      0.153     -0.285      0.000     -7.968      0.000
     19 H        0.153      0.000      0.000     -0.285      0.000     -7.968
                 12 H       13 H       14 C       15 C       16 H       17 H  
      0 C        0.652     -1.598      0.000     -6.585      0.000      5.084
      1 C       -1.598      0.652     -6.585      0.000      5.084      0.000
      2 C       -0.585      2.351     -2.956      6.011      1.049     -1.864
      3 C        2.351     -0.585      6.011     -2.956     -1.864      1.049
      4 C        4.052     -0.982      5.580     -2.779     -1.820      0.000
      5 C       -0.982      4.052     -2.779      5.580      0.000     -1.820
      6 H        0.000      1.216      0.000     -1.679     -0.569     -0.129
      7 H        1.216      0.000     -1.679      0.000     -0.129     -0.569
      8 H       -2.167     -0.233     -1.886      0.000      3.503      0.000
      9 H       -0.233     -2.167      0.000     -1.886      0.000      3.503
     10 C      131.309      0.000     60.601      0.000     -9.790      0.000
     11 C        0.000    131.309      0.000     60.601      0.000     -9.790
     12 H        0.000      0.000     -8.703      0.000     16.371      0.000
     13 H        0.000      0.000      0.000     -8.703      0.000     16.371
     14 C       -8.703      0.000      0.000      0.000    133.115      0.000
     15 C        0.000     -8.703      0.000      0.000      0.000    133.115
     16 H       16.371      0.000    133.115      0.000      0.000      0.000
     17 H        0.000     16.371      0.000    133.115      0.000      0.000
     18 H        8.586      0.000    136.574      0.000     -4.434      0.000
     19 H        0.000      8.586      0.000    136.574      0.000     -4.434
                 18 H       19 H  
      0 C        0.000      8.707
      1 C        8.707      0.000
      2 C        0.000     -1.504
      3 C       -1.504      0.000
      4 C       -1.914      0.000
      5 C        0.000     -1.914
      6 H        0.000      0.153
      7 H        0.153      0.000
      8 H       -0.285      0.000
      9 H        0.000     -0.285
     10 C       -7.968      0.000
     11 C        0.000     -7.968
     12 H        8.586      0.000
     13 H        0.000      8.586
     14 C      136.574      0.000
     15 C        0.000    136.574
     16 H       -4.434      0.000
     17 H        0.000     -4.434
     18 H        0.000      0.000
     19 H        0.000      0.000

NMR spin-spin coupling calculation done in   0.3 sec 

Maximum memory used throughout the entire PROP-calculation: 12.2 MB

--------------------------------
SUGGESTED CITATIONS FOR THIS RUN
--------------------------------

Below you find a list of papers that are relevant to this ORCA run
We neither can nor want to force you to cite these papers, but we appreciate if you do
You receive ORCA, which is the product of decades of hard work by many enthusiastic individuals, for free
The only thing we kindly ask in return is that you cite our papers,
We deeply appreciate it, if you show your appreciation for ORCA by not just citing the generic ORCA reference.

Please note that relegating all ORCA citations to the supporting information does *not* help us.
SI sections are not indexed - citations you put there will not count into any citation statistics
But we need these citations in order to attract the funding resources that allow us to do what we are doing

Therefore, if you are a happy ORCA user, please consider citing a few of the papers listed below in the main body of your paper

In addition to the list printed below, the program has created the file dvb_coupling_nmr.bibtex that contains the list in bibtex format
You can import this file easily into all common literature databanks and citation aid programs


List of essential papers. We consider these as the minimum necessary citations

  1. Neese,F.
     Software update: the ORCA program system, version 5.0
     WIRES Comput. Molec. Sci., 2022 12(1)e1606
     doi.org/10.1002/wcms.1606

List of papers to cite with high priority. The work reported in these papers was absolutely
necessary for this run to complete.
Our perspective: the developers of density functionals and basis sets usually get cited in chemistry papers
Good! But without the algorithms to do something with them, the functionals or basis sets would not do anything.
Hence, in our opinion, the algorithm design and method developments papers are equally worthy of getting cited

  1. Neese,F.
     An improvement of the resolution of the identity approximation for the formation of the Coulomb matrix
     J. Comp. Chem., 2003 24(14)1740-1747
     doi.org/10.1002/jcc.10318
  2. Neese,F.; Wennmohs,F.; Hansen,A.; Becker,U.
     Efficient, approximate and parallel Hartree-Fock and hybrid DFT calculations. A 'chain-of-spheres' algorithm for the Hartree-Fock exchange
     Chem. Phys., 2009 356(1-3)98-109
     doi.org/10.1016/j.chemphys.2008.10.036
  3. Stoychev,G.L.; Auer,A.A.; Izsak,R.; Neese,F.
     Self-Consistent Field Calculation of Nuclear Magnetic Resonance Chemical Shielding Constants Using Gauge-Including Atomic Orbitals and Approximate Two-Electron Integrals
     J. Chem. Theory Comput., 2018 14(2)619-637
     doi.org/10.1021/acs.jctc.7b01006
  4. Helmich-Paris,B.; de Souza,B.; Neese,F.; Izsák,R.
     An improved chain of spheres for exchange algorithm
     J. Chem. Phys., 2021 155 104109
     doi.org/doi: 10.1063/5.0058766.
  5. Neese,F.
     The SHARK Integral Generation and Digestion System
     J. Comp. Chem., 2022  1-16
     doi.org/10.1002/jcc.26942
  6. Grimme,S.; Bannwarth,C.; Dohm,S.; Hansen,A.; Pisarek,J.; Pracht,P.; Seibert,J.; Neese,F.
     Fully Automated Quantum-Chemistry-Based Computation of Spin-Spin-Coupled Nuclear Magnetic Resonance Spectra
     Angew. Chem., Int. Ed., 2017 56 14763-14769
     doi.org/10.1002/anie.201708266

List of suggested additional citations. These are papers that are important in the 'surrounding' of 
of this run, or papers that preceded the highly important papers. If you like your results we are grateful for a citation.

  1. Izsak,R.; Neese,F.
     An overlap fitted chain of spheres exchange method
     J. Chem. Phys., 2011 135 144105
     doi.org/10.1063/1.3646921
  2. Izsak,R.; Hansen,A.; Neese,F.
     The resolution of identity and chain of spheres approximations for the LPNO-CCSD singles Fock term
     Molec. Phys., 2012 110 2413-2417
     doi.org/10.1080/00268976.2012.687466
  3. Neese,F.
     The ORCA program system
     WIRES Comput. Molec. Sci., 2012 2(1)73-78
     doi.org/10.1002/wcms.81
  4. Izsak,R.; Neese,F.; Klopper,W.
     Robust fitting techniques in the chain of spheres approximation to the Fock exchange: The role of the complementary space
     J. Chem. Phys., 2013 139 
     doi.org/10.1063/1.4819264
  5. Neese,F.
     Software update: the ORCA program system, version 4.0
     WIRES Comput. Molec. Sci., 2018 8(1)1-6
     doi.org/10.1002/wcms.1327
  6. Neese,F.; Wennmohs,F.; Becker,U.; Riplinger,C.
     The ORCA quantum chemistry program package
     J. Chem. Phys., 2020 152 Art. No. L224108
     doi.org/10.1063/5.0004608

List of optional additional citations

  1. Neese,F.
     Approximate second-order SCF convergence for spin unrestricted wavefunctions
     Chem. Phys. Lett., 2000 325(1-3)93-98
     doi.org/10.1016/s0009-2614(00)00662-x

Timings for individual modules:

Sum of individual times          ...       27.990 sec (=   0.467 min)
Startup calculation              ...        4.519 sec (=   0.075 min)  16.1 %
SCF iterations                   ...        7.903 sec (=   0.132 min)  28.2 %
Property integrals               ...        3.151 sec (=   0.053 min)  11.3 %
SCF Response                     ...       10.773 sec (=   0.180 min)  38.5 %
Property calculations            ...        1.645 sec (=   0.027 min)   5.9 %
                             ****ORCA TERMINATED NORMALLY****
TOTAL RUN TIME: 0 days 0 hours 0 minutes 29 seconds 202 msec
