
                                        *****************
                                        * O   R   C   A *
                                        *****************

                                            #,                                       
                                            ###                                      
                                            ####                                     
                                            #####                                    
                                            ######                                   
                                           ########,                                 
                                     ,,################,,,,,                         
                               ,,#################################,,                 
                          ,,##########################################,,             
                       ,#########################################, ''#####,          
                    ,#############################################,,   '####,        
                  ,##################################################,,,,####,       
                ,###########''''           ''''###############################       
              ,#####''   ,,,,##########,,,,          '''####'''          '####       
            ,##' ,,,,###########################,,,                        '##       
           ' ,,###''''                  '''############,,,                           
         ,,##''                                '''############,,,,        ,,,,,,###''
      ,#''                                            '''#######################'''  
     '                                                          ''''####''''         
             ,#######,   #######,   ,#######,      ##                                
            ,#'     '#,  ##    ##  ,#'     '#,    #''#        ######   ,####,        
            ##       ##  ##   ,#'  ##            #'  '#       #        #'  '#        
            ##       ##  #######   ##           ,######,      #####,   #    #        
            '#,     ,#'  ##    ##  '#,     ,#' ,#      #,         ##   #,  ,#        
             '#######'   ##     ##  '#######'  #'      '#     #####' # '####'        



                  #######################################################
                  #                        -***-                        #
                  #          Department of theory and spectroscopy      #
                  #    Directorship and core code : Frank Neese         #
                  #        Max Planck Institute fuer Kohlenforschung    #
                  #                Kaiser Wilhelm Platz 1               #
                  #                 D-45470 Muelheim/Ruhr               #
                  #                      Germany                        #
                  #                                                     #
                  #                  All rights reserved                #
                  #                        -***-                        #
                  #######################################################


                         Program Version 5.0.0 -  RELEASE  -
                                (SVN: $Rev: 19529$)
                ($Date: 2021-06-28 11:36:33 +0200 (Mo, 28 Jun 2021) $)


 With contributions from (in alphabetic order):
   Daniel Aravena         : Magnetic Suceptibility
   Michael Atanasov       : Ab Initio Ligand Field Theory (pilot matlab implementation)
   Alexander A. Auer      : GIAO ZORA, VPT2 properties, NMR spectrum
   Ute Becker             : Parallelization
   Giovanni Bistoni       : ED, misc. LED, open-shell LED, HFLD
   Martin Brehm           : Molecular dynamics
   Dmytro Bykov           : SCF Hessian
   Vijay G. Chilkuri      : MRCI spin determinant printing, contributions to CSF-ICE
   Dipayan Datta          : RHF DLPNO-CCSD density
   Achintya Kumar Dutta   : EOM-CC, STEOM-CC
   Dmitry Ganyushin       : Spin-Orbit,Spin-Spin,Magnetic field MRCI
   Miquel Garcia          : C-PCM Hessian, Gaussian charge scheme
   Yang Guo               : DLPNO-NEVPT2, F12-NEVPT2, CIM, IAO-localization
   Andreas Hansen         : Spin unrestricted coupled pair/coupled cluster methods
   Benjamin Helmich-Paris : MC-RPA, TRAH-SCF, COSX integrals
   Lee Huntington         : MR-EOM, pCC
   Robert Izsak           : Overlap fitted RIJCOSX, COSX-SCS-MP3, EOM
   Marcus Kettner         : VPT2
   Christian Kollmar      : KDIIS, OOCD, Brueckner-CCSD(T), CCSD density, CASPT2, CASPT2-K
   Simone Kossmann        : Meta GGA functionals, TD-DFT gradient, OOMP2, MP2 Hessian
   Martin Krupicka        : Initial AUTO-CI
   Lucas Lang             : DCDCAS
   Marvin Lechner         : AUTO-CI (C++ implementation), FIC-MRCC
   Dagmar Lenk            : GEPOL surface, SMD
   Dimitrios Liakos       : Extrapolation schemes; Compound Job, initial MDCI parallelization
   Dimitrios Manganas     : Further ROCIS development; embedding schemes
   Dimitrios Pantazis     : SARC Basis sets
   Anastasios Papadopoulos: AUTO-CI, single reference methods and gradients
   Taras Petrenko         : DFT Hessian,TD-DFT gradient, ASA, ECA, R-Raman, ABS, FL, XAS/XES, NRVS
   Peter Pinski           : DLPNO-MP2, DLPNO-MP2 Gradient
   Christoph Reimann      : Effective Core Potentials
   Marius Retegan         : Local ZFS, SOC
   Christoph Riplinger    : Optimizer, TS searches, QM/MM, DLPNO-CCSD(T), (RO)-DLPNO pert. Triples
   Tobias Risthaus        : Range-separated hybrids, TD-DFT gradient, RPA, STAB
   Michael Roemelt        : Original ROCIS implementation
   Masaaki Saitow         : Open-shell DLPNO-CCSD energy and density
   Barbara Sandhoefer     : DKH picture change effects
   Avijit Sen             : IP-ROCIS
   Kantharuban Sivalingam : CASSCF convergence, NEVPT2, FIC-MRCI
   Bernardo de Souza      : ESD, SOC TD-DFT
   Georgi Stoychev        : AutoAux, RI-MP2 NMR
   Willem Van den Heuvel  : Paramagnetic NMR
   Boris Wezisla          : Elementary symmetry handling
   Frank Wennmohs         : Technical directorship


 We gratefully acknowledge several colleagues who have allowed us to
 interface, adapt or use parts of their codes:
   Stefan Grimme, W. Hujo, H. Kruse, P. Pracht,  : VdW corrections, initial TS optimization,
                  C. Bannwarth, S. Ehlert          DFT functionals, gCP, sTDA/sTD-DF
   Ed Valeev, F. Pavosevic, A. Kumar             : LibInt (2-el integral package), F12 methods
   Garnet Chan, S. Sharma, J. Yang, R. Olivares  : DMRG
   Ulf Ekstrom                                   : XCFun DFT Library
   Mihaly Kallay                                 : mrcc  (arbitrary order and MRCC methods)
   Jiri Pittner, Ondrej Demel                    : Mk-CCSD
   Frank Weinhold                                : gennbo (NPA and NBO analysis)
   Christopher J. Cramer and Donald G. Truhlar   : smd solvation model
   Lars Goerigk                                  : TD-DFT with DH, B97 family of functionals
   V. Asgeirsson, H. Jonsson                     : NEB implementation
   FAccTs GmbH                                   : IRC, NEB, NEB-TS, DLPNO-Multilevel, CI-OPT
                                                   MM, QMMM, 2- and 3-layer-ONIOM, Crystal-QMMM,
                                                   LR-CPCM, SF, NACMEs, symmetry and pop. for TD-DFT,
                                                   nearIR, NL-DFT gradient (VV10), updates on ESD,
                                                   ML-optimized integration grids
   S Lehtola, MJT Oliveira, MAL Marques          : LibXC Library
   Liviu Ungur et al                             : ANISO software


 Your calculation uses the libint2 library for the computation of 2-el integrals
 For citations please refer to: http://libint.valeyev.net

 Your ORCA version has been built with support for libXC version: 5.1.0
 For citations please refer to: https://tddft.org/programs/libxc/

 This ORCA versions uses:
   CBLAS   interface :  Fast vector & matrix operations
   LAPACKE interface :  Fast linear algebra routines
   SCALAPACK package :  Parallel linear algebra routines
   Shared memory     :  Shared parallel matrices
   BLAS/LAPACK       :  OpenBLAS 0.3.15  USE64BITINT DYNAMIC_ARCH NO_AFFINITY Haswell SINGLE_THREADED
        Core in use  :  Haswell
   Copyright (c) 2011-2014, The OpenBLAS Project


================================================================================

----- Orbital basis set information -----
Your calculation utilizes the basis: STO-3G
   H-Ne       : W. J. Hehre, R. F. Stewart and J. A. Pople, J. Chem. Phys. 2657 (1969).
   Na-Ar      : W. J. Hehre, R. Ditchfield, R. F. Stewart and J. A. Pople, J. Chem. Phys. 2769 (1970).
   K,Ca,Ga-Kr : W. J. Pietro, B. A. Levy, W. J. Hehre and R. F. Stewart, J. Am. Chem. Soc. 19, 2225 (1980).
   Sc-Zn,Y-Cd : W. J. Pietro and W. J. Hehre, J. Comp. Chem. 4, 241 (1983).

================================================================================
                                        WARNINGS
                       Please study these warnings very carefully!
================================================================================


INFO   : the flag for use of the SHARK integral package has been found!

================================================================================
                                       INPUT FILE
================================================================================
NAME = water_mp3.inp
|  1> ! MP3 STO-3G
|  2> 
|  3> %pal nprocs 4 end
|  4> 
|  5> %scf ConvForced True end
|  6> 
|  7> *xyz 0 1
|  8>   O      1.784914    1.262422    0.511985
|  9>   H      2.648237    1.072929    0.131631
| 10>   H      1.183168    1.256816   -0.238835
| 11> *
| 12> 
| 13>                          ****END OF INPUT****
================================================================================

                       ****************************
                       * Single Point Calculation *
                       ****************************

---------------------------------
CARTESIAN COORDINATES (ANGSTROEM)
---------------------------------
  O      1.784914    1.262422    0.511985
  H      2.648237    1.072929    0.131631
  H      1.183168    1.256816   -0.238835

----------------------------
CARTESIAN COORDINATES (A.U.)
----------------------------
  NO LB      ZA    FRAG     MASS         X           Y           Z
   0 O     8.0000    0    15.999    3.372999    2.385632    0.967511
   1 H     1.0000    0     1.008    5.004443    2.027542    0.248747
   2 H     1.0000    0     1.008    2.235863    2.375038   -0.451333

--------------------------------
INTERNAL COORDINATES (ANGSTROEM)
--------------------------------
 O      0   0   0     0.000000000000     0.00000000     0.00000000
 H      1   0   0     0.962238725418     0.00000000     0.00000000
 H      1   2   0     0.962216372835   104.56643206     0.00000000

---------------------------
INTERNAL COORDINATES (A.U.)
---------------------------
 O      0   0   0     0.000000000000     0.00000000     0.00000000
 H      1   0   0     1.818367666493     0.00000000     0.00000000
 H      1   2   0     1.818325426233   104.56643206     0.00000000

---------------------
BASIS SET INFORMATION
---------------------
There are 2 groups of distinct atoms

 Group   1 Type O   : 6s3p contracted to 2s1p pattern {33/3}
 Group   2 Type H   : 3s contracted to 1s pattern {3}

Atom   0O    basis set group =>   1
Atom   1H    basis set group =>   2
Atom   2H    basis set group =>   2


           ************************************************************
           *        Program running with 4 parallel MPI-processes     *
           *              working on a common directory               *
           ************************************************************
------------------------------------------------------------------------------
                           ORCA GTO INTEGRAL CALCULATION
------------------------------------------------------------------------------
------------------------------------------------------------------------------
                   ___                                                        
                  /   \      - P O W E R E D   B Y -                         
                 /     \                                                     
                 |  |  |   _    _      __       _____    __    __             
                 |  |  |  | |  | |    /  \     |  _  \  |  |  /  |          
                  \  \/   | |  | |   /    \    | | | |  |  | /  /          
                 / \  \   | |__| |  /  /\  \   | |_| |  |  |/  /          
                |  |  |   |  __  | /  /__\  \  |    /   |      \           
                |  |  |   | |  | | |   __   |  |    \   |  |\   \          
                \     /   | |  | | |  |  |  |  | |\  \  |  | \   \       
                 \___/    |_|  |_| |__|  |__|  |_| \__\ |__|  \__/        
                                                                              
                      - O R C A' S   B I G   F R I E N D -                    
                                      &                                       
                       - I N T E G R A L  F E E D E R -                       
                                                                              
 v1 FN, 2020, v2 2021                                                         
------------------------------------------------------------------------------


Reading SHARK input file water_mp3.SHARKINP.tmp ... ok
----------------------
SHARK INTEGRAL PACKAGE
----------------------

Number of atoms                             ...      3
Number of basis functions                   ...      7
Number of shells                            ...      5
Maximum angular momentum                    ...      1
Integral batch strategy                     ... SHARK/LIBINT Hybrid
RI-J (if used) integral strategy            ... SPLIT-RIJ (Revised 2003 algorithm where possible)
Printlevel                                  ...      1
Contraction scheme used                     ... SEGMENTED contraction
Coulomb Range Separation                    ... NOT USED
Exchange Range Separation                   ... NOT USED
Finite Nucleus Model                        ... NOT USED
Auxiliary Coulomb fitting basis             ... NOT available
Auxiliary J/K fitting basis                 ... NOT available
Auxiliary Correlation fitting basis         ... NOT available
Auxiliary 'external' fitting basis          ... NOT available
Integral threshold                          ...     1.000000e-10
Primitive cut-off                           ...     1.000000e-11
Primitive pair pre-selection threshold      ...     1.000000e-11

Calculating pre-screening integrals         ... done (  0.0 sec) Dimension = 5
Organizing shell pair data                  ... done (  0.0 sec)
Shell pair information
Total number of shell pairs                 ...        15
Shell pairs after pre-screening             ...        15
Total number of primitive shell pairs       ...       135
Primitive shell pairs kept                  ...       135
          la=0 lb=0:     10 shell pairs
          la=1 lb=0:      4 shell pairs
          la=1 lb=1:      1 shell pairs

Calculating one electron integrals          ... done (  0.0 sec)
Calculating Nuclear repulsion               ... done (  0.0 sec) ENN=      9.146812987207 Eh

SHARK setup successfully completed in   0.0 seconds

Maximum memory used throughout the entire GTOINT-calculation: 3.8 MB


           ************************************************************
           *        Program running with 4 parallel MPI-processes     *
           *              working on a common directory               *
           ************************************************************
-------------------------------------------------------------------------------
                                 ORCA SCF
-------------------------------------------------------------------------------

------------
SCF SETTINGS
------------
Hamiltonian:
 Ab initio Hamiltonian  Method          .... Hartree-Fock(GTOs)


General Settings:
 Integral files         IntName         .... water_mp3
 Hartree-Fock type      HFTyp           .... RHF
 Total Charge           Charge          ....    0
 Multiplicity           Mult            ....    1
 Number of Electrons    NEL             ....   10
 Basis Dimension        Dim             ....    7
 Nuclear Repulsion      ENuc            ....      9.1468129872 Eh

Convergence Acceleration:
 DIIS                   CNVDIIS         .... on
   Start iteration      DIISMaxIt       ....    12
   Startup error        DIISStart       ....  0.200000
   # of expansion vecs  DIISMaxEq       ....     5
   Bias factor          DIISBfac        ....   1.050
   Max. coefficient     DIISMaxC        ....  10.000
 Trust-Rad. Augm. Hess. CNVTRAH         .... auto
   Auto Start mean grad. ratio tolernc. ....  1.125000
   Auto Start start iteration           ....    20
   Auto Start num. interpolation iter.  ....    10
   Max. Number of Micro iterations      ....    16
   Max. Number of Macro iterations      .... Maxiter - #DIIS iter
   Number of Davidson start vectors     ....     2
   Converg. threshold I  (grad. norm)   ....   5.000e-05
   Converg. threshold II (energy diff.) ....   1.000e-06
   Grad. Scal. Fac. for Micro threshold ....   0.100
   Minimum threshold for Micro iter.    ....   0.010
   NR start threshold (gradient norm)   ....   0.001
   Initial trust radius                 ....   0.400
   Minimum AH scaling param. (alpha)    ....   1.000
   Maximum AH scaling param. (alpha)    .... 1000.000
   Orbital update algorithm             .... Taylor
   White noise on init. David. guess    .... on
   Maximum white noise                  ....   0.010
   Quad. conv. algorithm                .... NR
 SOSCF                  CNVSOSCF        .... on
   Start iteration      SOSCFMaxIt      ....   150
   Startup grad/error   SOSCFStart      ....  0.003300
 Level Shifting         CNVShift        .... on
   Level shift para.    LevelShift      ....    0.2500
   Turn off err/grad.   ShiftErr        ....    0.0010
 Zerner damping         CNVZerner       .... off
 Static damping         CNVDamp         .... on
   Fraction old density DampFac         ....    0.7000
   Max. Damping (<1)    DampMax         ....    0.9800
   Min. Damping (>=0)   DampMin         ....    0.0000
   Turn off err/grad.   DampErr         ....    0.1000
 Fernandez-Rico         CNVRico         .... off

SCF Procedure:
 Maximum # iterations   MaxIter         ....   125
 SCF integral mode      SCFMode         .... Direct
   Integral package                     .... SHARK and LIBINT hybrid scheme
 Reset frequency        DirectResetFreq ....    20
 Integral Threshold     Thresh          ....  1.000e-10 Eh
 Primitive CutOff       TCut            ....  1.000e-11 Eh

Convergence Tolerance:
 Convergence Check Mode ConvCheckMode   .... Total+1el-Energy
 Convergence forced     ConvForced      .... 1
 Energy Change          TolE            ....  1.000e-06 Eh
 1-El. energy change                    ....  1.000e-03 Eh
 Orbital Gradient       TolG            ....  5.000e-05
 Orbital Rotation angle TolX            ....  5.000e-05
 DIIS Error             TolErr          ....  1.000e-06


Diagonalization of the overlap matrix:
Smallest eigenvalue                        ... 3.455e-01
Time for diagonalization                   ...    0.000 sec
Threshold for overlap eigenvalues          ... 1.000e-08
Number of eigenvalues below threshold      ... 0
Time for construction of square roots      ...    0.001 sec
Total time needed                          ...    0.001 sec

Time for model grid setup =    0.006 sec

------------------------------
INITIAL GUESS: MODEL POTENTIAL
------------------------------
Loading Hartree-Fock densities                     ... done
Calculating cut-offs                               ... done
Initializing the effective Hamiltonian             ... done
Setting up the integral package (SHARK)            ... done
Starting the Coulomb interaction                   ... done (   0.0 sec)
Reading the grid                                   ... done
Mapping shells                                     ... done
Starting the XC term evaluation                    ... done (   0.0 sec)
Transforming the Hamiltonian                       ... done (   0.0 sec)
Diagonalizing the Hamiltonian                      ... done (   0.0 sec)
Back transforming the eigenvectors                 ... done (   0.0 sec)
Now organizing SCF variables                       ... done
                      ------------------
                      INITIAL GUESS DONE (   0.0 sec)
                      ------------------
--------------
SCF ITERATIONS
--------------
ITER       Energy         Delta-E        Max-DP      RMS-DP      [F,P]     Damp
               ***  Starting incremental Fock matrix formation  ***
  0    -74.9043925498   0.000000000000 0.07436164  0.01858097  0.1929404 0.7000
  1    -74.9223358156  -0.017943265847 0.06241615  0.01591166  0.1422203 0.7000
                               ***Turning on DIIS***
  2    -74.9350004708  -0.012664655215 0.14875403  0.03818494  0.0989687 0.0000
  3    -74.9406566962  -0.005656225355 0.01233193  0.00243979  0.0076931 0.0000
                      *** Initiating the SOSCF procedure ***
                           *** Shutting down DIIS ***
                      *** Re-Reading the Fockian *** 
                      *** Removing any level shift *** 
ITER      Energy       Delta-E        Grad      Rot      Max-DP    RMS-DP
  4    -74.95946240  -0.0188056992  0.002948  0.002948  0.005576  0.000960
               *** Restarting incremental Fock matrix formation ***
  5    -74.96357318  -0.0041107856  0.000572  0.000392  0.001632  0.000306
                 **** Energy Check signals convergence ****
              ***Rediagonalizing the Fockian in SOSCF/NRSCF***

               *****************************************************
               *                     SUCCESS                       *
               *           SCF CONVERGED AFTER   6 CYCLES          *
               *****************************************************


----------------
TOTAL SCF ENERGY
----------------

Total Energy       :          -74.96357410 Eh           -2039.86256 eV

Components:
Nuclear Repulsion  :            9.14681299 Eh             248.89744 eV
Electronic Energy  :          -84.11038709 Eh           -2288.75999 eV
One Electron Energy:         -122.28764579 Eh           -3327.61601 eV
Two Electron Energy:           38.17725871 Eh            1038.85602 eV

Virial components:
Potential Energy   :         -149.54075313 Eh           -4069.21077 eV
Kinetic Energy     :           74.57717903 Eh            2029.34821 eV
Virial Ratio       :            2.00518114


---------------
SCF CONVERGENCE
---------------

  Last Energy change         ...   -9.1771e-07  Tolerance :   1.0000e-06
  Last MAX-Density change    ...    8.6153e-04  Tolerance :   1.0000e-05
  Last RMS-Density change    ...    1.8044e-04  Tolerance :   1.0000e-06
  Last Orbital Gradient      ...    1.8587e-04  Tolerance :   5.0000e-05
  Last Orbital Rotation      ...    2.7832e-04  Tolerance :   5.0000e-05

             **** THE GBW FILE WAS UPDATED (water_mp3.gbw) ****
             **** DENSITY water_mp3.scfp WAS UPDATED ****
             **** ENERGY FILE WAS UPDATED (water_mp3.en.tmp) ****
             **** THE GBW FILE WAS UPDATED (water_mp3.gbw) ****
             **** DENSITY water_mp3.scfp WAS UPDATED ****
----------------
ORBITAL ENERGIES
----------------

  NO   OCC          E(Eh)            E(eV) 
   0   2.0000     -20.242233      -550.8192 
   1   2.0000      -1.265747       -34.4427 
   2   2.0000      -0.615339       -16.7442 
   3   2.0000      -0.452291       -12.3075 
   4   2.0000      -0.390844       -10.6354 
   5   0.0000       0.600569        16.3423 
   6   0.0000       0.736617        20.0444 

                    ********************************
                    * MULLIKEN POPULATION ANALYSIS *
                    ********************************

-----------------------
MULLIKEN ATOMIC CHARGES
-----------------------
   0 O :   -0.361723
   1 H :    0.180857
   2 H :    0.180866
Sum of atomic charges:   -0.0000000

--------------------------------
MULLIKEN REDUCED ORBITAL CHARGES
--------------------------------
  0 O s       :     3.828439  s :     3.828439
      pz      :     1.449933  p :     4.533284
      px      :     1.111652
      py      :     1.971698
  1 H s       :     0.819143  s :     0.819143
  2 H s       :     0.819134  s :     0.819134


                     *******************************
                     * LOEWDIN POPULATION ANALYSIS *
                     *******************************

----------------------
LOEWDIN ATOMIC CHARGES
----------------------
   0 O :   -0.250698
   1 H :    0.125347
   2 H :    0.125351

-------------------------------
LOEWDIN REDUCED ORBITAL CHARGES
-------------------------------
  0 O s       :     3.675400  s :     3.675400
      pz      :     1.463598  p :     4.575298
      px      :     1.139222
      py      :     1.972478
  1 H s       :     0.874653  s :     0.874653
  2 H s       :     0.874649  s :     0.874649


                      *****************************
                      * MAYER POPULATION ANALYSIS *
                      *****************************

  NA   - Mulliken gross atomic population
  ZA   - Total nuclear charge
  QA   - Mulliken gross atomic charge
  VA   - Mayer's total valence
  BVA  - Mayer's bonded valence
  FA   - Mayer's free valence

  ATOM       NA         ZA         QA         VA         BVA        FA
  0 O      8.3617     8.0000    -0.3617     1.9097     1.9097    -0.0000
  1 H      0.8191     1.0000     0.1809     0.9673     0.9673    -0.0000
  2 H      0.8191     1.0000     0.1809     0.9673     0.9673    -0.0000

  Mayer bond orders larger than 0.100000
B(  0-O ,  1-H ) :   0.9549 B(  0-O ,  2-H ) :   0.9549 

-------
TIMINGS
-------

Total SCF time: 0 days 0 hours 0 min 0 sec 

Total time                  ....       0.123 sec
Sum of individual times     ....       0.026 sec  ( 21.0%)

Fock matrix formation       ....       0.010 sec  (  8.3%)
Diagonalization             ....       0.002 sec  (  1.9%)
Density matrix formation    ....       0.000 sec  (  0.1%)
Population analysis         ....       0.001 sec  (  0.6%)
Initial guess               ....       0.002 sec  (  2.0%)
Orbital Transformation      ....       0.000 sec  (  0.0%)
Orbital Orthonormalization  ....       0.000 sec  (  0.0%)
DIIS solution               ....       0.003 sec  (  2.8%)
SOSCF solution              ....       0.001 sec  (  0.8%)

Maximum memory used throughout the entire SCF-calculation: 223.5 MB


           ************************************************************
           *        Program running with 4 parallel MPI-processes     *
           *              working on a common directory               *
           ************************************************************


------------------------------------------------------------------------------- 
                              ORCA-MATRIX DRIVEN CI                            
------------------------------------------------------------------------------- 

--------------------------------
AUTOMATIC CHOICE OF INCORE LEVEL
--------------------------------

Memory available                           ...    256.00 MB
Memory needed for S+T                      ...      0.00 MB
Memory needed for J+K                      ...      0.00 MB
Memory needed for DIIS                     ...      0.01 MB
Memory needed for 3-ext                    ...      0.00 MB
Memory needed for 4-ext                    ...      0.00 MB
Memory needed for triples                  ...      0.00 MB
 -> Final InCoreLevel    ... 5

Wavefunction type
-----------------
Correlation treatment                      ...      MP       
Order of perturbation theory               ... 3
Single excitations                         ... OFF
Orbital optimization                       ... OFF
Calculation of Brueckner orbitals          ... OFF
Perturbative triple excitations            ... OFF
Calculation of F12 correction              ... OFF
Frozen core treatment                      ... chemical core (2 el)
Reference Wavefunction                     ... RHF
  Internal Orbitals:     1 ...    4 (  4 MO's/  8 electrons)
  Virtual  Orbitals:     5 ...    6 (  2 MO's              )
Number of AO's                             ...      7
Number of electrons                        ...     10
Number of correlated electrons             ...      8

Algorithmic settings
--------------------
Integral transformation                    ... AO direct full transformation
K(C) Formation                             ... FULL-MO TRAFO
Maximum number of iterations               ...        50
Convergence tolerance (max. residuum)      ... 2.500e-05
Level shift for amplitude update           ... 2.000e-01
Maximum number of DIIS vectors             ...         7
DIIS turned on at iteration                ...         0
Damping before turning on DIIS             ...     0.500
Damping after turning on DIIS              ...     0.000
Pair specific amplitude update             ... OFF
Natural orbital iterations                 ... OFF
Perturbative natural orbital generation    ... OFF
Printlevel                                 ... 2

Memory handling:
----------------
Maximum memory for working arrays          ...    256 MB
Data storage in matrix containers          ... UNCOMPRESSED
Data type for integral storage             ... DOUBLE
In-Core Storage of quantities:
   Amplitudes+Sigma Vector      ... YES
   J+K operators                ... YES
   DIIS vectors                 ... YES
   3-external integrals         ... YES
   4-external integrals         ... YES


Initializing the integral package          ... done
Warning: reference  - re-canonicalizations have been set to INT 1 VIRT 1

--------------------------
CLOSED-SHELL FOCK OPERATOR
--------------------------

Restoring SHARK [2] ... ok
Recanonicalizing the internal orbitals
Recanonicalizing the virtual orbitals
<ss|**>: Time needed for Fock operator              ...            0.096 sec
Reference energy                           ...    -74.963574242

------------------------------
PARTIAL COULOMB TRANSFORMATION
------------------------------

Transformation type                        ... one-operator
Dimension of the basis                     ...    7
Number of internal MOs                     ...    6 (1-6)
Pair cutoff                                ... 0.000e+00 Eh
Number of AO pairs included in the trafo   ...   28
Total Number of distinct AO pairs          ...   28
Memory devoted for trafo                   ...  256.0 MB 
Max. Number of MO pairs treated together   ... 1198372      
Max. Number of MOs treated per batch       ... 171196      
Number Format for Storage                  ... Double (8 Byte)
AO-integral source                         ... DIRECT
Integral package used                      ... LIBINT

Starting integral evaluation:
<pp|**>: <sp|**>:          150 b        0 skpd     0.049 s (  0.328 ms/b)
          60 b        0 skpd     0.000 s (  0.002 ms/b)
          15 b        0 skpd     0.007 s (  0.474 ms/b)
Closing buffer AOJ ( 0.00 GB; CompressionRatio= 0.93)
Collecting buffer AOJ 
    ... done with AO integral generation
Number of MO pairs included in the trafo   ...   21
    ... Now sorting integrals
IBATCH = 1 of  1
Closing buffer JAO ( 0.00 GB; CompressionRatio= 0.95)
Collecting buffer JAO 
TOTAL TIME for half transformation         ...     0.057 sec
AO-integral generation                     ...     0.056 sec
Half transformation                        ...     0.000 sec
J-integral sorting                         ...     0.000 sec

-------------------------- SECOND HALF TRANSFORMATION -------------------------
Formation of (pq|rs)                       ... ok (     0.000 sec)
Integral sorting                           ... ok (     0.000 sec)

----------------------
MOELLER-PLESSET THEORY
----------------------

Making MP2 energy and amplitudes       ...     0.000 sec
Number of amplitudes                   ... 40
Forming H*T(1)                         ...     0.000 sec
E(MP2)  =    -74.999374371   EC(MP2)=    -0.035800128
E(MP3)  =    -75.009120634   EC(MP3)=    -0.045546392  E3=    -0.009746263
------------------
LARGEST AMPLITUDES
------------------
   2->  6   2->  6       0.056463
   3->  5   3->  5       0.032998
   3->  5   2->  6       0.032905
   2->  5   2->  5       0.029259
   3->  6   3->  6       0.029020
   1->  5   1->  5       0.027235
   2->  6   1->  5       0.023787
   3->  5   1->  5       0.020917
   4->  5   4->  5       0.019394
   3->  6   2->  5       0.018627
   1->  6   1->  6       0.015510
   2->  5   1->  6       0.010933
   4->  6   4->  6       0.010815
   3->  6   1->  6       0.005239
   3->  5   2->  5       0.000005
   3->  6   2->  6       0.000004



------------------------------------------------------------------------------- 
                                     TIMINGS                                   
------------------------------------------------------------------------------- 


Total execution time                   ...        0.297 sec

Fock Matrix Formation                  ...        0.096 sec ( 32.2%)
Initial Guess                          ...        0.000 sec (  0.0%)
Sigma-vector construction              ...        0.000 sec (  0.1%)


Maximum memory used throughout the entire MDCI-calculation: 44.6 MB

-------------------------   --------------------
FINAL SINGLE POINT ENERGY       -75.009120633869
-------------------------   --------------------


                            ***************************************
                            *     ORCA property calculations      *
                            ***************************************

                                    ---------------------
                                    Active property flags
                                    ---------------------
   (+) Dipole Moment


------------------------------------------------------------------------------
                       ORCA ELECTRIC PROPERTIES CALCULATION
------------------------------------------------------------------------------

Dipole Moment Calculation                       ... on
Quadrupole Moment Calculation                   ... off
Polarizability Calculation                      ... off
GBWName                                         ... water_mp3.gbw
Electron density file                           ... water_mp3.scfp
The origin for moment calculation is the CENTER OF MASS  = ( 3.400657,  2.365003  0.847905)

-------------
DIPOLE MOMENT
-------------
                                X             Y             Z
Electronic contribution:     -0.06749       0.05033       0.29178
Nuclear contribution   :      0.21773      -0.16239      -0.94154
                        -----------------------------------------
Total Dipole Moment    :      0.15024      -0.11207      -0.64976
                        -----------------------------------------
Magnitude (a.u.)       :      0.67625
Magnitude (Debye)      :      1.71890



--------------------
Rotational spectrum 
--------------------
 
Rotational constants in cm-1:    27.172637    14.432751     9.426085 
Rotational constants in MHz : 814615.168427 432682.991980 282586.906303 

 Dipole components along the rotational axes: 
x,y,z [a.u.] :     0.000020    -0.676254    -0.000000 
x,y,z [Debye]:     0.000051    -1.718900    -0.000001 

 

Timings for individual modules:

Sum of individual times         ...        4.612 sec (=   0.077 min)
GTO integral calculation        ...        1.323 sec (=   0.022 min)  28.7 %
SCF iterations                  ...        1.418 sec (=   0.024 min)  30.7 %
MDCI module                     ...        1.871 sec (=   0.031 min)  40.6 %
                             ****ORCA TERMINATED NORMALLY****
TOTAL RUN TIME: 0 days 0 hours 0 minutes 5 seconds 944 msec
