
 Primary working directories    : /tmp/molpro.278Lc3940A
 Secondary working directories  : /tmp/molpro.278Lc3940A
 Wavefunction directory         : /home/eric/wfu/
 Main file repository           : /tmp/molpro.278Lc3940A/

 id        : cfopitt

 Nodes     nprocs
 osmium       1

 Using customized tuning parameters: mindgm=1; mindgv=20; mindgc=4; mindgr=1; noblas=0; minvec=7
 default implementation of scratch files=df  


 Variables initialized (930), CPU time= 0.00 sec
 ***,tryptophan static polarizability
 
 basis, STO-3G
 
 geometry={
 N     -0.0699826875    0.3321987191    0.2821283177
 C      1.3728035449    0.0970713322   -0.0129587739
 C      2.0969275417   -0.0523593054    1.3682652221
 O      3.1382490088   -0.6563684788    1.5380162924
 C      1.9529664597    1.3136139853   -0.7956021969
 H      1.8442727348    2.2050605044   -0.1801631789
 H      1.3455899915    1.4594935008   -1.6885689523
 C      3.4053646872    1.1270611844   -1.1918075237
 C      4.4845249667    1.6235038050   -0.5598918002
 N      5.6509089647    1.2379326369   -1.2284610654
 H      6.6009314349    1.4112351003   -0.9028629397
 C      5.2921619642    0.4356274269   -2.3131617003
 C      3.8942019475    0.3557998019   -2.3263315791
 C      3.2659168792   -0.3832607567   -3.3431309548
 H      2.1864306677   -0.4577058843   -3.3815918670
 C      4.0381762333   -1.0087512639   -4.2870993776
 H      3.5696890585   -1.5824763141   -5.0755609734
 C      5.4445159165   -0.9194874753   -4.2519002882
 H      6.0229926396   -1.4277973542   -5.0130007062
 C      6.0869576238   -0.2024044961   -3.2767702726
 H      7.1656650647   -0.1287762497   -3.2458650647
 H      4.5457621618    2.2425310766    0.3253979653
 H     -0.5159777859    0.7478905868   -0.5487661007
 H      1.5420526570   -0.8143939718   -0.5935463196
 H     -0.5302278747   -0.5823989653    0.4084507634
 O      1.4575846656    0.5996887308    2.4093500287
 H      0.5990015339    0.8842421241    2.0047830456
 }
 
 {rhf
 wf,108,1,0
 polarizability}
 
 Commands  initialized (760), CPU time= 0.01 sec, 617 directives.
 Default parameters read. Elapsed time= 0.03 sec

 Checking input...
 Passed
1


                                         ***  PROGRAM SYSTEM MOLPRO  ***
                                       Copyright, TTI GmbH Stuttgart, 2015
                                    Version 2018.2 linked Nov 10 2018 21:55:55


 **********************************************************************************************************************************
 LABEL *   tryptophan static polarizability                                              
  64 bit serial version                                                                  DATE: 16-May-19          TIME: 22:42:27  
 **********************************************************************************************************************************

 SHA1:             5ea806b172b3d20b18658228ad0b1c212d33fc17
 **********************************************************************************************************************************

 Variable memory set to    8000000 words,  buffer space 

 SETTING BASIS          =    STO-3G

Geometry recognized as XYZ



 Recomputing integrals since basis changed


 Using spherical harmonics

 Library entry N      S STO-3G               selected for orbital group  1
 Library entry N      P STO-3G               selected for orbital group  1
 Library entry C      S STO-3G               selected for orbital group  2
 Library entry C      P STO-3G               selected for orbital group  2
 Library entry O      S STO-3G               selected for orbital group  3
 Library entry O      P STO-3G               selected for orbital group  3
 Library entry H      S STO-3G               selected for orbital group  5


 PROGRAM * SEWARD (Integral evaluation for generally contracted gaussian basis sets)     Author: Roland Lindh, 1990

 Geometry written to block  1 of record 700


 Point group  C1  



 ATOMIC COORDINATES

 NR  ATOM    CHARGE       X              Y              Z

   1  N       7.00   -0.132248113    0.627764598    0.533145252
   2  C       6.00    2.594222723    0.183438232   -0.024488534
   3  C       6.00    3.962618757   -0.098944747    2.585646536
   4  O       8.00    5.930431137   -1.240356662    2.906429568
   5  C       6.00    3.690571739    2.482370666   -1.503470256
   6  H       1.00    3.485170368    4.166960441   -0.340459066
   7  H       1.00    2.542796560    2.758042997   -3.190932862
   8  C       6.00    6.435206613    2.129836964   -2.252189813
   9  C       6.00    8.474523986    3.067977554   -1.058042162
  10  N       7.00   10.678670298    2.339353644   -2.321454968
  11  H       1.00   12.473952579    2.666847837   -1.706163684
  12  C       6.00   10.000736719    0.823216529   -4.371242095
  13  C       6.00    7.358975155    0.672364181   -4.396129559
  14  C       6.00    6.171688447   -0.724257864   -6.317601903
  15  H       1.00    4.131755152   -0.864938767   -6.390282494
  16  C       6.00    7.631047124   -1.906263617   -8.101443692
  17  H       1.00    6.745734670   -2.990446832   -9.591420168
  18  C       6.00   10.288643963   -1.737579503   -8.034927054
  19  H       1.00   11.381806539   -2.698145961   -9.473198397
  20  C       6.00   11.502682841   -0.382489064   -6.192198388
  21  H       1.00   13.541144473   -0.243351843   -6.133796010
  22  H       1.00    8.590245513    4.237769561    0.614913036
  23  H       1.00   -0.975056702    1.413308380   -1.037017637
  24  H       1.00    2.914057191   -1.538981564   -1.121639986
  25  H       1.00   -1.001985467   -1.100574540    0.771860078
  26  O       8.00    2.754435821    1.133247461    4.553011692
  27  H       1.00    1.131948847    1.670975442    3.788490895

 Bond lengths in Bohr (Angstrom)

  1- 2  2.818159785   1-23  1.947515558   1-25  1.949508658   2- 3  2.960583208   2- 5  2.945243357
       ( 1.491305935)       ( 1.030580851)       ( 1.031635554)       ( 1.566673165)       ( 1.558555665)

  2-24  2.067066848   3- 4  2.297391668   3-26  2.616969489   5- 6  2.057335040   5- 7  2.059347747
       ( 1.093844669)       ( 1.215727315)       ( 1.384840615)       ( 1.088694818)       ( 1.089759897)

  5- 8  2.866684771   8- 9  2.542619068   8-13  2.752099720   9-10  2.642984239   9-22  2.044647624
       ( 1.516984252)       ( 1.345496067)       ( 1.456348454)       ( 1.398607028)       ( 1.081980927)

 10-11  1.925843784  10-12  2.638160904  12-13  2.646182152  12-20  2.650556536  13-14  2.655608938
       ( 1.019112642)       ( 1.396054629)       ( 1.400299291)       ( 1.402614115)       ( 1.405287731)

 14-15  2.046069753  14-16  2.590165414  16-17  2.044324163  16-18  2.663775470  18-19  2.046049069
       ( 1.082733485)       ( 1.370656510)       ( 1.081809759)       ( 1.409609274)       ( 1.082722540)

 18-20  2.589557767  20-21  2.044039097  26-27  1.872460256
       ( 1.370334957)       ( 1.081658908)       ( 0.990863296)

 Bond angles

  1- 2- 3  106.72365981   1- 2- 5  109.65946420   1- 2-24  112.71190527   2- 1-23  108.82899117

  2- 1-25  108.42525869   2- 3- 4  124.49866572   2- 3-26  113.85897902   2- 5- 6  108.54820143

  2- 5- 7  107.96863095   2- 5- 8  113.05156549   3- 2- 5  110.18884344   3- 2-24  108.47881951

  3-26-27  103.19754197   4- 3-26  121.62807433   5- 2-24  109.04326172   5- 8- 9  126.86047805

  5- 8-13  126.15411066   6- 5- 7  107.33513172   6- 5- 8  110.11637915   7- 5- 8  109.63742963

  8- 9-10  110.03893321   8- 9-22  129.84880591   8-13-12  107.31241276   8-13-14  133.79731316

  9- 8-13  106.98077645   9-10-11  125.29720162   9-10-12  108.39355884  10- 9-22  120.10924774

 10-12-13  107.25423583  10-12-20  130.51121961  11-10-12  125.83947343  12-13-14  118.88974334

 12-20-18  117.46811633  12-20-21  120.96494720  13-12-20  122.22958282  13-14-15  120.50461100

 13-14-16  119.10475913  14-16-17  119.99794868  14-16-18  121.06570423  15-14-16  120.39061954

 16-18-19  119.06212765  16-18-20  121.24108189  17-16-18  118.93634686  18-20-21  121.56690043

 19-18-20  119.69672437  23- 1-25  105.26305984

 NUCLEAR CHARGE:                  108
 NUMBER OF PRIMITIVE AOS:         261
 NUMBER OF SYMMETRY AOS:          261
 NUMBER OF CONTRACTIONS:           87   (   87A   )
 NUMBER OF CORE ORBITALS:          15   (   15A   )
 NUMBER OF VALENCE ORBITALS:       72   (   72A   )


 NUCLEAR REPULSION ENERGY  957.10633481


 Eigenvalues of metric

         1 0.169E+00 0.181E+00 0.203E+00 0.206E+00 0.215E+00 0.240E+00 0.244E+00 0.253E+00


 Contracted 2-electron integrals neglected if value below      1.0D-11
 AO integral compression algorithm  1   Integral accuracy      1.0D-11

     25.428 MB (compressed) written to integral file ( 48.0%)


 NUMBER OF SORTED TWO-ELECTRON INTEGRALS:    7328706.     BUFFER LENGTH:  32768
 NUMBER OF SEGMENTS:   2  SEGMENT LENGTH:    7324878      RECORD LENGTH: 524288

 Memory used in sort:       7.88 MW

 SORT1 READ     6582131. AND WROTE     4767414. INTEGRALS IN     15 RECORDS. CPU TIME:     0.09 SEC, REAL TIME:     0.10 SEC
 SORT2 READ     4767414. AND WROTE     7328706. INTEGRALS IN     97 RECORDS. CPU TIME:     0.10 SEC, REAL TIME:     0.11 SEC

 FILE SIZES:   FILE 1:    56.1 MBYTE,  FILE 4:    62.9 MBYTE,   TOTAL:    119.1 MBYTE

 OPERATOR DM      FOR CENTER  0  COORDINATES:    0.000000    0.000000    0.000000


 **********************************************************************************************************************************
 DATASETS  * FILE   NREC   LENGTH (MB)   RECORD NAMES
              1      19       46.43       500      610      700      900      950      970     1000      129      960     1100   
                                          VAR    BASINP    GEOM    SYMINP    ZMAT    AOBASIS   BASIS     P2S    ABASIS      S 
                                         1400     1410     1200     1210     1080     1600     1650     1300     1700   
                                           T        V       H0       H01     AOSYM     SMH    MOLCAS    ERIS     OPER   

 PROGRAMS   *        TOTAL       INT
 CPU TIMES  *         1.85      1.77
 REAL TIME  *         1.93 SEC
 DISK USED  *       119.84 MB
 **********************************************************************************************************************************


 PROGRAM * RHF-SCF (CLOSED SHELL)       Authors: W. Meyer, H.-J. Werner


 NUMBER OF ELECTRONS:      54+   54-    SPACE SYMMETRY=1    SPIN SYMMETRY: Singlet 
 CONVERGENCE THRESHOLDS:    1.00E-05 (Density)    1.00E-07 (Energy)
 MAX. NUMBER OF ITERATIONS:       60
 INTERPOLATION TYPE:            DIIS
 INTERPOLATION STEPS:              2 (START)      1 (STEP)
 LEVEL SHIFTS:                  0.00 (CLOSED)  0.00 (OPEN) 



 Orbital guess generated from atomic densities. Full valence occupancy:   54

 Molecular orbital dump at record        2100.2

 Initial occupancy:  54

 ITERATION    DDIFF          GRAD             ENERGY        2-EL.EN.            DIPOLE MOMENTS         DIIS   ORB.
    1      0.000D+00      0.000D+00      -673.01345706   2415.434955    0.01580    0.39107   -2.40265    0    start
    2      0.000D+00      0.142D-01      -673.49021594   2386.256984   -1.27459    0.31433   -0.75772    1    diag
    3      0.314D-01      0.683D-02      -673.58450009   2388.796329   -0.39556    0.48851   -0.87678    2    diag
    4      0.107D-01      0.122D-02      -673.58973418   2388.329443   -0.49716    0.37567   -0.89368    3    diag
    5      0.240D-02      0.383D-03      -673.59042589   2388.179505   -0.47820    0.39204   -0.87005    4    diag
    6      0.887D-03      0.139D-03      -673.59054965   2388.206135   -0.47590    0.37572   -0.88235    5    diag
    7      0.417D-03      0.600D-04      -673.59056910   2388.197278   -0.47453    0.37727   -0.87833    6    diag
    8      0.184D-03      0.170D-04      -673.59057084   2388.200459   -0.47432    0.37575   -0.87838    7    diag
    9      0.531D-04      0.656D-05      -673.59057108   2388.198580   -0.47514    0.37575   -0.87795    8    diag
   10      0.212D-04      0.211D-05      -673.59057111   2388.198694   -0.47489    0.37564   -0.87790    9    orth
   11      0.610D-05      0.915D-06      -673.59057111   2388.198564   -0.47510    0.37564   -0.87795    0    orth

 Final occupancy:  54

 !RHF STATE  1.1 Energy              -673.590571114922
 Nuclear energy                       957.10633481
 One-electron energy                -2824.79618769
 Two-electron energy                 1194.09928176
 Virial quotient                       -1.00919100
 !RHF STATE  1.1 Dipole moment         -0.47509761     0.37564279    -0.87795199
 Dipole moment /Debye                  -1.20749858     0.95472619    -2.23138521

 Starting polarizability calculation

 CPHF needed  19 iterations for  3 perturbations.  Total CPU time:    1.60 sec


 SCF dipole polarizabilities

             DMX             DMY             DMZ             
  DMX       95.115419       -2.277755       -3.775903
  DMY       -2.277756       49.996262       30.418945
  DMZ       -3.775903       30.418946       77.260608

 Average    74.124096

 Orbital energies:

         1.1          2.1          3.1          4.1          5.1          6.1          7.1          8.1          9.1         10.1
    -20.269007   -20.242273   -15.389720   -15.345429   -11.148173   -11.098473   -11.068075   -11.065141   -11.063366   -11.025406

        11.1         12.1         13.1         14.1         15.1         16.1         17.1         18.1         19.1         20.1
    -11.025266   -11.023900   -11.016049   -11.014923   -11.011550    -1.347680    -1.257839    -1.219986    -1.153791    -1.074547

        21.1         22.1         23.1         24.1         25.1         26.1         27.1         28.1         29.1         30.1
     -1.025525    -0.959273    -0.936776    -0.913338    -0.837642    -0.783051    -0.749374    -0.710598    -0.692635    -0.669162

        31.1         32.1         33.1         34.1         35.1         36.1         37.1         38.1         39.1         40.1
     -0.648390    -0.616893    -0.602323    -0.598358    -0.580763    -0.556460    -0.542814    -0.536860    -0.524088    -0.517742

        41.1         42.1         43.1         44.1         45.1         46.1         47.1         48.1         49.1         50.1
     -0.497934    -0.487161    -0.478773    -0.459728    -0.444626    -0.438477    -0.416688    -0.413912    -0.369715    -0.328526

        51.1         52.1         53.1         54.1         55.1         56.1
     -0.325620    -0.306742    -0.242585    -0.225669     0.247577     0.295187


 HOMO     54.1    -0.225669 =      -6.1408eV
 LUMO     55.1     0.247577 =       6.7369eV
 LUMO-HOMO         0.473246 =      12.8777eV


 **********************************************************************************************************************************
 DATASETS  * FILE   NREC   LENGTH (MB)   RECORD NAMES
              1      19       46.43       500      610      700      900      950      970     1000      129      960     1100   
                                          VAR    BASINP    GEOM    SYMINP    ZMAT    AOBASIS   BASIS     P2S    ABASIS      S 
                                         1400     1410     1200     1210     1080     1600     1650     1300     1700   
                                           T        V       H0       H01     AOSYM     SMH    MOLCAS    ERIS     OPER   

              2       4        3.36       700     1000      520     2100   
                                         GEOM     BASIS   MCVARS     RHF  

 PROGRAMS   *        TOTAL   RHF-SCF       INT
 CPU TIMES  *         4.00      2.15      1.77
 REAL TIME  *         4.11 SEC
 DISK USED  *       119.84 MB
 **********************************************************************************************************************************
 Molecular orbitals read from record     2100.2  Type=RHF/CANONICAL (state 1.1)
 Occupation numbers read from record     2100.2  Type=RHF/RHF (state 1.1)
 Orbital energies read from record       2100.2  Type=RHF/CANONICAL (state 1.1)
 Redundancy group numbers read from rec  2100.2  Type=RHF/RHF (state 1.1)

 RHF/STO-3G energy=   -673.590571114922

         RHF-SCF
   -673.59057111
 **********************************************************************************************************************************
 Molpro calculation terminated
