
    -----------------------------------------------------------------------
          Psi4: An Open-Source Ab Initio Electronic Structure Package
                               Psi4 1.2.1 release

                         Git: Rev {HEAD} 406f4de 


    R. M. Parrish, L. A. Burns, D. G. A. Smith, A. C. Simmonett,
    A. E. DePrince III, E. G. Hohenstein, U. Bozkaya, A. Yu. Sokolov,
    R. Di Remigio, R. M. Richard, J. F. Gonthier, A. M. James,
    H. R. McAlexander, A. Kumar, M. Saitow, X. Wang, B. P. Pritchard,
    P. Verma, H. F. Schaefer III, K. Patkowski, R. A. King, E. F. Valeev,
    F. A. Evangelista, J. M. Turney, T. D. Crawford, and C. D. Sherrill,
    J. Chem. Theory Comput. 13(7) pp 3185--3197 (2017).
    (doi: 10.1021/acs.jctc.7b00174)


                         Additional Contributions by
    P. Kraus, H. Kruse, M. H. Lechner, M. C. Schieber, and R. A. Shaw

    -----------------------------------------------------------------------


    Psi4 started on: Friday, 24 August 2018 06:29PM

    Process ID: 23576
    Host:       gold
    PSIDATADIR: /home/eric/opt/apps/python/psi4conda/share/psi4
    Memory:     500.0 MiB
    Threads:    1
    
  ==> Input File <==

--------------------------------------------------------------------------
molecule C_atom {
    C    0.0    0.0     0.0
}

set {
    basis aug-cc-pVQZ
    print_basis true
}

energy('scf')
--------------------------------------------------------------------------

*** tstart() called on gold
*** at Fri Aug 24 18:29:01 2018

   => Loading Basis Set <=

    Name: AUG-CC-PVQZ
    Role: ORBITAL
    Keyword: BASIS
    atoms 1 entry C          line   299 file /home/eric/opt/apps/python/psi4conda/share/psi4/basis/aug-cc-pvqz.gbs 

    There are an even number of electrons - assuming singlet.
    Specify the multiplicity in the molecule input block.


         ---------------------------------------------------------
                                   SCF
            by Justin Turney, Rob Parrish, Andy Simmonett
                             and Daniel Smith
                              RHF Reference
                        1 Threads,    500 MiB Core
         ---------------------------------------------------------

  ==> Geometry <==

    Molecular point group: d2h
    Geometry (in Angstrom), charge = 0, multiplicity = 1:

       Center              X                  Y                   Z               Mass       
    ------------   -----------------  -----------------  -----------------  -----------------
         C            0.000000000000     0.000000000000     0.000000000000    12.000000000000

  Running in d2h symmetry.

  Rotational constants: A = ************  B = ************  C = ************ [cm^-1]
  Rotational constants: A = ************  B = ************  C = ************ [MHz]
  Nuclear repulsion =    0.000000000000000

  Charge       = 0
  Multiplicity = 1
  Electrons    = 6
  Nalpha       = 3
  Nbeta        = 3

  ==> Algorithm <==

  SCF Algorithm Type is DF.
  DIIS enabled.
  MOM disabled.
  Fractional occupation disabled.
  Guess Type is CORE.
  Energy threshold   = 1.00e-06
  Density threshold  = 1.00e-06
  Integral threshold = 0.00e+00

  ==> Primary Basis <==

  Basis Set: AUG-CC-PVQZ
    Blend: AUG-CC-PVQZ
    Number of shells: 20
    Number of basis function: 80
    Number of Cartesian functions: 105
    Spherical Harmonics?: true
    Max angular momentum: 4

   => Loading Basis Set <=

    Name: (AUG-CC-PVQZ AUX)
    Role: JKFIT
    Keyword: DF_BASIS_SCF
    atoms 1 entry C          line   178 file /home/eric/opt/apps/python/psi4conda/share/psi4/basis/aug-cc-pvqz-jkfit.gbs 

  -AO BASIS SET INFORMATION:
    Name                   = AUG-CC-PVQZ
    Blend                  = AUG-CC-PVQZ
    Total number of shells = 20
    Number of primitives   = 38
    Number of AO           = 105
    Number of SO           = 80
    Maximum AM             = 4
    Spherical Harmonics    = TRUE

  -Contraction Scheme:
    Atom   Type   All Primitives // Shells:
   ------ ------ --------------------------
       1     C     22s 7p 4d 3f 2g // 6s 5p 4d 3f 2g 

  ==> AO Basis Functions <==

    [ AUG-CC-PVQZ ]
    spherical
    ****
    C   1
    S   9 1.00
                     33980.00000000           0.00009100
                      5089.00000000           0.00070400
                      1157.00000000           0.00369300
                       326.60000000           0.01536000
                       106.10000000           0.05292900
                        38.11000000           0.14704300
                        14.75000000           0.30563100
                         6.03500000           0.39934500
                         2.53000000           0.21705100
    S   9 1.00
                     33980.00000000          -0.00001900
                      5089.00000000          -0.00015100
                      1157.00000000          -0.00078500
                       326.60000000          -0.00332400
                       106.10000000          -0.01151200
                        38.11000000          -0.03416000
                        14.75000000          -0.07717300
                         6.03500000          -0.14149300
                         2.53000000          -0.11801900
    S   1 1.00
                         0.73550000           1.00000000
    S   1 1.00
                         0.29050000           1.00000000
    S   1 1.00
                         0.11110000           1.00000000
    P   3 1.00
                        34.51000000           0.00537800
                         7.91500000           0.03613200
                         2.36800000           0.14249300
    P   1 1.00
                         0.81320000           1.00000000
    P   1 1.00
                         0.28900000           1.00000000
    P   1 1.00
                         0.10070000           1.00000000
    D   1 1.00
                         1.84800000           1.00000000
    D   1 1.00
                         0.64900000           1.00000000
    D   1 1.00
                         0.22800000           1.00000000
    F   1 1.00
                         1.41900000           1.00000000
    F   1 1.00
                         0.48500000           1.00000000
    G   1 1.00
                         1.01100000           1.00000000
    S   1 1.00
                         0.04145000           1.00000000
    P   1 1.00
                         0.03218000           1.00000000
    D   1 1.00
                         0.07660000           1.00000000
    F   1 1.00
                         0.18700000           1.00000000
    G   1 1.00
                         0.42400000           1.00000000
    ****

  ==> Pre-Iterations <==

   -------------------------------------------------------
    Irrep   Nso     Nmo     Nalpha   Nbeta   Ndocc  Nsocc
   -------------------------------------------------------
     Ag        20      20       0       0       0       0
     B1g        8       8       0       0       0       0
     B2g        8       8       0       0       0       0
     B3g        8       8       0       0       0       0
     Au         3       3       0       0       0       0
     B1u       11      11       0       0       0       0
     B2u       11      11       0       0       0       0
     B3u       11      11       0       0       0       0
   -------------------------------------------------------
    Total      80      80       3       3       3       0
   -------------------------------------------------------

  ==> Integral Setup <==

  DFHelper Memory: AOs need 0.010 [GiB]; user supplied 0.366 [GiB]. Using in-core AOs.

  ==> MemDFJK: Density-Fitted J/K Matrices <==

    J tasked:                   Yes
    K tasked:                   Yes
    wK tasked:                   No
    OpenMP threads:               1
    Memory (MB):                375
    Algorithm:                 Core
    Schwarz Cutoff:           1E-12
    Mask sparsity (%):       0.0000
    Fitting Condition:        1E-12

   => Auxiliary Basis Set <=

  Basis Set: (AUG-CC-PVQZ AUX)
    Blend: AUG-CC-PVQZ-JKFIT
    Number of shells: 34
    Number of basis function: 142
    Number of Cartesian functions: 198
    Spherical Harmonics?: true
    Max angular momentum: 5

  Minimum eigenvalue in the overlap matrix is 4.2846703316E-03.
  Using Symmetric Orthogonalization.

  SCF Guess: Core (One-Electron) Hamiltonian.

  ==> Iterations <==

                           Total Energy        Delta E     RMS |[F,P]|

    Occupation by irrep:
             Ag   B1g   B2g   B3g    Au   B1u   B2u   B3u 
    DOCC [     2,    0,    0,    0,    0,    0,    0,    1 ]

   @DF-RHF iter   1:   -32.62495550587598   -3.26250e+01   1.34669e-01 
    Occupation by irrep:
             Ag   B1g   B2g   B3g    Au   B1u   B2u   B3u 
    DOCC [     2,    0,    0,    0,    0,    1,    0,    0 ]

   @DF-RHF iter   2:   -34.66464042162603   -2.03968e+00   3.34052e-02 DIIS
   @DF-RHF iter   3:   -37.32939194977529   -2.66475e+00   2.11570e-02 DIIS
   @DF-RHF iter   4:   -37.56384964785138   -2.34458e-01   6.95570e-03 DIIS
   @DF-RHF iter   5:   -37.60369139085449   -3.98417e-02   8.77964e-04 DIIS
   @DF-RHF iter   6:   -37.60447799334872   -7.86602e-04   2.51547e-04 DIIS
   @DF-RHF iter   7:   -37.60453984097104   -6.18476e-05   2.68647e-05 DIIS
   @DF-RHF iter   8:   -37.60454053825632   -6.97285e-07   9.13684e-07 DIIS

  ==> Post-Iterations <==

    Orbital Energies [Eh]
    ---------------------

    Doubly Occupied:                                                      

       1Ag   -11.364979     2Ag    -0.725626     1B1u   -0.358428  

    Virtual:                                                              

       1B2u    0.018860     1B3u    0.018860     3Ag     0.083436  
       2B1u    0.089885     2B2u    0.108246     2B3u    0.108246  
       1B1g    0.232374     4Ag     0.232374     1B2g    0.241669  
       1B3g    0.241669     5Ag     0.245453     3B1u    0.445365  
       3B3u    0.463999     3B2u    0.463999     6Ag     0.503329  
       4B2u    0.744182     4B3u    0.744182     1Au     0.762332  
       4B1u    0.762332     5B3u    0.773657     5B2u    0.773657  
       2B1g    0.775699     7Ag     0.775699     5B1u    0.777519  
       2B2g    0.791275     2B3g    0.791275     8Ag     0.798599  
       6B3u    1.591487     6B2u    1.591487     6B1u    1.608735  
       9Ag     2.090095     3B1g    2.090095    10Ag     2.107596  
       3B3g    2.118528     3B2g    2.118528    11Ag     2.138890  
       4B1g    2.138890     4B2g    2.151122     4B3g    2.151122  
      12Ag     2.155201    13Ag     2.197559     5B1g    2.197559  
       5B2g    2.232055     5B3g    2.232055     7B2u    2.245270  
       7B3u    2.245270    14Ag     2.245364     7B1u    2.283346  
       2Au     2.283346     8B3u    2.306921     8B2u    2.306921  
       8B1u    2.314930     9B3u    5.767340     9B2u    5.767340  
       9B1u    5.814567    15Ag     5.874551     6B1g    5.874551  
       6B3g    5.922428     6B2g    5.922428    16Ag     5.956499  
       7B1g    5.956499     7B3g    5.976890     7B2g    5.976890  
      17Ag     5.983677    18Ag     6.330415     8B1g    6.330415  
       8B3g    6.386142     8B2g    6.386142    19Ag     6.405091  
      10B2u    6.419815    10B3u    6.419815    10B1u    6.475268  
       3Au     6.475268    11B2u    6.509236    11B3u    6.509236  
      11B1u    6.520721    20Ag    20.422627  

    Final Occupation by Irrep:
             Ag   B1g   B2g   B3g    Au   B1u   B2u   B3u 
    DOCC [     2,    0,    0,    0,    0,    1,    0,    0 ]

  Energy converged.

  @DF-RHF Final Energy:   -37.60454053825632

   => Energetics <=

    Nuclear Repulsion Energy =              0.0000000000000000
    One-Electron Energy =                 -50.3109667223400692
    Two-Electron Energy =                  12.7064261840837514
    Total Energy =                        -37.6045405382563160



Properties will be evaluated at   0.000000,   0.000000,   0.000000 [a0]

Properties computed using the SCF density matrix

  Nuclear Dipole Moment: [e a0]
     X:     0.0000      Y:     0.0000      Z:     0.0000

  Electronic Dipole Moment: [e a0]
     X:     0.0000      Y:     0.0000      Z:     0.0000

  Dipole Moment: [e a0]
     X:     0.0000      Y:     0.0000      Z:     0.0000     Total:     0.0000

  Dipole Moment: [D]
     X:     0.0000      Y:     0.0000      Z:     0.0000     Total:     0.0000


*** tstop() called on gold at Fri Aug 24 18:29:01 2018
Module time:
	user time   =       0.23 seconds =       0.00 minutes
	system time =       0.01 seconds =       0.00 minutes
	total time  =          0 seconds =       0.00 minutes
Total time:
	user time   =       0.23 seconds =       0.00 minutes
	system time =       0.01 seconds =       0.00 minutes
	total time  =          0 seconds =       0.00 minutes

    Psi4 stopped on: Friday, 24 August 2018 06:29PM
    Psi4 wall time for execution: 0:00:00.28

*** Psi4 exiting successfully. Buy a developer a beer!
