
    -----------------------------------------------------------------------
          Psi4: An Open-Source Ab Initio Electronic Structure Package
                               Psi4 1.3.1 release

                         Git: Rev {HEAD} 2ce1c29 


    R. M. Parrish, L. A. Burns, D. G. A. Smith, A. C. Simmonett,
    A. E. DePrince III, E. G. Hohenstein, U. Bozkaya, A. Yu. Sokolov,
    R. Di Remigio, R. M. Richard, J. F. Gonthier, A. M. James,
    H. R. McAlexander, A. Kumar, M. Saitow, X. Wang, B. P. Pritchard,
    P. Verma, H. F. Schaefer III, K. Patkowski, R. A. King, E. F. Valeev,
    F. A. Evangelista, J. M. Turney, T. D. Crawford, and C. D. Sherrill,
    J. Chem. Theory Comput. 13(7) pp 3185--3197 (2017).
    (doi: 10.1021/acs.jctc.7b00174)


                         Additional Contributions by
    P. Kraus, H. Kruse, M. H. Lechner, M. C. Schieber, R. A. Shaw,
    A. Alenaizan, R. Galvelis, Z. L. Glick, S. Lehtola, and J. P. Misiewicz

    -----------------------------------------------------------------------


    Psi4 started on: Saturday, 04 May 2019 12:24AM

    Process ID: 67928
    Host:       osmium
    PSIDATADIR: /home/eric/data/opt/apps/python/psi4conda/share/psi4
    Memory:     500.0 MiB
    Threads:    1
    
  ==> Input File <==

--------------------------------------------------------------------------
molecule dvb {
    1 2
    C    -1.4152533224   0.2302217854   0.0000000000
    C     1.4152533224  -0.2302217854   0.0000000000
    C    -0.4951331558   1.3144608674   0.0000000000
    C     0.4951331558  -1.3144608674   0.0000000000
    C     0.8894090436   1.0909493743   0.0000000000
    C    -0.8894090436  -1.0909493743   0.0000000000
    H    -0.8795511985   2.3437343748   0.0000000000
    H     0.8795511985  -2.3437343748   0.0000000000
    H     1.5779041557   1.9450061275   0.0000000000
    H    -1.5779041557  -1.9450061275   0.0000000000
    C     2.8845844962  -0.5210893778   0.0000000000
    C    -2.8845844962   0.5210893778   0.0000000000
    H     3.1403356810  -1.5919605685   0.0000000000
    H    -3.1403356810   1.5919605685   0.0000000000
    C     3.8800428103   0.3822535424   0.0000000000
    C    -3.8800428103  -0.3822535424   0.0000000000
    H     3.6946765858   1.4624389570   0.0000000000
    H    -3.6946765858  -1.4624389570   0.0000000000
    H     4.9316453546   0.0711049543   0.0000000000
    H    -4.9316453546  -0.0711049543   0.0000000000
}

set {
    basis sto-3g
    reference uhf
    print_basis true
    print_mos true
}

b3lyp_e, b3lyp_wfn = energy('b3lyp', return_wfn=True)
oeprop(b3lyp_wfn, 'MULLIKEN_CHARGES', 'LOWDIN_CHARGES', 'MULTIPOLES(5)')
--------------------------------------------------------------------------

*** tstart() called on osmium
*** at Sat May  4 00:24:43 2019

   => Loading Basis Set <=

    Name: STO-3G
    Role: ORBITAL
    Keyword: BASIS
    atoms 1-6, 11-12, 15-16  entry C          line    61 file /home/eric/data/opt/apps/python/psi4conda/share/psi4/basis/sto-3g.gbs 
    atoms 7-10, 13-14, 17-20 entry H          line    19 file /home/eric/data/opt/apps/python/psi4conda/share/psi4/basis/sto-3g.gbs 


         ---------------------------------------------------------
                                   SCF
               by Justin Turney, Rob Parrish, Andy Simmonett
                          and Daniel G. A. Smith
                              UKS Reference
                        1 Threads,    500 MiB Core
         ---------------------------------------------------------

  ==> Geometry <==

    Molecular point group: c2h
    Full point group: C2h

    Geometry (in Angstrom), charge = 1, multiplicity = 2:

       Center              X                  Y                   Z               Mass       
    ------------   -----------------  -----------------  -----------------  -----------------
         C           -1.415253322400     0.230221785400     0.000000000000    12.000000000000
         C            1.415253322400    -0.230221785400     0.000000000000    12.000000000000
         C           -0.495133155800     1.314460867400     0.000000000000    12.000000000000
         C            0.495133155800    -1.314460867400     0.000000000000    12.000000000000
         C            0.889409043600     1.090949374300     0.000000000000    12.000000000000
         C           -0.889409043600    -1.090949374300     0.000000000000    12.000000000000
         H           -0.879551198500     2.343734374800     0.000000000000     1.007825032230
         H            0.879551198500    -2.343734374800     0.000000000000     1.007825032230
         H            1.577904155700     1.945006127500     0.000000000000     1.007825032230
         H           -1.577904155700    -1.945006127500     0.000000000000     1.007825032230
         C            2.884584496200    -0.521089377800     0.000000000000    12.000000000000
         C           -2.884584496200     0.521089377800     0.000000000000    12.000000000000
         H            3.140335681000    -1.591960568500     0.000000000000     1.007825032230
         H           -3.140335681000     1.591960568500     0.000000000000     1.007825032230
         C            3.880042810300     0.382253542400     0.000000000000    12.000000000000
         C           -3.880042810300    -0.382253542400     0.000000000000    12.000000000000
         H            3.694676585800     1.462438957000     0.000000000000     1.007825032230
         H           -3.694676585800    -1.462438957000     0.000000000000     1.007825032230
         H            4.931645354600     0.071104954300     0.000000000000     1.007825032230
         H           -4.931645354600    -0.071104954300     0.000000000000     1.007825032230

  Running in c2h symmetry.

  Rotational constants: A =      0.15403  B =      0.02287  C =      0.01992 [cm^-1]
  Rotational constants: A =   4617.84335  B =    685.76183  C =    597.09209 [MHz]
  Nuclear repulsion =  445.936979867057005

  Charge       = 1
  Multiplicity = 2
  Electrons    = 69
  Nalpha       = 35
  Nbeta        = 34

  ==> Algorithm <==

  SCF Algorithm Type is DF.
  DIIS enabled.
  MOM disabled.
  Fractional occupation disabled.
  Guess Type is SAD.
  Energy threshold   = 1.00e-06
  Density threshold  = 1.00e-06
  Integral threshold = 0.00e+00

  ==> Primary Basis <==

  Basis Set: STO-3G
    Blend: STO-3G
    Number of shells: 40
    Number of basis function: 60
    Number of Cartesian functions: 60
    Spherical Harmonics?: true
    Max angular momentum: 1

  ==> DFT Potential <==

   => Composite Functional: B3LYP <= 

    B3LYP Hyb-GGA Exchange-Correlation Functional

    P. J. Stephens, F. J. Devlin, C. F. Chabalowski, and M. J. Frisch, J. Phys. Chem. 98, 11623 (1994)

    Deriv               =              1
    GGA                 =           TRUE
    Meta                =          FALSE

    Exchange Hybrid     =           TRUE
    MP2 Hybrid          =          FALSE

   => Exchange Functionals <=

    0.0800   Slater exchange
    0.7200         Becke 88

   => Exact (HF) Exchange <=

    0.2000               HF 

   => Correlation Functionals <=

    0.1900   Vosko, Wilk & Nusair (VWN5_RPA)
    0.8100   Lee, Yang & Parr

   => Molecular Quadrature <=

    Radial Scheme          =       TREUTLER
    Pruning Scheme         =           FLAT
    Nuclear Scheme         =       TREUTLER

    BS radius alpha        =              1
    Pruning alpha          =              1
    Radial Points          =             75
    Spherical Points       =            302
    Total Points           =         438996
    Total Blocks           =           3340
    Max Points             =            256
    Max Functions          =             56

   => Loading Basis Set <=

    Name: (STO-3G AUX)
    Role: JKFIT
    Keyword: DF_BASIS_SCF
    atoms 1-6, 11-12, 15-16  entry C          line   203 file /home/eric/data/opt/apps/python/psi4conda/share/psi4/basis/def2-svp-jkfit.gbs 
    atoms 7-10, 13-14, 17-20 entry H          line    23 file /home/eric/data/opt/apps/python/psi4conda/share/psi4/basis/def2-svp-jkfit.gbs 

  -AO BASIS SET INFORMATION:
    Name                   = STO-3G
    Blend                  = STO-3G
    Total number of shells = 40
    Number of primitives   = 120
    Number of AO           = 60
    Number of SO           = 60
    Maximum AM             = 1
    Spherical Harmonics    = TRUE

  -Contraction Scheme:
    Atom   Type   All Primitives // Shells:
   ------ ------ --------------------------
       1     C     6s 3p // 2s 1p 
       2     C     6s 3p // 2s 1p 
       3     C     6s 3p // 2s 1p 
       4     C     6s 3p // 2s 1p 
       5     C     6s 3p // 2s 1p 
       6     C     6s 3p // 2s 1p 
       7     H     3s // 1s 
       8     H     3s // 1s 
       9     H     3s // 1s 
      10     H     3s // 1s 
      11     C     6s 3p // 2s 1p 
      12     C     6s 3p // 2s 1p 
      13     H     3s // 1s 
      14     H     3s // 1s 
      15     C     6s 3p // 2s 1p 
      16     C     6s 3p // 2s 1p 
      17     H     3s // 1s 
      18     H     3s // 1s 
      19     H     3s // 1s 
      20     H     3s // 1s 

  ==> AO Basis Functions <==

    [ STO-3G ]
    spherical
    ****
    C   1
    S   3 1.00
                        71.61683700           0.15432897
                        13.04509600           0.53532814
                         3.53051220           0.44463454
    S   3 1.00
                         2.94124940          -0.09996723
                         0.68348310           0.39951283
                         0.22228990           0.70011547
    P   3 1.00
                         2.94124940           0.15591627
                         0.68348310           0.60768372
                         0.22228990           0.39195739
    ****
    C   3
    S   3 1.00
                        71.61683700           0.15432897
                        13.04509600           0.53532814
                         3.53051220           0.44463454
    S   3 1.00
                         2.94124940          -0.09996723
                         0.68348310           0.39951283
                         0.22228990           0.70011547
    P   3 1.00
                         2.94124940           0.15591627
                         0.68348310           0.60768372
                         0.22228990           0.39195739
    ****
    C   5
    S   3 1.00
                        71.61683700           0.15432897
                        13.04509600           0.53532814
                         3.53051220           0.44463454
    S   3 1.00
                         2.94124940          -0.09996723
                         0.68348310           0.39951283
                         0.22228990           0.70011547
    P   3 1.00
                         2.94124940           0.15591627
                         0.68348310           0.60768372
                         0.22228990           0.39195739
    ****
    H   7
    S   3 1.00
                         3.42525091           0.15432897
                         0.62391373           0.53532814
                         0.16885540           0.44463454
    ****
    H   9
    S   3 1.00
                         3.42525091           0.15432897
                         0.62391373           0.53532814
                         0.16885540           0.44463454
    ****
    C  11
    S   3 1.00
                        71.61683700           0.15432897
                        13.04509600           0.53532814
                         3.53051220           0.44463454
    S   3 1.00
                         2.94124940          -0.09996723
                         0.68348310           0.39951283
                         0.22228990           0.70011547
    P   3 1.00
                         2.94124940           0.15591627
                         0.68348310           0.60768372
                         0.22228990           0.39195739
    ****
    H  13
    S   3 1.00
                         3.42525091           0.15432897
                         0.62391373           0.53532814
                         0.16885540           0.44463454
    ****
    C  15
    S   3 1.00
                        71.61683700           0.15432897
                        13.04509600           0.53532814
                         3.53051220           0.44463454
    S   3 1.00
                         2.94124940          -0.09996723
                         0.68348310           0.39951283
                         0.22228990           0.70011547
    P   3 1.00
                         2.94124940           0.15591627
                         0.68348310           0.60768372
                         0.22228990           0.39195739
    ****
    H  17
    S   3 1.00
                         3.42525091           0.15432897
                         0.62391373           0.53532814
                         0.16885540           0.44463454
    ****
    H  19
    S   3 1.00
                         3.42525091           0.15432897
                         0.62391373           0.53532814
                         0.16885540           0.44463454
    ****

  ==> Pre-Iterations <==

   -------------------------------------------------------
    Irrep   Nso     Nmo     Nalpha   Nbeta   Ndocc  Nsocc
   -------------------------------------------------------
     Ag        25      25       0       0       0       0
     Bg         5       5       0       0       0       0
     Au         5       5       0       0       0       0
     Bu        25      25       0       0       0       0
   -------------------------------------------------------
    Total      60      60      35      34      34       1
   -------------------------------------------------------

  ==> Integral Setup <==

  DFHelper Memory: AOs need 0.031 GiB; user supplied 0.031 GiB. Using in-core AOs.

  ==> MemDFJK: Density-Fitted J/K Matrices <==

    J tasked:                   Yes
    K tasked:                   Yes
    wK tasked:                   No
    OpenMP threads:               1
    Memory [MiB]:                31
    Algorithm:                 Core
    Schwarz Cutoff:           1E-12
    Mask sparsity (%):       4.1111
    Fitting Condition:        1E-10

   => Auxiliary Basis Set <=

  Basis Set: (STO-3G AUX)
    Blend: DEF2-SVP-JKFIT
    Number of shells: 310
    Number of basis function: 930
    Number of Cartesian functions: 1090
    Spherical Harmonics?: true
    Max angular momentum: 4

  Cached 100.0% of DFT collocation blocks in 0.576 [GiB].

  Minimum eigenvalue in the overlap matrix is 1.8147106803E-01.
  Using Symmetric Orthogonalization.

  SCF Guess: Superposition of Atomic Densities via on-the-fly atomic UHF.

  ==> Iterations <==

                           Total Energy        Delta E     RMS |[F,P]|

   @DF-UKS iter SAD:  -377.61114252324296   -3.77611e+02   0.00000e+00 
   @DF-UKS iter   1:  -382.05221656909100   -4.44107e+00   5.64058e-03 DIIS
   @DF-UKS iter   2:  -382.05576714571066   -3.55058e-03   5.44088e-03 DIIS
   @DF-UKS iter   3:  -382.08047256459315   -2.47054e-02   1.91363e-03 DIIS
   @DF-UKS iter   4:  -382.08376461159321   -3.29205e-03   3.45145e-04 DIIS
   @DF-UKS iter   5:  -382.08394642857104   -1.81817e-04   2.17654e-04 DIIS
   @DF-UKS iter   6:  -382.08406756423813   -1.21136e-04   8.13385e-05 DIIS
   @DF-UKS iter   7:  -382.08410163776944   -3.40735e-05   6.88122e-05 DIIS
   @DF-UKS iter   8:  -382.08410912432453   -7.48656e-06   1.14103e-05 DIIS
   @DF-UKS iter   9:  -382.08410931587025   -1.91546e-07   9.35525e-06 DIIS
   @DF-UKS iter  10:  -382.08410943126512   -1.15395e-07   1.59634e-06 DIIS
   @DF-UKS iter  11:  -382.08410943870763   -7.44251e-09   5.46142e-07 DIIS
  Energy and wave function converged.


  ==> Post-Iterations <==

   @Spin Contamination Metric:   2.777220358E-02
   @S^2 Expected:                7.500000000E-01
   @S^2 Observed:                7.777722036E-01
   @S   Expected:                5.000000000E-01
   @S   Observed:                5.000000000E-01

    Orbital Energies [Eh]
    ---------------------

    Alpha Occupied:                                                       

       1Bu   -10.253863     1Ag   -10.253812     2Bu   -10.219802  
       2Ag   -10.219761     3Bu   -10.218326     3Ag   -10.218229  
       4Bu   -10.217851     4Ag   -10.217847     5Bu   -10.215526  
       5Ag   -10.215526     6Ag    -1.020773     6Bu    -0.961941  
       7Ag    -0.921638     7Bu    -0.899268     8Bu    -0.876745  
       8Ag    -0.787128     9Ag    -0.759879     9Bu    -0.722512  
      10Ag    -0.703604    11Ag    -0.650481    10Bu    -0.634984  
      11Bu    -0.604003    12Bu    -0.596098    12Ag    -0.587827  
      13Bu    -0.568858    14Bu    -0.552252    13Ag    -0.537112  
       1Au    -0.533641    15Bu    -0.501066    14Ag    -0.493313  
      15Ag    -0.482727     1Bg    -0.473622     2Au    -0.417914  
       2Bg    -0.394351     3Bg    -0.369713  

    Alpha Virtual:                                                        

       3Au    -0.177450     4Au    -0.111528     4Bg    -0.094356  
       5Au    -0.029620     5Bg     0.059961    16Ag     0.139704  
      16Bu     0.148995    17Bu     0.179247    17Ag     0.196442  
      18Ag     0.214667    18Bu     0.220337    19Ag     0.239663  
      19Bu     0.240564    20Bu     0.262992    20Ag     0.285295  
      21Ag     0.319779    21Bu     0.344271    22Ag     0.379979  
      22Bu     0.397829    23Bu     0.425459    23Ag     0.438158  
      24Ag     0.477752    24Bu     0.506042    25Ag     0.567613  
      25Bu     0.581737  

    Beta Occupied:                                                        

       1Bu   -10.250887     1Ag   -10.250841     2Bu   -10.219474  
       2Ag   -10.219437     3Ag   -10.218695     3Bu   -10.218695  
       4Bu   -10.218123     4Ag   -10.218021     5Ag   -10.211062  
       5Bu   -10.211062     6Ag    -1.014718     6Bu    -0.954504  
       7Ag    -0.913763     7Bu    -0.897620     8Bu    -0.864547  
       8Ag    -0.781839     9Ag    -0.755816     9Bu    -0.718616  
      10Ag    -0.700471    11Ag    -0.648283    10Bu    -0.632912  
      11Bu    -0.601294    12Bu    -0.593265    12Ag    -0.584928  
      13Bu    -0.568154    14Bu    -0.549303    13Ag    -0.535160  
       1Au    -0.517369    15Bu    -0.499449    14Ag    -0.491809  
      15Ag    -0.481158     1Bg    -0.450802     2Bg    -0.391168  
       2Au    -0.388746  

    Beta Virtual:                                                         

       3Bg    -0.300481     3Au    -0.147017     4Au    -0.103425  
       4Bg    -0.073648     5Au    -0.008256     5Bg     0.076151  
      16Ag     0.142156    16Bu     0.150870    17Bu     0.181146  
      17Ag     0.197918    18Ag     0.220336    18Bu     0.225725  
      19Bu     0.242012    19Ag     0.246315    20Bu     0.270006  
      20Ag     0.290444    21Ag     0.323507    21Bu     0.347724  
      22Ag     0.381476    22Bu     0.400009    23Bu     0.429780  
      23Ag     0.440725    24Ag     0.481531    24Bu     0.511458  
      25Ag     0.571352    25Bu     0.584878  

    Final Occupation by Irrep:
             Ag    Bg    Au    Bu 
    DOCC [    15,    2,    2,   15 ]
    SOCC [     0,    1,    0,    0 ]

  @DF-UKS Final Energy:  -382.08410943870763

   => Energetics <=

    Nuclear Repulsion Energy =            445.9369798670570049
    One-Electron Energy =               -1386.6343952149009056
    Two-Electron Energy =                 605.0060356246406172
    DFT Exchange-Correlation Energy =     -46.3927297155043590
    Empirical Dispersion Energy =           0.0000000000000000
    VV10 Nonlocal Energy =                  0.0000000000000000
    Total Energy =                       -382.0841094387075714

  UHF NO Occupations:
  HONO-2 :    2 Bg 1.9974738
  HONO-1 :    2 Au 1.9899397
  HONO-0 :    3 Bg 1.0000000
  LUNO+0 :    3 Au 0.0100603
  LUNO+1 :    4 Bg 0.0025262
  LUNO+2 :    4 Au 0.0008988
  LUNO+3 :   16 Ag 0.0000999


Computation Completed


Properties will be evaluated at   0.000000,   0.000000,   0.000000 [a0]

Properties computed using the SCF density matrix

  Nuclear Dipole Moment: [e a0]
     X:     0.0000      Y:     0.0000      Z:     0.0000

  Electronic Dipole Moment: [e a0]
     X:     0.0000      Y:     0.0000      Z:     0.0000

  Dipole Moment: [e a0]
     X:     0.0000      Y:     0.0000      Z:     0.0000     Total:     0.0000

  Dipole Moment: [D]
     X:     0.0000      Y:     0.0000      Z:     0.0000     Total:     0.0000


  ==> Alpha-Spin Molecular Orbitals <==

                            1            2            3            4            5

 1    C1 s0         0.7002685    0.7002922    0.0098966    0.0062503    0.0057932
 2    C1 s0         0.0312628    0.0310686   -0.0075676   -0.0041123   -0.0046851
 3    C1 p0         0.0000000    0.0000000    0.0000000    0.0000000    0.0000000
 4    C1 p+1        0.0010238    0.0007504   -0.0024030   -0.0008607   -0.0025932
 5    C1 p-1       -0.0000442    0.0000057    0.0032259    0.0048214   -0.0040419
 6    C2 s0        -0.7002685    0.7002922   -0.0098966    0.0062503   -0.0057932
 7    C2 s0        -0.0312628    0.0310686    0.0075676   -0.0041123    0.0046851
 8    C2 p0         0.0000000    0.0000000    0.0000000    0.0000000    0.0000000
 9    C2 p+1        0.0010238   -0.0007504   -0.0024030    0.0008607   -0.0025932
 10   C2 p-1       -0.0000442   -0.0000057    0.0032259   -0.0048214   -0.0040419
 11   C3 s0        -0.0070210   -0.0074441    0.1539684   -0.1782426    0.6831609
 12   C3 s0        -0.0071257   -0.0065325    0.0134220   -0.0140975    0.0287726
 13   C3 p0         0.0000000    0.0000000    0.0000000    0.0000000    0.0000000
 14   C3 p+1        0.0026965    0.0029172    0.0043555   -0.0043204   -0.0004667
 15   C3 p-1        0.0035409    0.0033641   -0.0010578    0.0009887   -0.0009085
 16   C4 s0         0.0070210   -0.0074441   -0.1539684   -0.1782426   -0.6831609
 17   C4 s0         0.0071257   -0.0065325   -0.0134220   -0.0140975   -0.0287726
 18   C4 p0         0.0000000    0.0000000    0.0000000    0.0000000    0.0000000
 19   C4 p+1        0.0026965   -0.0029172    0.0043555    0.0043204   -0.0004667
 20   C4 p-1        0.0035409   -0.0033641   -0.0010578   -0.0009887   -0.0009085
 21   C5 s0         0.0073475   -0.0077285   -0.6830576    0.6771547    0.1549655
 22   C5 s0         0.0070946   -0.0064849   -0.0317795    0.0314763    0.0002651
 23   C5 p0         0.0000000    0.0000000    0.0000000    0.0000000    0.0000000
 24   C5 p+1        0.0014273   -0.0017043    0.0017628   -0.0017143    0.0041064
 25   C5 p-1       -0.0041883    0.0040716    0.0007431   -0.0004302   -0.0007566
 26   C6 s0        -0.0073475   -0.0077285    0.6830576    0.6771547   -0.1549655
 27   C6 s0        -0.0070946   -0.0064849    0.0317795    0.0314763   -0.0002651
 28   C6 p0         0.0000000    0.0000000    0.0000000    0.0000000    0.0000000
 29   C6 p+1        0.0014273    0.0017043    0.0017628    0.0017143    0.0041064
 30   C6 p-1       -0.0041883   -0.0040716    0.0007431    0.0004302   -0.0007566
 31   H7 s0         0.0002229    0.0001108   -0.0015535    0.0016527   -0.0060430
 32   H8 s0        -0.0002229    0.0001108    0.0015535    0.0016527    0.0060430
 33   H9 s0        -0.0002182    0.0001087    0.0061627   -0.0061749   -0.0012084
 34   H10 s0        0.0002182    0.0001087   -0.0061627   -0.0061749    0.0012084
 35   C11 s0        0.0088363   -0.0089453    0.0017079   -0.0040285    0.0136260
 36   C11 s0        0.0058776   -0.0059396   -0.0001606   -0.0001057    0.0004568
 37   C11 p0        0.0000000    0.0000000    0.0000000    0.0000000    0.0000000
 38   C11 p+1      -0.0039859    0.0040287    0.0000532    0.0000512    0.0000421
 39   C11 p-1       0.0008653   -0.0008736   -0.0000668    0.0001165    0.0000053
 40   C12 s0       -0.0088363   -0.0089453   -0.0017079   -0.0040285   -0.0136260
 41   C12 s0       -0.0058776   -0.0059396    0.0001606   -0.0001057   -0.0004568
 42   C12 p0        0.0000000    0.0000000    0.0000000    0.0000000    0.0000000
 43   C12 p+1      -0.0039859   -0.0040287    0.0000532   -0.0000512    0.0000421
 44   C12 p-1       0.0008653    0.0008736   -0.0000668   -0.0001165    0.0000053
 45   H13 s0       -0.0001536    0.0001616    0.0000268   -0.0000124   -0.0000774
 46   H14 s0        0.0001536    0.0001616   -0.0000268   -0.0000124    0.0000774
 47   C15 s0       -0.0000366    0.0000436    0.0027188   -0.0020435   -0.0004461
 48   C15 s0       -0.0002729    0.0002730    0.0001915   -0.0001320   -0.0001186
 49   C15 p0        0.0000000    0.0000000    0.0000000    0.0000000    0.0000000
 50   C15 p+1       0.0001898   -0.0001947   -0.0000687    0.0000376    0.0000408
 51   C15 p-1      -0.0000832    0.0000837    0.0000516   -0.0000528    0.0000417
 52   C16 s0        0.0000366    0.0000436   -0.0027188   -0.0020435    0.0004461
 53   C16 s0        0.0002729    0.0002730   -0.0001915   -0.0001320    0.0001186
 54   C16 p0        0.0000000    0.0000000    0.0000000    0.0000000    0.0000000
 55   C16 p+1       0.0001898    0.0001947   -0.0000687   -0.0000376    0.0000408
 56   C16 p-1      -0.0000832   -0.0000837    0.0000516    0.0000528    0.0000417
 57   H17 s0        0.0001406   -0.0001331   -0.0001926    0.0001908    0.0000257
 58   H18 s0       -0.0001406   -0.0001331    0.0001926    0.0001908   -0.0000257
 59   H19 s0        0.0000238   -0.0000229   -0.0000025    0.0000017    0.0000039
 60   H20 s0       -0.0000238   -0.0000229    0.0000025    0.0000017   -0.0000039

            Ene   -10.2538629  -10.2538124  -10.2198024  -10.2197612  -10.2183264
            Sym            Bu           Ag           Bu           Ag           Bu
            Occ             1            1            1            1            1


                            6            7            8            9           10

 1    C1 s0         0.0095975    0.0099909    0.0108089    0.0008577    0.0009038
 2    C1 s0        -0.0066893   -0.0051823   -0.0056306   -0.0002474   -0.0002699
 3    C1 p0         0.0000000    0.0000000    0.0000000    0.0000000    0.0000000
 4    C1 p+1       -0.0034785    0.0040079    0.0037575    0.0002437    0.0002333
 5    C1 p-1       -0.0021384   -0.0006963   -0.0007637   -0.0000662   -0.0000730
 6    C2 s0         0.0095975   -0.0099909    0.0108089   -0.0008577    0.0009038
 7    C2 s0        -0.0066893    0.0051823   -0.0056306    0.0002474   -0.0002699
 8    C2 p0         0.0000000    0.0000000    0.0000000    0.0000000    0.0000000
 9    C2 p+1        0.0034785    0.0040079   -0.0037575    0.0002437   -0.0002333
 10   C2 p-1        0.0021384   -0.0006963    0.0007637   -0.0000662    0.0000730
 11   C3 s0         0.6753310    0.0135191    0.0529821    0.0013379    0.0037268
 12   C3 s0         0.0280733    0.0006873    0.0021913    0.0000713    0.0000557
 13   C3 p0         0.0000000    0.0000000    0.0000000    0.0000000    0.0000000
 14   C3 p+1       -0.0007185   -0.0000269   -0.0001556    0.0000918    0.0000071
 15   C3 p-1       -0.0005399   -0.0000011    0.0000681    0.0000033    0.0000237
 16   C4 s0         0.6753310   -0.0135191    0.0529821   -0.0013379    0.0037268
 17   C4 s0         0.0280733   -0.0006873    0.0021913   -0.0000713    0.0000557
 18   C4 p0         0.0000000    0.0000000    0.0000000    0.0000000    0.0000000
 19   C4 p+1        0.0007185   -0.0000269    0.0001556    0.0000918   -0.0000071
 20   C4 p-1        0.0005399   -0.0000011   -0.0000681    0.0000033   -0.0000237
 21   C5 s0         0.1782759    0.0016850    0.0178993   -0.0026375    0.0034630
 22   C5 s0         0.0016157   -0.0002252    0.0003975   -0.0000895    0.0000568
 23   C5 p0         0.0000000    0.0000000    0.0000000    0.0000000    0.0000000
 24   C5 p+1        0.0040788    0.0000272    0.0004416    0.0001119   -0.0000636
 25   C5 p-1       -0.0007332   -0.0000336    0.0000228   -0.0000068    0.0000046
 26   C6 s0         0.1782759   -0.0016850    0.0178993    0.0026375    0.0034630
 27   C6 s0         0.0016157    0.0002252    0.0003975    0.0000895    0.0000568
 28   C6 p0         0.0000000    0.0000000    0.0000000    0.0000000    0.0000000
 29   C6 p+1       -0.0040788    0.0000272   -0.0004416    0.0001119    0.0000636
 30   C6 p-1        0.0007332   -0.0000336   -0.0000228   -0.0000068   -0.0000046
 31   H7 s0        -0.0061015   -0.0001297   -0.0005044   -0.0000227   -0.0000472
 32   H8 s0        -0.0061015    0.0001297   -0.0005044    0.0000227   -0.0000472
 33   H9 s0        -0.0015721    0.0001352   -0.0003267   -0.0000738    0.0000656
 34   H10 s0       -0.0015721   -0.0001352   -0.0003267    0.0000738    0.0000656
 35   C11 s0       -0.0560318   -0.6976747    0.6955357   -0.0610161    0.0611176
 36   C11 s0       -0.0023621   -0.0312701    0.0311703    0.0046771   -0.0046735
 37   C11 p0        0.0000000    0.0000000    0.0000000    0.0000000    0.0000000
 38   C11 p+1      -0.0000332   -0.0012352    0.0012488    0.0033312   -0.0033293
 39   C11 p-1      -0.0000994   -0.0011668    0.0011614    0.0030708   -0.0030704
 40   C12 s0       -0.0560318    0.6976747    0.6955357    0.0610161    0.0611176
 41   C12 s0       -0.0023621    0.0312701    0.0311703   -0.0046771   -0.0046735
 42   C12 p0        0.0000000    0.0000000    0.0000000    0.0000000    0.0000000
 43   C12 p+1       0.0000332   -0.0012352   -0.0012488    0.0033312    0.0033293
 44   C12 p-1       0.0000994   -0.0011668   -0.0011614    0.0030708    0.0030704
 45   H13 s0        0.0004242    0.0063229   -0.0063094    0.0004266   -0.0004282
 46   H14 s0        0.0004242   -0.0063229   -0.0063094   -0.0004266   -0.0004282
 47   C15 s0        0.0003678    0.0601458   -0.0604149   -0.6979228    0.6979019
 48   C15 s0        0.0005279    0.0099281   -0.0099231   -0.0302714    0.0302689
 49   C15 p0        0.0000000    0.0000000    0.0000000    0.0000000    0.0000000
 50   C15 p+1      -0.0001896   -0.0035304    0.0035265    0.0008342   -0.0008332
 51   C15 p-1      -0.0002548   -0.0031213    0.0031116    0.0007628   -0.0007623
 52   C16 s0        0.0003678   -0.0601458   -0.0604149    0.6979228    0.6979019
 53   C16 s0        0.0005279   -0.0099281   -0.0099231    0.0302714    0.0302689
 54   C16 p0        0.0000000    0.0000000    0.0000000    0.0000000    0.0000000
 55   C16 p+1       0.0001896   -0.0035304   -0.0035265    0.0008342    0.0008332
 56   C16 p-1       0.0002548   -0.0031213   -0.0031116    0.0007628    0.0007623
 57   H17 s0        0.0000035   -0.0006679    0.0006725    0.0063141   -0.0063139
 58   H18 s0        0.0000035    0.0006679    0.0006725   -0.0063141   -0.0063139
 59   H19 s0       -0.0000337   -0.0006839    0.0006843    0.0062984   -0.0062983
 60   H20 s0       -0.0000337    0.0006839    0.0006843   -0.0062984   -0.0062983

            Ene   -10.2182285  -10.2178507  -10.2178472  -10.2155264  -10.2155263
            Sym            Ag           Bu           Ag           Bu           Ag
            Occ             1            1            1            1            1


                           11           12           13           14           15

 1    C1 s0         0.1123601    0.1122952    0.0052691    0.0174132    0.0954046
 2    C1 s0        -0.2906212   -0.3021420   -0.0173245   -0.0482878   -0.2668805
 3    C1 p0         0.0000000    0.0000000    0.0000000    0.0000000    0.0000000
 4    C1 p+1       -0.0478407    0.0254861    0.1005035   -0.0277504   -0.0670644
 5    C1 p-1        0.0075943   -0.0008099   -0.0090097   -0.1352806    0.0267067
 6    C2 s0         0.1123601   -0.1122952    0.0052691   -0.0174132   -0.0954046
 7    C2 s0        -0.2906212    0.3021420   -0.0173245    0.0482878    0.2668805
 8    C2 p0         0.0000000    0.0000000    0.0000000    0.0000000    0.0000000
 9    C2 p+1        0.0478407    0.0254861   -0.1005035   -0.0277504   -0.0670644
 10   C2 p-1       -0.0075943   -0.0008099    0.0090097   -0.1352806    0.0267067
 11   C3 s0         0.0956288    0.0408074   -0.0439218    0.1345558    0.0323349
 12   C3 s0        -0.2392043   -0.1057604    0.1147739   -0.3639215   -0.0882694
 13   C3 p0         0.0000000    0.0000000    0.0000000    0.0000000    0.0000000
 14   C3 p+1       -0.0122238    0.0621078    0.0345391   -0.0512330    0.0874775
 15   C3 p-1        0.0611317    0.0334817   -0.0200202    0.0114078    0.0406842
 16   C4 s0         0.0956288   -0.0408074   -0.0439218   -0.1345558   -0.0323349
 17   C4 s0        -0.2392043    0.1057604    0.1147739    0.3639215    0.0882694
 18   C4 p0         0.0000000    0.0000000    0.0000000    0.0000000    0.0000000
 19   C4 p+1        0.0122238    0.0621078   -0.0345391   -0.0512330    0.0874775
 20   C4 p-1       -0.0611317    0.0334817    0.0200202    0.0114078    0.0406842
 21   C5 s0         0.0961612   -0.0467015   -0.0388534    0.1182811   -0.0748890
 22   C5 s0        -0.2411857    0.1218316    0.1011922   -0.3204514    0.2052530
 23   C5 p0         0.0000000    0.0000000    0.0000000    0.0000000    0.0000000
 24   C5 p+1        0.0302162    0.0483066   -0.0468721    0.0692464    0.0391923
 25   C5 p-1        0.0543574   -0.0515220   -0.0060750   -0.0256805   -0.0573576
 26   C6 s0         0.0961612    0.0467015   -0.0388534   -0.1182811    0.0748890
 27   C6 s0        -0.2411857   -0.1218316    0.1011922    0.3204514   -0.2052530
 28   C6 p0         0.0000000    0.0000000    0.0000000    0.0000000    0.0000000
 29   C6 p+1       -0.0302162    0.0483066    0.0468721    0.0692464    0.0391923
 30   C6 p-1       -0.0543574   -0.0515220    0.0060750   -0.0256805   -0.0573576
 31   H7 s0        -0.0373812   -0.0235158    0.0191127   -0.0869816   -0.0208970
 32   H8 s0        -0.0373812    0.0235158    0.0191127    0.0869816    0.0208970
 33   H9 s0        -0.0385945    0.0285488    0.0129931   -0.0788076    0.0469509
 34   H10 s0       -0.0385945   -0.0285488    0.0129931    0.0788076   -0.0469509
 35   C11 s0        0.0465527   -0.1081222    0.1194865    0.0022932    0.0615641
 36   C11 s0       -0.1180720    0.2789224   -0.3123610   -0.0051458   -0.1622417
 37   C11 p0        0.0000000    0.0000000    0.0000000    0.0000000    0.0000000
 38   C11 p+1       0.0289983   -0.0131927   -0.0579051   -0.0232580   -0.1240490
 39   C11 p-1      -0.0147216    0.0399995   -0.0562394   -0.0246776   -0.0465845
 40   C12 s0        0.0465527    0.1081222    0.1194865   -0.0022932   -0.0615641
 41   C12 s0       -0.1180720   -0.2789224   -0.3123610    0.0051458    0.1622417
 42   C12 p0        0.0000000    0.0000000    0.0000000    0.0000000    0.0000000
 43   C12 p+1      -0.0289983   -0.0131927    0.0579051   -0.0232580   -0.1240490
 44   C12 p-1       0.0147216    0.0399995    0.0562394   -0.0246776   -0.0465845
 45   H13 s0       -0.0203579    0.0542287   -0.0656807    0.0070419   -0.0380162
 46   H14 s0       -0.0203579   -0.0542287   -0.0656807   -0.0070419    0.0380162
 47   C15 s0        0.0227900   -0.0762469    0.1201375    0.0184989    0.1138596
 48   C15 s0       -0.0588091    0.2008911   -0.3225048   -0.0496032   -0.3135659
 49   C15 p0        0.0000000    0.0000000    0.0000000    0.0000000    0.0000000
 50   C15 p+1       0.0204157   -0.0533722    0.0636131    0.0090029    0.0330775
 51   C15 p-1       0.0121260   -0.0374045    0.0536373    0.0009339    0.0425469
 52   C16 s0        0.0227900    0.0762469    0.1201375   -0.0184989   -0.1138596
 53   C16 s0       -0.0588091   -0.2008911   -0.3225048    0.0496032    0.3135659
 54   C16 p0        0.0000000    0.0000000    0.0000000    0.0000000    0.0000000
 55   C16 p+1      -0.0204157   -0.0533722   -0.0636131    0.0090029    0.0330775
 56   C16 p-1      -0.0121260   -0.0374045   -0.0536373    0.0009339    0.0425469
 57   H17 s0       -0.0111862    0.0400303   -0.0669222   -0.0149464   -0.0690581
 58   H18 s0       -0.0111862   -0.0400303   -0.0669222    0.0149464    0.0690581
 59   H19 s0       -0.0080091    0.0338531   -0.0635370   -0.0099897   -0.0743828
 60   H20 s0       -0.0080091   -0.0338531   -0.0635370    0.0099897    0.0743828

            Ene    -1.0207725   -0.9619411   -0.9216380   -0.8992679   -0.8767453
            Sym            Ag           Bu           Ag           Bu           Bu
            Occ             1            1            1            1            1


                           16           17           18           19           20

 1    C1 s0         0.0750349    0.0527915    0.0087801    0.0494116    0.0307356
 2    C1 s0        -0.2240662   -0.1601594   -0.0248319   -0.1508186   -0.1037110
 3    C1 p0         0.0000000    0.0000000    0.0000000    0.0000000    0.0000000
 4    C1 p+1        0.0799462    0.0732006   -0.1613107   -0.1622759    0.1265825
 5    C1 p-1       -0.1324363    0.2043351    0.0624366   -0.0099090   -0.0531202
 6    C2 s0         0.0750349    0.0527915   -0.0087801    0.0494116    0.0307356
 7    C2 s0        -0.2240662   -0.1601594    0.0248319   -0.1508186   -0.1037110
 8    C2 p0         0.0000000    0.0000000    0.0000000    0.0000000    0.0000000
 9    C2 p+1       -0.0799462   -0.0732006   -0.1613107    0.1622759   -0.1265825
 10   C2 p-1        0.1324363   -0.2043351    0.0624366    0.0099090    0.0531202
 11   C3 s0         0.0005860   -0.1130727    0.0500420   -0.0158517    0.0165077
 12   C3 s0        -0.0028824    0.3343540   -0.1535985    0.0545694   -0.0622364
 13   C3 p0         0.0000000    0.0000000    0.0000000    0.0000000    0.0000000
 14   C3 p+1        0.1708102   -0.0369929   -0.0005754    0.0845587    0.1357598
 15   C3 p-1        0.0307115    0.0575223    0.0129460    0.1904572   -0.1321532
 16   C4 s0         0.0005860   -0.1130727   -0.0500420   -0.0158517    0.0165077
 17   C4 s0        -0.0028824    0.3343540    0.1535985    0.0545694   -0.0622364
 18   C4 p0         0.0000000    0.0000000    0.0000000    0.0000000    0.0000000
 19   C4 p+1       -0.1708102    0.0369929   -0.0005754   -0.0845587   -0.1357598
 20   C4 p-1       -0.0307115   -0.0575223    0.0129460   -0.1904572    0.1321532
 21   C5 s0        -0.0866448    0.0570124   -0.0298835   -0.0528805   -0.0153326
 22   C5 s0         0.2490872   -0.1698761    0.0914936    0.1707255    0.0421354
 23   C5 p0         0.0000000    0.0000000    0.0000000    0.0000000    0.0000000
 24   C5 p+1       -0.0321666   -0.1788509    0.0786989    0.0287577   -0.1315167
 25   C5 p-1        0.0574676    0.0886636   -0.0432273    0.2035172   -0.0916858
 26   C6 s0        -0.0866448    0.0570124    0.0298835   -0.0528805   -0.0153326
 27   C6 s0         0.2490872   -0.1698761   -0.0914936    0.1707255    0.0421354
 28   C6 p0         0.0000000    0.0000000    0.0000000    0.0000000    0.0000000
 29   C6 p+1        0.0321666    0.1788509    0.0786989   -0.0287577    0.1315167
 30   C6 p-1       -0.0574676   -0.0886636   -0.0432273   -0.2035172    0.0916858
 31   H7 s0        -0.0157943    0.1442403   -0.0420706    0.1023775   -0.1223719
 32   H8 s0        -0.0157943    0.1442403    0.0420706    0.1023775   -0.1223719
 33   H9 s0         0.0966597   -0.0771480    0.0475554    0.1547962   -0.0883803
 34   H10 s0        0.0966597   -0.0771480   -0.0475554    0.1547962   -0.0883803
 35   C11 s0        0.0491205    0.0052566    0.1000431   -0.0600671   -0.0491041
 36   C11 s0       -0.1481848   -0.0174698   -0.3092585    0.1855689    0.1580365
 37   C11 p0        0.0000000    0.0000000    0.0000000    0.0000000    0.0000000
 38   C11 p+1       0.1368874    0.0811545    0.0617814   -0.0170283    0.1822207
 39   C11 p-1       0.0758750   -0.0424421    0.1097745   -0.0610203   -0.1081548
 40   C12 s0        0.0491205    0.0052566   -0.1000431   -0.0600671   -0.0491041
 41   C12 s0       -0.1481848   -0.0174698    0.3092585    0.1855689    0.1580365
 42   C12 p0        0.0000000    0.0000000    0.0000000    0.0000000    0.0000000
 43   C12 p+1      -0.1368874   -0.0811545    0.0617814    0.0170283   -0.1822207
 44   C12 p-1      -0.0758750    0.0424421    0.1097745    0.0610203    0.1081548
 45   H13 s0       -0.0656775    0.0280619   -0.1528285    0.0999206    0.1458766
 46   H14 s0       -0.0656775    0.0280619    0.1528285    0.0999206    0.1458766
 47   C15 s0       -0.0813223   -0.0402392   -0.0849729    0.0549863    0.0245788
 48   C15 s0        0.2389559    0.1225308    0.2683684   -0.1774742   -0.0912104
 49   C15 p0        0.0000000    0.0000000    0.0000000    0.0000000    0.0000000
 50   C15 p+1       0.0264446    0.0416194    0.0878568   -0.0776816   -0.0133085
 51   C15 p-1       0.0250679   -0.0169311    0.1174150   -0.0741909   -0.2282638
 52   C16 s0       -0.0813223   -0.0402392    0.0849729    0.0549863    0.0245788
 53   C16 s0        0.2389559    0.1225308   -0.2683684   -0.1774742   -0.0912104
 54   C16 p0        0.0000000    0.0000000    0.0000000    0.0000000    0.0000000
 55   C16 p+1      -0.0264446   -0.0416194    0.0878568    0.0776816    0.0133085
 56   C16 p-1      -0.0250679    0.0169311    0.1174150    0.0741909    0.2282638
 57   H17 s0        0.0861266    0.0222275    0.1472486   -0.0878043   -0.1779378
 58   H18 s0        0.0861266    0.0222275   -0.1472486   -0.0878043   -0.1779378
 59   H19 s0        0.0795858    0.0573860    0.1145015   -0.0879657   -0.0037318
 60   H20 s0        0.0795858    0.0573860   -0.1145015   -0.0879657   -0.0037318

            Ene    -0.7871278   -0.7598785   -0.7225125   -0.7036041   -0.6504807
            Sym            Ag           Ag           Bu           Ag           Ag
            Occ             1            1            1            1            1


                           21           22           23           24           25

 1    C1 s0         0.0160633    0.0501734    0.0494097    0.0176164    0.0036496
 2    C1 s0        -0.0565655   -0.1752215   -0.1731749   -0.0601283   -0.0130633
 3    C1 p0         0.0000000    0.0000000    0.0000000    0.0000000    0.0000000
 4    C1 p+1        0.1475601    0.0721946   -0.1549178    0.0021240   -0.1035475
 5    C1 p-1        0.1739076   -0.1814597    0.1444831   -0.0108385   -0.1020842
 6    C2 s0        -0.0160633   -0.0501734   -0.0494097    0.0176164   -0.0036496
 7    C2 s0         0.0565655    0.1752215    0.1731749   -0.0601283    0.0130633
 8    C2 p0         0.0000000    0.0000000    0.0000000    0.0000000    0.0000000
 9    C2 p+1        0.1475601    0.0721946   -0.1549178   -0.0021240   -0.1035475
 10   C2 p-1        0.1739076   -0.1814597    0.1444831    0.0108385   -0.1020842
 11   C3 s0        -0.0159266   -0.0485146   -0.0267303   -0.0245609    0.0212927
 12   C3 s0         0.0544220    0.1665784    0.0960039    0.0830803   -0.0656872
 13   C3 p0         0.0000000    0.0000000    0.0000000    0.0000000    0.0000000
 14   C3 p+1       -0.2150156    0.0894279   -0.0799312    0.0706670   -0.1197486
 15   C3 p-1       -0.0238852    0.1835256    0.1148814   -0.0069386    0.3345285
 16   C4 s0         0.0159266    0.0485146    0.0267303   -0.0245609   -0.0212927
 17   C4 s0        -0.0544220   -0.1665784   -0.0960039    0.0830803    0.0656872
 18   C4 p0         0.0000000    0.0000000    0.0000000    0.0000000    0.0000000
 19   C4 p+1       -0.2150156    0.0894279   -0.0799312   -0.0706670   -0.1197486
 20   C4 p-1       -0.0238852    0.1835256    0.1148814    0.0069386    0.3345285
 21   C5 s0         0.0368758    0.0486333    0.0182608    0.0205336    0.0163808
 22   C5 s0        -0.1203777   -0.1682316   -0.0685414   -0.0762591   -0.0515557
 23   C5 p0         0.0000000    0.0000000    0.0000000    0.0000000    0.0000000
 24   C5 p+1        0.1415304   -0.1800636   -0.0576463   -0.1287858    0.1928326
 25   C5 p-1       -0.1045092    0.0139079   -0.2841958   -0.0355158    0.1961162
 26   C6 s0        -0.0368758   -0.0486333   -0.0182608    0.0205336   -0.0163808
 27   C6 s0         0.1203777    0.1682316    0.0685414   -0.0762591    0.0515557
 28   C6 p0         0.0000000    0.0000000    0.0000000    0.0000000    0.0000000
 29   C6 p+1        0.1415304   -0.1800636   -0.0576463    0.1287858    0.1928326
 30   C6 p-1       -0.1045092    0.0139079   -0.2841958    0.0355158    0.1961162
 31   H7 s0         0.0614503    0.1743397    0.1401885    0.0080486    0.2482651
 32   H8 s0        -0.0614503   -0.1743397   -0.1401885    0.0080486   -0.2482651
 33   H9 s0        -0.0378800   -0.1374105   -0.2340084   -0.1032040    0.1908702
 34   H10 s0        0.0378800    0.1374105    0.2340084   -0.1032040   -0.1908702
 35   C11 s0       -0.0121954    0.0124803    0.0053410   -0.0220671   -0.0036925
 36   C11 s0        0.0357255   -0.0336175   -0.0188132    0.0621392    0.0085497
 37   C11 p0        0.0000000    0.0000000    0.0000000    0.0000000    0.0000000
 38   C11 p+1      -0.0965697   -0.2086129    0.1072504    0.0584888    0.0884667
 39   C11 p-1       0.2114341   -0.0044617    0.0014763    0.2659280    0.0176151
 40   C12 s0        0.0121954   -0.0124803   -0.0053410   -0.0220671    0.0036925
 41   C12 s0       -0.0357255    0.0336175    0.0188132    0.0621392   -0.0085497
 42   C12 p0        0.0000000    0.0000000    0.0000000    0.0000000    0.0000000
 43   C12 p+1      -0.0965697   -0.2086129    0.1072504   -0.0584888    0.0884667
 44   C12 p-1       0.2114341   -0.0044617    0.0014763   -0.2659280    0.0176151
 45   H13 s0       -0.1365352   -0.0539101   -0.0026853   -0.1504351   -0.0060410
 46   H14 s0        0.1365352    0.0539101    0.0026853   -0.1504351    0.0060410
 47   C15 s0        0.0144123   -0.0149066   -0.0049617    0.0028405    0.0035732
 48   C15 s0       -0.0533341    0.0639639    0.0116617   -0.0248833   -0.0181224
 49   C15 p0        0.0000000    0.0000000    0.0000000    0.0000000    0.0000000
 50   C15 p+1      -0.1995209    0.0652008    0.0858678   -0.3507516   -0.0420902
 51   C15 p-1       0.0810479    0.2031556   -0.1752870    0.0003086   -0.0888768
 52   C16 s0       -0.0144123    0.0149066    0.0049617    0.0028405   -0.0035732
 53   C16 s0        0.0533341   -0.0639639   -0.0116617   -0.0248833    0.0181224
 54   C16 p0        0.0000000    0.0000000    0.0000000    0.0000000    0.0000000
 55   C16 p+1      -0.1995209    0.0652008    0.0858678    0.3507516   -0.0420902
 56   C16 p-1       0.0810479    0.2031556   -0.1752870   -0.0003086   -0.0888768
 57   H17 s0        0.0513329    0.1439622   -0.1437360    0.0215445   -0.0538583
 58   H18 s0       -0.0513329   -0.1439622    0.1437360    0.0215445    0.0538583
 59   H19 s0       -0.1513219    0.0278140    0.0955169   -0.2461942   -0.0188313
 60   H20 s0        0.1513219   -0.0278140   -0.0955169   -0.2461942    0.0188313

            Ene    -0.6349835   -0.6040035   -0.5960978   -0.5878267   -0.5688578
            Sym            Bu           Bu           Bu           Ag           Bu
            Occ             1            1            1            1            1


                           26           27           28           29           30

 1    C1 s0         0.0054214    0.0232773    0.0000000    0.0140678    0.0051634
 2    C1 s0        -0.0201636   -0.0852923    0.0000000   -0.0589261   -0.0270041
 3    C1 p0         0.0000000    0.0000000    0.3620450    0.0000000    0.0000000
 4    C1 p+1        0.1632983   -0.0370087    0.0000000    0.2190736    0.2471471
 5    C1 p-1        0.1351351    0.0945622    0.0000000   -0.0826804    0.1822262
 6    C2 s0        -0.0054214    0.0232773    0.0000000   -0.0140678    0.0051634
 7    C2 s0         0.0201636   -0.0852923    0.0000000    0.0589261   -0.0270041
 8    C2 p0         0.0000000    0.0000000    0.3620450    0.0000000    0.0000000
 9    C2 p+1        0.1632983    0.0370087    0.0000000    0.2190736   -0.2471471
 10   C2 p-1        0.1351351   -0.0945622    0.0000000   -0.0826804   -0.1822262
 11   C3 s0        -0.0121681    0.0087382    0.0000000   -0.0037745    0.0003916
 12   C3 s0         0.0460137   -0.0403520    0.0000000    0.0104587   -0.0038052
 13   C3 p0         0.0000000    0.0000000    0.2854261    0.0000000    0.0000000
 14   C3 p+1       -0.2201075    0.1706811    0.0000000    0.0469541   -0.2445773
 15   C3 p-1       -0.0423262   -0.1416405    0.0000000   -0.0543201   -0.1726827
 16   C4 s0         0.0121681    0.0087382    0.0000000    0.0037745    0.0003916
 17   C4 s0        -0.0460137   -0.0403520    0.0000000   -0.0104587   -0.0038052
 18   C4 p0         0.0000000    0.0000000    0.2854261    0.0000000    0.0000000
 19   C4 p+1       -0.2201075   -0.1706811    0.0000000    0.0469541    0.2445773
 20   C4 p-1       -0.0423262    0.1416405    0.0000000   -0.0543201    0.1726827
 21   C5 s0         0.0090333   -0.0091897    0.0000000    0.0101797    0.0036799
 22   C5 s0        -0.0261908    0.0308839    0.0000000   -0.0358303   -0.0041158
 23   C5 p0         0.0000000    0.0000000    0.2874887    0.0000000    0.0000000
 24   C5 p+1        0.2106087   -0.1692243    0.0000000   -0.0098324    0.2173689
 25   C5 p-1       -0.0255639    0.0679355    0.0000000    0.1265548    0.1433334
 26   C6 s0        -0.0090333   -0.0091897    0.0000000   -0.0101797    0.0036799
 27   C6 s0         0.0261908    0.0308839    0.0000000    0.0358303   -0.0041158
 28   C6 p0         0.0000000    0.0000000    0.2874887    0.0000000    0.0000000
 29   C6 p+1        0.2106087    0.1692243    0.0000000   -0.0098324   -0.2173689
 30   C6 p-1       -0.0255639   -0.0679355    0.0000000    0.1265548   -0.1433334
 31   H7 s0         0.0430220   -0.1701832    0.0000000   -0.0394175   -0.0744687
 32   H8 s0        -0.0430220   -0.1701832    0.0000000    0.0394175   -0.0744687
 33   H9 s0         0.0729053   -0.0043768    0.0000000    0.0404600    0.2596485
 34   H10 s0       -0.0729053   -0.0043768    0.0000000   -0.0404600    0.2596485
 35   C11 s0        0.0008264   -0.0236221    0.0000000    0.0052782    0.0139200
 36   C11 s0        0.0132581    0.0967382    0.0000000   -0.0254550   -0.0593918
 37   C11 p0        0.0000000    0.0000000    0.1635920    0.0000000    0.0000000
 38   C11 p+1      -0.1677107   -0.1180608    0.0000000   -0.1392551    0.2108868
 39   C11 p-1      -0.2162461   -0.1931868    0.0000000    0.2354855   -0.0392237
 40   C12 s0       -0.0008264   -0.0236221    0.0000000   -0.0052782    0.0139200
 41   C12 s0       -0.0132581    0.0967382    0.0000000    0.0254550   -0.0593918
 42   C12 p0        0.0000000    0.0000000    0.1635920    0.0000000    0.0000000
 43   C12 p+1      -0.1677107    0.1180608    0.0000000   -0.1392551   -0.2108868
 44   C12 p-1      -0.2162461    0.1931868    0.0000000    0.2354855    0.0392237
 45   H13 s0        0.1392025    0.1727373    0.0000000   -0.2604457    0.0534899
 46   H14 s0       -0.1392025    0.1727373    0.0000000    0.2604457    0.0534899
 47   C15 s0        0.0128778    0.0097017    0.0000000   -0.0066970   -0.0046772
 48   C15 s0       -0.0299407   -0.0239897    0.0000000    0.0245707    0.0097004
 49   C15 p0        0.0000000    0.0000000    0.0926378    0.0000000    0.0000000
 50   C15 p+1       0.2835636   -0.0423852    0.0000000    0.1486035   -0.1520275
 51   C15 p-1       0.0913606    0.2944422    0.0000000   -0.2338755   -0.0146227
 52   C16 s0       -0.0128778    0.0097017    0.0000000    0.0066970   -0.0046772
 53   C16 s0        0.0299407   -0.0239897    0.0000000   -0.0245707    0.0097004
 54   C16 p0        0.0000000    0.0000000    0.0926378    0.0000000    0.0000000
 55   C16 p+1       0.2835636    0.0423852    0.0000000    0.1486035    0.1520275
 56   C16 p-1       0.0913606   -0.2944422    0.0000000   -0.2338755    0.0146227
 57   H17 s0        0.0316252    0.2376599    0.0000000   -0.2353785    0.0516348
 58   H18 s0       -0.0316252    0.2376599    0.0000000    0.2353785    0.0516348
 59   H19 s0        0.1782815   -0.1146131    0.0000000    0.2048836   -0.1278991
 60   H20 s0       -0.1782815   -0.1146131    0.0000000   -0.2048836   -0.1278991

            Ene    -0.5522516   -0.5371118   -0.5336411   -0.5010658   -0.4933134
            Sym            Bu           Ag           Au           Bu           Ag
            Occ             1            1            1            1            1


                           31           32           33           34           35

 1    C1 s0         0.0113093    0.0000000    0.0000000    0.0000000    0.0000000
 2    C1 s0        -0.0509024    0.0000000    0.0000000    0.0000000    0.0000000
 3    C1 p0         0.0000000    0.3837560    0.0286339    0.0054396    0.3778206
 4    C1 p+1        0.1363833    0.0000000    0.0000000    0.0000000    0.0000000
 5    C1 p-1       -0.2568188    0.0000000    0.0000000    0.0000000    0.0000000
 6    C2 s0         0.0113093    0.0000000    0.0000000    0.0000000    0.0000000
 7    C2 s0        -0.0509024    0.0000000    0.0000000    0.0000000    0.0000000
 8    C2 p0         0.0000000   -0.3837560    0.0286339   -0.0054396   -0.3778206
 9    C2 p+1       -0.1363833    0.0000000    0.0000000    0.0000000    0.0000000
 10   C2 p-1        0.2568188    0.0000000    0.0000000    0.0000000    0.0000000
 11   C3 s0         0.0057282    0.0000000    0.0000000    0.0000000    0.0000000
 12   C3 s0        -0.0131343    0.0000000    0.0000000    0.0000000    0.0000000
 13   C3 p0         0.0000000    0.1342333    0.1689991    0.4608210    0.1940613
 14   C3 p+1       -0.0886215    0.0000000    0.0000000    0.0000000    0.0000000
 15   C3 p-1        0.2019640    0.0000000    0.0000000    0.0000000    0.0000000
 16   C4 s0         0.0057282    0.0000000    0.0000000    0.0000000    0.0000000
 17   C4 s0        -0.0131343    0.0000000    0.0000000    0.0000000    0.0000000
 18   C4 p0         0.0000000   -0.1342333    0.1689991   -0.4608210   -0.1940613
 19   C4 p+1        0.0886215    0.0000000    0.0000000    0.0000000    0.0000000
 20   C4 p-1       -0.2019640    0.0000000    0.0000000    0.0000000    0.0000000
 21   C5 s0        -0.0022154    0.0000000    0.0000000    0.0000000    0.0000000
 22   C5 s0         0.0044595    0.0000000    0.0000000    0.0000000    0.0000000
 23   C5 p0         0.0000000   -0.1401928    0.1678591    0.4604172   -0.2011000
 24   C5 p+1        0.1101698    0.0000000    0.0000000    0.0000000    0.0000000
 25   C5 p-1       -0.2514163    0.0000000    0.0000000    0.0000000    0.0000000
 26   C6 s0        -0.0022154    0.0000000    0.0000000    0.0000000    0.0000000
 27   C6 s0         0.0044595    0.0000000    0.0000000    0.0000000    0.0000000
 28   C6 p0         0.0000000    0.1401928    0.1678591   -0.4604172    0.2011000
 29   C6 p+1       -0.1101698    0.0000000    0.0000000    0.0000000    0.0000000
 30   C6 p-1        0.2514163    0.0000000    0.0000000    0.0000000    0.0000000
 31   H7 s0         0.2345027    0.0000000    0.0000000    0.0000000    0.0000000
 32   H8 s0         0.2345027    0.0000000    0.0000000    0.0000000    0.0000000
 33   H9 s0        -0.1105804    0.0000000    0.0000000    0.0000000    0.0000000
 34   H10 s0       -0.1105804    0.0000000    0.0000000    0.0000000    0.0000000
 35   C11 s0        0.0076352    0.0000000    0.0000000    0.0000000    0.0000000
 36   C11 s0       -0.0248812    0.0000000    0.0000000    0.0000000    0.0000000
 37   C11 p0        0.0000000   -0.3429222   -0.3899084   -0.0049418    0.2282660
 38   C11 p+1       0.1379618    0.0000000    0.0000000    0.0000000    0.0000000
 39   C11 p-1      -0.1654788    0.0000000    0.0000000    0.0000000    0.0000000
 40   C12 s0        0.0076352    0.0000000    0.0000000    0.0000000    0.0000000
 41   C12 s0       -0.0248812    0.0000000    0.0000000    0.0000000    0.0000000
 42   C12 p0        0.0000000    0.3429222   -0.3899084    0.0049418   -0.2282660
 43   C12 p+1      -0.1379618    0.0000000    0.0000000    0.0000000    0.0000000
 44   C12 p-1       0.1654788    0.0000000    0.0000000    0.0000000    0.0000000
 45   H13 s0        0.2007495    0.0000000    0.0000000    0.0000000    0.0000000
 46   H14 s0        0.2007495    0.0000000    0.0000000    0.0000000    0.0000000
 47   C15 s0        0.0048097    0.0000000    0.0000000    0.0000000    0.0000000
 48   C15 s0       -0.0194037    0.0000000    0.0000000    0.0000000    0.0000000
 49   C15 p0        0.0000000   -0.2654415   -0.4475265    0.0047833    0.4294180
 50   C15 p+1      -0.0785468    0.0000000    0.0000000    0.0000000    0.0000000
 51   C15 p-1       0.1378314    0.0000000    0.0000000    0.0000000    0.0000000
 52   C16 s0        0.0048097    0.0000000    0.0000000    0.0000000    0.0000000
 53   C16 s0       -0.0194037    0.0000000    0.0000000    0.0000000    0.0000000
 54   C16 p0        0.0000000    0.2654415   -0.4475265   -0.0047833   -0.4294180
 55   C16 p+1       0.0785468    0.0000000    0.0000000    0.0000000    0.0000000
 56   C16 p-1      -0.1378314    0.0000000    0.0000000    0.0000000    0.0000000
 57   H17 s0        0.1412037    0.0000000    0.0000000    0.0000000    0.0000000
 58   H18 s0        0.1412037    0.0000000    0.0000000    0.0000000    0.0000000
 59   H19 s0       -0.1213566    0.0000000    0.0000000    0.0000000    0.0000000
 60   H20 s0       -0.1213566    0.0000000    0.0000000    0.0000000    0.0000000

            Ene    -0.4827267   -0.4736219   -0.4179145   -0.3943510   -0.3697135
            Sym            Ag           Bg           Au           Bg           Bg
            Occ             1            1            1            1            1


                           36           37           38           39           40

 1    C1 s0         0.0000000    0.0000000    0.0000000    0.0000000    0.0000000
 2    C1 s0         0.0000000    0.0000000    0.0000000    0.0000000    0.0000000
 3    C1 p0         0.4546085    0.0292703    0.0167533    0.4680620    0.5268741
 4    C1 p+1        0.0000000    0.0000000    0.0000000    0.0000000    0.0000000
 5    C1 p-1        0.0000000    0.0000000    0.0000000    0.0000000    0.0000000
 6    C2 s0         0.0000000    0.0000000    0.0000000    0.0000000    0.0000000
 7    C2 s0         0.0000000    0.0000000    0.0000000    0.0000000    0.0000000
 8    C2 p0         0.4546085    0.0292703   -0.0167533    0.4680620   -0.5268741
 9    C2 p+1        0.0000000    0.0000000    0.0000000    0.0000000    0.0000000
 10   C2 p-1        0.0000000    0.0000000    0.0000000    0.0000000    0.0000000
 11   C3 s0         0.0000000    0.0000000    0.0000000    0.0000000    0.0000000
 12   C3 s0         0.0000000    0.0000000    0.0000000    0.0000000    0.0000000
 13   C3 p0        -0.2570395   -0.5836013   -0.2453678   -0.1596742   -0.4729640
 14   C3 p+1        0.0000000    0.0000000    0.0000000    0.0000000    0.0000000
 15   C3 p-1        0.0000000    0.0000000    0.0000000    0.0000000    0.0000000
 16   C4 s0         0.0000000    0.0000000    0.0000000    0.0000000    0.0000000
 17   C4 s0         0.0000000    0.0000000    0.0000000    0.0000000    0.0000000
 18   C4 p0        -0.2570395   -0.5836013    0.2453678   -0.1596742    0.4729640
 19   C4 p+1        0.0000000    0.0000000    0.0000000    0.0000000    0.0000000
 20   C4 p-1        0.0000000    0.0000000    0.0000000    0.0000000    0.0000000
 21   C5 s0         0.0000000    0.0000000    0.0000000    0.0000000    0.0000000
 22   C5 s0         0.0000000    0.0000000    0.0000000    0.0000000    0.0000000
 23   C5 p0        -0.2989460    0.5524596    0.2353891   -0.1920647    0.4737727
 24   C5 p+1        0.0000000    0.0000000    0.0000000    0.0000000    0.0000000
 25   C5 p-1        0.0000000    0.0000000    0.0000000    0.0000000    0.0000000
 26   C6 s0         0.0000000    0.0000000    0.0000000    0.0000000    0.0000000
 27   C6 s0         0.0000000    0.0000000    0.0000000    0.0000000    0.0000000
 28   C6 p0        -0.2989460    0.5524596   -0.2353891   -0.1920647   -0.4737727
 29   C6 p+1        0.0000000    0.0000000    0.0000000    0.0000000    0.0000000
 30   C6 p-1        0.0000000    0.0000000    0.0000000    0.0000000    0.0000000
 31   H7 s0         0.0000000    0.0000000    0.0000000    0.0000000    0.0000000
 32   H8 s0         0.0000000    0.0000000    0.0000000    0.0000000    0.0000000
 33   H9 s0         0.0000000    0.0000000    0.0000000    0.0000000    0.0000000
 34   H10 s0        0.0000000    0.0000000    0.0000000    0.0000000    0.0000000
 35   C11 s0        0.0000000    0.0000000    0.0000000    0.0000000    0.0000000
 36   C11 s0        0.0000000    0.0000000    0.0000000    0.0000000    0.0000000
 37   C11 p0        0.2480414   -0.0054098   -0.5405527   -0.5538306    0.2920494
 38   C11 p+1       0.0000000    0.0000000    0.0000000    0.0000000    0.0000000
 39   C11 p-1       0.0000000    0.0000000    0.0000000    0.0000000    0.0000000
 40   C12 s0        0.0000000    0.0000000    0.0000000    0.0000000    0.0000000
 41   C12 s0        0.0000000    0.0000000    0.0000000    0.0000000    0.0000000
 42   C12 p0        0.2480414   -0.0054098    0.5405527   -0.5538306   -0.2920494
 43   C12 p+1       0.0000000    0.0000000    0.0000000    0.0000000    0.0000000
 44   C12 p-1       0.0000000    0.0000000    0.0000000    0.0000000    0.0000000
 45   H13 s0        0.0000000    0.0000000    0.0000000    0.0000000    0.0000000
 46   H14 s0        0.0000000    0.0000000    0.0000000    0.0000000    0.0000000
 47   C15 s0        0.0000000    0.0000000    0.0000000    0.0000000    0.0000000
 48   C15 s0        0.0000000    0.0000000    0.0000000    0.0000000    0.0000000
 49   C15 p0       -0.4140881   -0.0076886    0.5005462    0.3863720   -0.1557086
 50   C15 p+1       0.0000000    0.0000000    0.0000000    0.0000000    0.0000000
 51   C15 p-1       0.0000000    0.0000000    0.0000000    0.0000000    0.0000000
 52   C16 s0        0.0000000    0.0000000    0.0000000    0.0000000    0.0000000
 53   C16 s0        0.0000000    0.0000000    0.0000000    0.0000000    0.0000000
 54   C16 p0       -0.4140881   -0.0076886   -0.5005462    0.3863720    0.1557086
 55   C16 p+1       0.0000000    0.0000000    0.0000000    0.0000000    0.0000000
 56   C16 p-1       0.0000000    0.0000000    0.0000000    0.0000000    0.0000000
 57   H17 s0        0.0000000    0.0000000    0.0000000    0.0000000    0.0000000
 58   H18 s0        0.0000000    0.0000000    0.0000000    0.0000000    0.0000000
 59   H19 s0        0.0000000    0.0000000    0.0000000    0.0000000    0.0000000
 60   H20 s0        0.0000000    0.0000000    0.0000000    0.0000000    0.0000000

            Ene    -0.1774498   -0.1115282   -0.0943556   -0.0296203    0.0599613
            Sym            Au           Au           Bg           Au           Bg
            Occ             0            0            0            0            0


                           41           42           43           44           45

 1    C1 s0         0.0821099    0.0499703    0.0589041    0.0382614    0.0709561
 2    C1 s0        -0.4880073   -0.2939259   -0.3433490   -0.2345302   -0.4336230
 3    C1 p0         0.0000000    0.0000000    0.0000000    0.0000000    0.0000000
 4    C1 p+1        0.2938197    0.2224843    0.4467316   -0.1074440    0.1143040
 5    C1 p-1       -0.0925334   -0.2993775    0.1836844   -0.1105730    0.3278337
 6    C2 s0         0.0821099   -0.0499703   -0.0589041    0.0382614    0.0709561
 7    C2 s0        -0.4880073    0.2939259    0.3433490   -0.2345302   -0.4336230
 8    C2 p0         0.0000000    0.0000000    0.0000000    0.0000000    0.0000000
 9    C2 p+1       -0.2938197    0.2224843    0.4467316    0.1074440   -0.1143040
 10   C2 p-1        0.0925334   -0.2993775    0.1836844    0.1105730   -0.3278337
 11   C3 s0         0.0193453   -0.0171391   -0.0256164   -0.0758110    0.0662983
 12   C3 s0        -0.1190736    0.0983684    0.1532942    0.4673187   -0.4060549
 13   C3 p0         0.0000000    0.0000000    0.0000000    0.0000000    0.0000000
 14   C3 p+1        0.0185652    0.0437579    0.2588280   -0.1541744   -0.2348655
 15   C3 p-1       -0.2951823   -0.3398726    0.1893166   -0.0239189    0.0070617
 16   C4 s0         0.0193453    0.0171391    0.0256164   -0.0758110    0.0662983
 17   C4 s0        -0.1190736   -0.0983684   -0.1532942    0.4673187   -0.4060549
 18   C4 p0         0.0000000    0.0000000    0.0000000    0.0000000    0.0000000
 19   C4 p+1       -0.0185652    0.0437579    0.2588280    0.1541744    0.2348655
 20   C4 p-1        0.2951823   -0.3398726    0.1893166    0.0239189   -0.0070617
 21   C5 s0         0.0383476    0.0209701    0.0155251   -0.0286529   -0.1252011
 22   C5 s0        -0.2320833   -0.1233402   -0.0894012    0.1805945    0.7708943
 23   C5 p0         0.0000000    0.0000000    0.0000000    0.0000000    0.0000000
 24   C5 p+1       -0.0839243    0.0726502    0.2883063    0.2474978    0.0030219
 25   C5 p-1       -0.2075687   -0.2559941    0.3047166    0.1497177   -0.1237814
 26   C6 s0         0.0383476   -0.0209701   -0.0155251   -0.0286529   -0.1252011
 27   C6 s0        -0.2320833    0.1233402    0.0894012    0.1805945    0.7708943
 28   C6 p0         0.0000000    0.0000000    0.0000000    0.0000000    0.0000000
 29   C6 p+1        0.0839243    0.0726502    0.2883063   -0.2474978   -0.0030219
 30   C6 p-1        0.2075687   -0.2559941    0.3047166   -0.1497177    0.1237814
 31   H7 s0         0.3780894    0.2955119   -0.1670121   -0.3218370    0.1474361
 32   H8 s0         0.3780894   -0.2955119    0.1670121   -0.3218370    0.1474361
 33   H9 s0         0.3906229    0.2232014   -0.4000592   -0.3325730   -0.2701005
 34   H10 s0        0.3906229   -0.2232014    0.4000592   -0.3325730   -0.2701005
 35   C11 s0       -0.0604890    0.0202405    0.0999033    0.0537228   -0.0357112
 36   C11 s0        0.3475568   -0.1193879   -0.5872235   -0.3229106    0.2175311
 37   C11 p0        0.0000000    0.0000000    0.0000000    0.0000000    0.0000000
 38   C11 p+1      -0.3725073    0.2852385    0.3252499   -0.0761666   -0.2272472
 39   C11 p-1       0.2453004   -0.3273612    0.0164359    0.2941482   -0.1827669
 40   C12 s0       -0.0604890   -0.0202405   -0.0999033    0.0537228   -0.0357112
 41   C12 s0        0.3475568    0.1193879    0.5872235   -0.3229106    0.2175311
 42   C12 p0        0.0000000    0.0000000    0.0000000    0.0000000    0.0000000
 43   C12 p+1       0.3725073    0.2852385    0.3252499    0.0761666    0.2272472
 44   C12 p-1      -0.2453004   -0.3273612    0.0164359   -0.2941482    0.1827669
 45   H13 s0        0.1226206   -0.3538372    0.2677843    0.5207749   -0.2586338
 46   H14 s0        0.1226206    0.3538372   -0.2677843    0.5207749   -0.2586338
 47   C15 s0        0.0383708   -0.0097713   -0.0352892   -0.0222353   -0.0817225
 48   C15 s0       -0.2222011    0.0593859    0.2017230    0.1290624    0.5189134
 49   C15 p0        0.0000000    0.0000000    0.0000000    0.0000000    0.0000000
 50   C15 p+1      -0.1193191    0.1396963    0.0559073   -0.2104308    0.0416580
 51   C15 p-1       0.1550048   -0.3137412   -0.0551119    0.3057347    0.1613768
 52   C16 s0        0.0383708    0.0097713    0.0352892   -0.0222353   -0.0817225
 53   C16 s0       -0.2222011   -0.0593859   -0.2017230    0.1290624    0.5189134
 54   C16 p0        0.0000000    0.0000000    0.0000000    0.0000000    0.0000000
 55   C16 p+1       0.1193191    0.1396963    0.0559073    0.2104308   -0.0416580
 56   C16 p-1      -0.1550048   -0.3137412   -0.0551119   -0.3057347   -0.1613768
 57   H17 s0       -0.1324041    0.3229817   -0.0023702   -0.4031214   -0.3867500
 58   H18 s0       -0.1324041   -0.3229817    0.0023702   -0.4031214   -0.3867500
 59   H19 s0        0.3474782   -0.3047571   -0.2177492    0.2262396   -0.2568213
 60   H20 s0        0.3474782    0.3047571    0.2177492    0.2262396   -0.2568213

            Ene     0.1397040    0.1489954    0.1792466    0.1964418    0.2146665
            Sym            Ag           Bu           Bu           Ag           Ag
            Occ             0            0            0            0            0


                           46           47           48           49           50

 1    C1 s0         0.0839308    0.1174038    0.0170492    0.0583043    0.0257161
 2    C1 s0        -0.5051204   -0.7242902   -0.1128419   -0.3537260   -0.1634875
 3    C1 p0         0.0000000    0.0000000    0.0000000    0.0000000    0.0000000
 4    C1 p+1       -0.1083766   -0.1728725   -0.1968275   -0.1158178   -0.0365445
 5    C1 p-1        0.1487148   -0.0456448    0.0909214   -0.1924457   -0.3263456
 6    C2 s0        -0.0839308    0.1174038   -0.0170492   -0.0583043    0.0257161
 7    C2 s0         0.5051204   -0.7242902    0.1128419    0.3537260   -0.1634875
 8    C2 p0         0.0000000    0.0000000    0.0000000    0.0000000    0.0000000
 9    C2 p+1       -0.1083766    0.1728725   -0.1968275   -0.1158178    0.0365445
 10   C2 p-1        0.1487148    0.0456448    0.0909214   -0.1924457    0.3263456
 11   C3 s0        -0.0810822   -0.1021708   -0.0441376   -0.0586357   -0.0901607
 12   C3 s0         0.4842816    0.6387059    0.2757363    0.3612585    0.5738395
 13   C3 p0         0.0000000    0.0000000    0.0000000    0.0000000    0.0000000
 14   C3 p+1       -0.0806371   -0.2320032   -0.3032924   -0.1514875    0.1428878
 15   C3 p-1        0.1108336   -0.0447481    0.2568155   -0.1725204   -0.1485851
 16   C4 s0         0.0810822   -0.1021708    0.0441376    0.0586357   -0.0901607
 17   C4 s0        -0.4842816    0.6387059   -0.2757363   -0.3612585    0.5738395
 18   C4 p0         0.0000000    0.0000000    0.0000000    0.0000000    0.0000000
 19   C4 p+1       -0.0806371    0.2320032   -0.3032924   -0.1514875   -0.1428878
 20   C4 p-1        0.1108336    0.0447481    0.2568155   -0.1725204    0.1485851
 21   C5 s0         0.1058257   -0.0370503   -0.0097692    0.0530165    0.0899306
 22   C5 s0        -0.6433675    0.2346301    0.0704954   -0.3237846   -0.5744428
 23   C5 p0         0.0000000    0.0000000    0.0000000    0.0000000    0.0000000
 24   C5 p+1       -0.2194182    0.2464583   -0.0785492   -0.0898795    0.1752492
 25   C5 p-1        0.0441945   -0.2793611    0.2378467   -0.1452828   -0.0679745
 26   C6 s0        -0.1058257   -0.0370503    0.0097692   -0.0530165    0.0899306
 27   C6 s0         0.6433675    0.2346301   -0.0704954    0.3237846   -0.5744428
 28   C6 p0         0.0000000    0.0000000    0.0000000    0.0000000    0.0000000
 29   C6 p+1       -0.2194182   -0.2464583   -0.0785492   -0.0898795   -0.1752492
 30   C6 p-1        0.0441945    0.2793611    0.2378467   -0.1452828    0.0679745
 31   H7 s0        -0.4126780   -0.3400449   -0.5101472   -0.0661520   -0.1072934
 32   H8 s0         0.4126780   -0.3400449    0.5101472    0.0661520   -0.1072934
 33   H9 s0         0.4096776   -0.0925478   -0.1313328    0.4007918    0.2795862
 34   H10 s0       -0.4096776   -0.0925478    0.1313328   -0.4007918    0.2795862
 35   C11 s0        0.0180631   -0.0798895   -0.0661126    0.0765576   -0.0259428
 36   C11 s0       -0.1151352    0.4832689    0.4196302   -0.4693078    0.1862947
 37   C11 p0        0.0000000    0.0000000    0.0000000    0.0000000    0.0000000
 38   C11 p+1       0.1193323    0.0008866   -0.0444590   -0.1375081   -0.0716425
 39   C11 p-1       0.1352884   -0.0997710   -0.2588072    0.0368475   -0.0646746
 40   C12 s0       -0.0180631   -0.0798895    0.0661126   -0.0765576   -0.0259428
 41   C12 s0        0.1151352    0.4832689   -0.4196302    0.4693078    0.1862947
 42   C12 p0        0.0000000    0.0000000    0.0000000    0.0000000    0.0000000
 43   C12 p+1       0.1193323   -0.0008866   -0.0444590   -0.1375081    0.0716425
 44   C12 p-1       0.1352884    0.0997710   -0.2588072    0.0368475    0.0646746
 45   H13 s0        0.1318971   -0.3466753   -0.4583170    0.3119238   -0.0949519
 46   H14 s0       -0.1318971   -0.3466753    0.4583170   -0.3119238   -0.0949519
 47   C15 s0        0.0762683    0.0746647   -0.0439252   -0.1164885   -0.0814485
 48   C15 s0       -0.4815936   -0.4607259    0.2842693    0.7381498    0.5245314
 49   C15 p0        0.0000000    0.0000000    0.0000000    0.0000000    0.0000000
 50   C15 p+1      -0.0722533    0.0516125    0.3406890   -0.0478982    0.4077784
 51   C15 p-1      -0.2073935   -0.1115954   -0.0248470    0.1671186    0.1376559
 52   C16 s0       -0.0762683    0.0746647    0.0439252    0.1164885   -0.0814485
 53   C16 s0        0.4815936   -0.4607259   -0.2842693   -0.7381498    0.5245314
 54   C16 p0        0.0000000    0.0000000    0.0000000    0.0000000    0.0000000
 55   C16 p+1      -0.0722533   -0.0516125    0.3406890   -0.0478982   -0.4077784
 56   C16 p-1      -0.2073935    0.1115954   -0.0248470    0.1671186   -0.1376559
 57   H17 s0        0.3955655    0.3564857   -0.0285332   -0.5766954   -0.3444288
 58   H18 s0       -0.3955655    0.3564857    0.0285332    0.5766954   -0.3444288
 59   H19 s0        0.2586362    0.1665849   -0.4621604   -0.2803739   -0.5698048
 60   H20 s0       -0.2586362    0.1665849    0.4621604    0.2803739   -0.5698048

            Ene     0.2203367    0.2396626    0.2405645    0.2629922    0.2852954
            Sym            Bu           Ag           Bu           Bu           Ag
            Occ             0            0            0            0            0


                           51           52           53           54           55

 1    C1 s0         0.0455958   -0.0003322    0.0016939    0.0629964    0.0772832
 2    C1 s0        -0.3176085    0.0101290   -0.0063154   -0.4394107   -0.5293814
 3    C1 p0         0.0000000    0.0000000    0.0000000    0.0000000    0.0000000
 4    C1 p+1       -0.6134159   -0.0685573    0.0177571    0.0398535    0.0191938
 5    C1 p-1        0.1373773   -0.5498748   -0.1548967   -0.1842865    0.1932068
 6    C2 s0         0.0455958    0.0003322    0.0016939   -0.0629964   -0.0772832
 7    C2 s0        -0.3176085   -0.0101290   -0.0063154    0.4394107    0.5293814
 8    C2 p0         0.0000000    0.0000000    0.0000000    0.0000000    0.0000000
 9    C2 p+1        0.6134159   -0.0685573   -0.0177571    0.0398535    0.0191938
 10   C2 p-1       -0.1373773   -0.5498748    0.1548967   -0.1842865    0.1932068
 11   C3 s0         0.0019804   -0.0952926    0.0117942    0.0481498    0.0003157
 12   C3 s0        -0.0094108    0.6406046   -0.0694692   -0.3264875   -0.0121134
 13   C3 p0         0.0000000    0.0000000    0.0000000    0.0000000    0.0000000
 14   C3 p+1       -0.1100450   -0.1440147    0.1598638   -0.7069059   -0.0075174
 15   C3 p-1       -0.4399680    0.0595813   -0.5439552   -0.2342430   -0.2486064
 16   C4 s0         0.0019804    0.0952926    0.0117942   -0.0481498   -0.0003157
 17   C4 s0        -0.0094108   -0.6406046   -0.0694692    0.3264875    0.0121134
 18   C4 p0         0.0000000    0.0000000    0.0000000    0.0000000    0.0000000
 19   C4 p+1        0.1100450   -0.1440147   -0.1598638   -0.7069059   -0.0075174
 20   C4 p-1        0.4399680    0.0595813    0.5439552   -0.2342430   -0.2486064
 21   C5 s0        -0.0363790   -0.0441158   -0.0150346   -0.0853502    0.0383479
 22   C5 s0         0.2376961    0.3053883    0.0899788    0.5851933   -0.2580931
 23   C5 p0         0.0000000    0.0000000    0.0000000    0.0000000    0.0000000
 24   C5 p+1       -0.0843802    0.4706885    0.3534204   -0.4330598   -0.0974418
 25   C5 p-1       -0.3358297   -0.1550426    0.5083410    0.3797802    0.3182537
 26   C6 s0        -0.0363790    0.0441158   -0.0150346    0.0853502   -0.0383479
 27   C6 s0         0.2376961   -0.3053883    0.0899788   -0.5851933    0.2580931
 28   C6 p0         0.0000000    0.0000000    0.0000000    0.0000000    0.0000000
 29   C6 p+1        0.0843802    0.4706885   -0.3534204   -0.4330598   -0.0974418
 30   C6 p-1        0.3358297   -0.1550426   -0.5083410    0.3797802    0.3182537
 31   H7 s0         0.3033411   -0.3558408    0.4984195    0.1245566    0.1429017
 32   H8 s0         0.3033411    0.3558408    0.4984195   -0.1245566   -0.1429017
 33   H9 s0         0.1380080   -0.2711044   -0.5499993   -0.2727729   -0.0003719
 34   H10 s0        0.1380080    0.2711044   -0.5499993    0.2727729    0.0003719
 35   C11 s0        0.0925631    0.0226477   -0.0461674    0.0561602   -0.0354713
 36   C11 s0       -0.6002418   -0.1697550    0.3171580   -0.3832075    0.2591114
 37   C11 p0        0.0000000    0.0000000    0.0000000    0.0000000    0.0000000
 38   C11 p+1       0.0185220   -0.0583858    0.1637641    0.0020219    0.4710441
 39   C11 p-1       0.1244002   -0.2245823    0.1377045    0.0413681   -0.3175301
 40   C12 s0        0.0925631   -0.0226477   -0.0461674   -0.0561602    0.0354713
 41   C12 s0       -0.6002418    0.1697550    0.3171580    0.3832075   -0.2591114
 42   C12 p0        0.0000000    0.0000000    0.0000000    0.0000000    0.0000000
 43   C12 p+1      -0.0185220   -0.0583858   -0.1637641    0.0020219    0.4710441
 44   C12 p-1      -0.1244002   -0.2245823   -0.1377045    0.0413681   -0.3175301
 45   H13 s0        0.3434875   -0.1323579   -0.0747224    0.2074938   -0.4014171
 46   H14 s0        0.3434875    0.1323579   -0.0747224   -0.2074938    0.4014171
 47   C15 s0       -0.0290449    0.0042125    0.0425594   -0.0005622    0.0212071
 48   C15 s0        0.1834299   -0.0151660   -0.2941918    0.0004351   -0.1494590
 49   C15 p0        0.0000000    0.0000000    0.0000000    0.0000000    0.0000000
 50   C15 p+1       0.0621000   -0.4591774    0.2657326   -0.1238292   -0.2402008
 51   C15 p-1      -0.3167820   -0.0310912    0.0635092   -0.1956147    0.5583579
 52   C16 s0       -0.0290449   -0.0042125    0.0425594    0.0005622   -0.0212071
 53   C16 s0        0.1834299    0.0151660   -0.2941918   -0.0004351    0.1494590
 54   C16 p0        0.0000000    0.0000000    0.0000000    0.0000000    0.0000000
 55   C16 p+1      -0.0621000   -0.4591774   -0.2657326   -0.1238292   -0.2402008
 56   C16 p-1       0.3167820   -0.0310912   -0.0635092   -0.1956147    0.5583579
 57   H17 s0        0.1733969   -0.0131466    0.1651211    0.1750268   -0.3909047
 58   H18 s0        0.1733969    0.0131466    0.1651211   -0.1750268    0.3909047
 59   H19 s0       -0.2302503    0.3775782   -0.0703870    0.0418166    0.3679420
 60   H20 s0       -0.2302503   -0.3775782   -0.0703870   -0.0418166   -0.3679420

            Ene     0.3197791    0.3442714    0.3799795    0.3978289    0.4254588
            Sym            Ag           Bu           Ag           Bu           Bu
            Occ             0            0            0            0            0


                           56           57           58           59           60

 1    C1 s0         0.0147165    0.0189197    0.0198573    0.0055146    0.0401054
 2    C1 s0        -0.0906790   -0.1216531   -0.1408832   -0.0367104   -0.3034613
 3    C1 p0         0.0000000    0.0000000    0.0000000    0.0000000    0.0000000
 4    C1 p+1        0.2784177    0.3832565   -0.1333687   -0.0458321   -0.6436889
 5    C1 p-1       -0.1192199    0.1140024   -0.4444576   -0.6915249    0.1574196
 6    C2 s0         0.0147165    0.0189197   -0.0198573    0.0055146   -0.0401054
 7    C2 s0        -0.0906790   -0.1216531    0.1408832   -0.0367104    0.3034613
 8    C2 p0         0.0000000    0.0000000    0.0000000    0.0000000    0.0000000
 9    C2 p+1       -0.2784177   -0.3832565   -0.1333687    0.0458321   -0.6436889
 10   C2 p-1        0.1192199   -0.1140024   -0.4444576    0.6915249    0.1574196
 11   C3 s0         0.0257824   -0.0187289   -0.0448545   -0.0048063   -0.0473529
 12   C3 s0        -0.1828874    0.1339877    0.3250207    0.0341565    0.3458394
 13   C3 p0         0.0000000    0.0000000    0.0000000    0.0000000    0.0000000
 14   C3 p+1       -0.4264557    0.3505847   -0.1255565   -0.5424824    0.2462528
 15   C3 p-1        0.2311921    0.1141707   -0.1961527   -0.2417709   -0.5672619
 16   C4 s0         0.0257824   -0.0187289    0.0448545   -0.0048063    0.0473529
 17   C4 s0        -0.1828874    0.1339877   -0.3250207    0.0341565   -0.3458394
 18   C4 p0         0.0000000    0.0000000    0.0000000    0.0000000    0.0000000
 19   C4 p+1        0.4264557   -0.3505847   -0.1255565    0.5424824    0.2462528
[...]
 52   C16 s0       -0.0699037    0.0351571    0.0749165    0.1253257   -0.0859613
 53   C16 s0        0.4376140   -0.2268266   -0.4581782   -0.7883712    0.5485135
 54   C16 p0        0.0000000    0.0000000    0.0000000    0.0000000    0.0000000
 55   C16 p+1      -0.0633331    0.3410311   -0.0442329    0.0008505   -0.4072036
 56   C16 p-1      -0.2108104   -0.0358571    0.0927137    0.1746958   -0.1625104
 57   H17 s0        0.3727019    0.0166757    0.3307155   -0.5899899   -0.3742152
 58   H18 s0       -0.3727019   -0.0166757    0.3307155    0.5899899   -0.3742152
 59   H19 s0        0.2247867   -0.4343747    0.1777568   -0.3452041   -0.5701889
 60   H20 s0       -0.2247867    0.4343747    0.1777568    0.3452041   -0.5701889

            Ene     0.2257249    0.2420123    0.2463150    0.2700057    0.2904437
            Sym            Bu           Bu           Ag           Bu           Ag
            Occ             0            0            0            0            0


                           51           52           53           54           55

 1    C1 s0         0.0511008    0.0014016    0.0015107    0.0626346    0.0802695
 2    C1 s0        -0.3506467   -0.0173212   -0.0049577   -0.4337548   -0.5469267
 3    C1 p0         0.0000000    0.0000000    0.0000000    0.0000000    0.0000000
 4    C1 p+1       -0.6192272    0.0703118    0.0204273    0.0408077    0.0240590
 5    C1 p-1        0.1312160    0.5506503   -0.1574146   -0.2010488    0.1968640
 6    C2 s0         0.0511008   -0.0014016    0.0015107   -0.0626346   -0.0802695
 7    C2 s0        -0.3506467    0.0173212   -0.0049577    0.4337548    0.5469267
 8    C2 p0         0.0000000    0.0000000    0.0000000    0.0000000    0.0000000
 9    C2 p+1        0.6192272    0.0703118   -0.0204273    0.0408077    0.0240590
 10   C2 p-1       -0.1312160    0.5506503    0.1574146   -0.2010488    0.1968640
 11   C3 s0        -0.0021449    0.0957225    0.0101542    0.0456105    0.0015563
 12   C3 s0         0.0171160   -0.6438162   -0.0583995   -0.3094403   -0.0213373
 13   C3 p0         0.0000000    0.0000000    0.0000000    0.0000000    0.0000000
 14   C3 p+1       -0.1164130    0.1306920    0.1718856   -0.7101609   -0.0255838
 15   C3 p-1       -0.4488869   -0.0574535   -0.5444526   -0.2254795   -0.2486249
 16   C4 s0        -0.0021449   -0.0957225    0.0101542   -0.0456105   -0.0015563
 17   C4 s0         0.0171160    0.6438162   -0.0583995    0.3094403    0.0213373
 18   C4 p0         0.0000000    0.0000000    0.0000000    0.0000000    0.0000000
 19   C4 p+1        0.1164130    0.1306920   -0.1718856   -0.7101609   -0.0255838
 20   C4 p-1        0.4488869   -0.0574535    0.5444526   -0.2254795   -0.2486249
 21   C5 s0        -0.0372875    0.0422186   -0.0132955   -0.0861753    0.0375521
 22   C5 s0         0.2433904   -0.2926893    0.0782335    0.5912939   -0.2521552
 23   C5 p0         0.0000000    0.0000000    0.0000000    0.0000000    0.0000000
 24   C5 p+1       -0.0712222   -0.4761507    0.3657511   -0.4244967   -0.1161290
 25   C5 p-1       -0.3418724    0.1655642    0.5089507    0.3655731    0.3275165
 26   C6 s0        -0.0372875   -0.0422186   -0.0132955    0.0861753   -0.0375521
 27   C6 s0         0.2433904    0.2926893    0.0782335   -0.5912939    0.2521552
 28   C6 p0         0.0000000    0.0000000    0.0000000    0.0000000    0.0000000
 29   C6 p+1        0.0712222   -0.4761507   -0.3657511   -0.4244967   -0.1161290
 30   C6 p-1        0.3418724    0.1655642   -0.5089507    0.3655731    0.3275165
 31   H7 s0         0.2961430    0.3501462    0.4969134    0.1110916    0.1415235
 32   H8 s0         0.2961430   -0.3501462    0.4969134   -0.1110916   -0.1415235
 33   H9 s0         0.1335053    0.2600017   -0.5512464   -0.2709433   -0.0001526
 34   H10 s0        0.1335053   -0.2600017   -0.5512464    0.2709433    0.0001526
 35   C11 s0        0.0876251   -0.0222733   -0.0459648    0.0581033   -0.0319164
 36   C11 s0       -0.5693945    0.1678138    0.3151005   -0.3973548    0.2351849
 37   C11 p0        0.0000000    0.0000000    0.0000000    0.0000000    0.0000000
 38   C11 p+1       0.0182494    0.0598885    0.1577692   -0.0077527    0.4652837
 39   C11 p-1       0.1214434    0.2235081    0.1217999    0.0464761   -0.3212198
 40   C12 s0        0.0876251    0.0222733   -0.0459648   -0.0581033    0.0319164
 41   C12 s0       -0.5693945   -0.1678138    0.3151005    0.3973548   -0.2351849
 42   C12 p0        0.0000000    0.0000000    0.0000000    0.0000000    0.0000000
 43   C12 p+1      -0.0182494    0.0598885   -0.1577692   -0.0077527    0.4652837
 44   C12 p-1      -0.1214434    0.2235081   -0.1217999    0.0464761   -0.3212198
 45   H13 s0        0.3256601    0.1315924   -0.0848713    0.2169766   -0.3914879
 46   H14 s0        0.3256601   -0.1315924   -0.0848713   -0.2169766    0.3914879
 47   C15 s0       -0.0305370   -0.0038593    0.0438926   -0.0012934    0.0206760
 48   C15 s0        0.1916013    0.0126201   -0.2992871    0.0055852   -0.1442587
 49   C15 p0        0.0000000    0.0000000    0.0000000    0.0000000    0.0000000
 50   C15 p+1       0.0843678    0.4639351    0.2487875   -0.1236742   -0.2539417
 51   C15 p-1      -0.3088880    0.0254752    0.0578155   -0.2130675    0.5495929
 52   C16 s0       -0.0305370    0.0038593    0.0438926    0.0012934   -0.0206760
 53   C16 s0        0.1916013   -0.0126201   -0.2992871   -0.0055852    0.1442587
 54   C16 p0        0.0000000    0.0000000    0.0000000    0.0000000    0.0000000
 55   C16 p+1      -0.0843678    0.4639351   -0.2487875   -0.1236742   -0.2539417
 56   C16 p-1       0.3088880    0.0254752   -0.0578155   -0.2130675    0.5495929
 57   H17 s0        0.1648618    0.0208974    0.1696315    0.1852177   -0.3851580
 58   H18 s0        0.1648618   -0.0208974    0.1696315   -0.1852177    0.3851580
 59   H19 s0       -0.2489155   -0.3793605   -0.0548489    0.0352484    0.3718932
 60   H20 s0       -0.2489155    0.3793605   -0.0548489   -0.0352484   -0.3718932

            Ene     0.3235069    0.3477240    0.3814760    0.4000089    0.4297803
            Sym            Ag           Bu           Ag           Bu           Bu
            Occ             0            0            0            0            0


                           56           57           58           59           60

 1    C1 s0         0.0152526    0.0189733    0.0210835    0.0057040    0.0414721
 2    C1 s0        -0.0936174   -0.1217165   -0.1489092   -0.0378540   -0.3115194
 3    C1 p0         0.0000000    0.0000000    0.0000000    0.0000000    0.0000000
 4    C1 p+1        0.2829597    0.3804817   -0.1375792   -0.0436740   -0.6451751
 5    C1 p-1       -0.1281459    0.1287814   -0.4401450   -0.6910233    0.1601242
 6    C2 s0         0.0152526    0.0189733   -0.0210835    0.0057040   -0.0414721
 7    C2 s0        -0.0936174   -0.1217165    0.1489092   -0.0378540    0.3115194
 8    C2 p0         0.0000000    0.0000000    0.0000000    0.0000000    0.0000000
 9    C2 p+1       -0.2829597   -0.3804817   -0.1375792    0.0436740   -0.6451751
 10   C2 p-1        0.1281459   -0.1287814   -0.4401450    0.6910233    0.1601242
 11   C3 s0         0.0252832   -0.0183965   -0.0450475   -0.0056296   -0.0476076
 12   C3 s0        -0.1794470    0.1317459    0.3265667    0.0400109    0.3474655
 13   C3 p0         0.0000000    0.0000000    0.0000000    0.0000000    0.0000000
 14   C3 p+1       -0.4230389    0.3578941   -0.1239361   -0.5346941    0.2427467
 15   C3 p-1        0.2198576    0.1202420   -0.2009564   -0.2401340   -0.5669347
 16   C4 s0         0.0252832   -0.0183965    0.0450475   -0.0056296    0.0476076
 17   C4 s0        -0.1794470    0.1317459   -0.3265667    0.0400109   -0.3474655
 18   C4 p0         0.0000000    0.0000000    0.0000000    0.0000000    0.0000000
 19   C4 p+1        0.4230389   -0.3578941   -0.1239361    0.5346941    0.2427467
 20   C4 p-1       -0.2198576   -0.1202420   -0.2009564    0.2401340   -0.5669347
 21   C5 s0        -0.0338764    0.0123247   -0.0201549    0.0051479    0.0527850
 22   C5 s0         0.2334412   -0.0910709    0.1503789   -0.0356478   -0.3873495
 23   C5 p0         0.0000000    0.0000000    0.0000000    0.0000000    0.0000000
 24   C5 p+1       -0.3437112    0.4265274    0.2140187   -0.4125358    0.3905660
 25   C5 p-1        0.1533639    0.0287662   -0.0295301    0.4326050    0.4994865
 26   C6 s0        -0.0338764    0.0123247    0.0201549    0.0051479   -0.0527850
 27   C6 s0         0.2334412   -0.0910709   -0.1503789   -0.0356478    0.3873495
 28   C6 p0         0.0000000    0.0000000    0.0000000    0.0000000    0.0000000
 29   C6 p+1        0.3437112   -0.4265274    0.2140187    0.4125358    0.3905660
 30   C6 p-1       -0.1533639   -0.0287662   -0.0295301   -0.4326050    0.4994865
 31   H7 s0        -0.2073145   -0.0552934   -0.0141399    0.0105642    0.2880886
 32   H8 s0        -0.2073145   -0.0552934    0.0141399    0.0105642   -0.2880886
 33   H9 s0        -0.0341436   -0.2065803   -0.1150224   -0.0454511   -0.2951000
 34   H10 s0       -0.0341436   -0.2065803    0.1150224   -0.0454511    0.2951000
 35   C11 s0       -0.0363585    0.0416253   -0.0599081    0.0266008   -0.0103599
 36   C11 s0        0.2596281   -0.3254768    0.4570947   -0.2137522    0.0605868
 37   C11 p0        0.0000000    0.0000000    0.0000000    0.0000000    0.0000000
 38   C11 p+1      -0.1125268   -0.6654654    0.4572867   -0.3215973   -0.3738352
 39   C11 p-1       0.5588729   -0.0622888    0.6180085   -0.4377630    0.0176167
 40   C12 s0       -0.0363585    0.0416253    0.0599081    0.0266008    0.0103599
 41   C12 s0        0.2596281   -0.3254768   -0.4570947   -0.2137522   -0.0605868
 42   C12 p0        0.0000000    0.0000000    0.0000000    0.0000000    0.0000000
 43   C12 p+1       0.1125268    0.6654654    0.4572867    0.3215973   -0.3738352
 44   C12 p-1      -0.5588729    0.0622888    0.6180085    0.4377630    0.0176167
 45   H13 s0        0.3313516    0.1873695    0.1867692   -0.1678308    0.0562499
 46   H14 s0        0.3313516    0.1873695   -0.1867692   -0.1678308   -0.0562499
 47   C15 s0        0.0312510   -0.0459355    0.0704439   -0.0415233   -0.0106460
 48   C15 s0       -0.2305949    0.3438505   -0.5320081    0.3247667    0.0897830
 49   C15 p0        0.0000000    0.0000000    0.0000000    0.0000000    0.0000000
 50   C15 p+1       0.5593160   -0.1473859    0.5483279   -0.3258507   -0.0037381
 51   C15 p-1      -0.1392502   -0.6056570    0.3914727   -0.2613283   -0.2407116
 52   C16 s0        0.0312510   -0.0459355   -0.0704439   -0.0415233    0.0106460
 53   C16 s0       -0.2305949    0.3438505    0.5320081    0.3247667   -0.0897830
 54   C16 p0        0.0000000    0.0000000    0.0000000    0.0000000    0.0000000
 55   C16 p+1      -0.5593160    0.1473859    0.5483279    0.3258507   -0.0037381
 56   C16 p-1       0.1392502    0.6056570    0.3914727    0.2613283   -0.2407116
 57   H17 s0        0.2778229    0.3021551   -0.0055853    0.0361342    0.1532530
 58   H18 s0        0.2778229    0.3021551    0.0055853    0.0361342   -0.1532530
 59   H19 s0       -0.3532147   -0.1523863   -0.1060932    0.0533507   -0.0722753
 60   H20 s0       -0.3532147   -0.1523863    0.1060932    0.0533507    0.0722753

            Ene     0.4407248    0.4815307    0.5114577    0.5713519    0.5848775
            Sym            Ag           Ag           Bu           Ag           Bu
            Occ             0            0            0            0            0



*** tstop() called on osmium at Sat May  4 00:25:03 2019
Module time:
	user time   =      19.89 seconds =       0.33 minutes
	system time =       0.30 seconds =       0.01 minutes
	total time  =         20 seconds =       0.33 minutes
Total time:
	user time   =      19.89 seconds =       0.33 minutes
	system time =       0.30 seconds =       0.01 minutes
	total time  =         20 seconds =       0.33 minutes


Properties will be evaluated at   0.000000,   0.000000,   0.000000 [a0]
OEProp: No title given, name of density matrix used for the following properties is 'SCF alpha density'

 Multipole Moments:

 ------------------------------------------------------------------------------------
     Multipole             Electric (a.u.)       Nuclear  (a.u.)        Total (a.u.)
 ------------------------------------------------------------------------------------

 L = 1.  Multiply by 2.5417464519 to convert to Debye
 Dipole X            :          0.0000000            0.0000000            0.0000000
 Dipole Y            :          0.0000000            0.0000000            0.0000000
 Dipole Z            :          0.0000000            0.0000000            0.0000000

 L = 2.  Multiply by 1.3450342976 to convert to Debye.ang
 Quadrupole XX       :      -1503.3576735         1496.8839879           -6.4736857
 Quadrupole XY       :        -10.6662567           11.4580037            0.7917470
 Quadrupole XZ       :          0.0000000            0.0000000            0.0000000
 Quadrupole YY       :       -276.9584965          244.8754365          -32.0830601
 Quadrupole YZ       :          0.0000000            0.0000000            0.0000000
 Quadrupole ZZ       :        -42.0199328            0.0000000          -42.0199328

 L = 3.  Multiply by 0.7117614979 to convert to Debye.ang^2
 Octupole XXX        :          0.0000000            0.0000000            0.0000000
 Octupole XXY        :          0.0000000            0.0000000            0.0000000
 Octupole XXZ        :          0.0000000            0.0000000            0.0000000
 Octupole XYY        :          0.0000000            0.0000000            0.0000000
 Octupole XYZ        :          0.0000000            0.0000000            0.0000000
 Octupole XZZ        :          0.0000000            0.0000000            0.0000000
 Octupole YYY        :          0.0000000            0.0000000            0.0000000
 Octupole YYZ        :          0.0000000            0.0000000            0.0000000
 Octupole YZZ        :          0.0000000            0.0000000            0.0000000
 Octupole ZZZ        :          0.0000000            0.0000000            0.0000000

 L = 4.  Multiply by 0.3766479641 to convert to Debye.ang^3
 Hexadecapole XXXX   :     -71602.6177501        68490.6488536        -3111.9688965
 Hexadecapole XXXY   :      -2456.0303341         2491.6209064           35.5905723
 Hexadecapole XXXZ   :          0.0000000            0.0000000            0.0000000
 Hexadecapole XXYY   :      -3521.1530874         2641.3398160         -879.8132715
 Hexadecapole XXYZ   :          0.0000000            0.0000000            0.0000000
 Hexadecapole XXZZ   :       -929.4333082            0.0000000         -929.4333082
 Hexadecapole XYYY   :         24.1057025          -48.3518189          -24.2461164
 Hexadecapole XYYZ   :          0.0000000            0.0000000            0.0000000
 Hexadecapole XYZZ   :         -5.5594443            0.0000000           -5.5594443
 Hexadecapole XZZZ   :          0.0000000            0.0000000            0.0000000
 Hexadecapole YYYY   :      -2897.1292645         2103.6746443         -793.4546202
 Hexadecapole YYYZ   :          0.0000000            0.0000000            0.0000000
 Hexadecapole YYZZ   :       -186.4515174            0.0000000         -186.4515174
 Hexadecapole YZZZ   :          0.0000000            0.0000000            0.0000000
 Hexadecapole ZZZZ   :       -120.8959496            0.0000000         -120.8959496

 L = 5.  Multiply by 0.1993135191 to convert to Debye.ang^4
 32-pole XXXXX       :          0.0000000            0.0000000            0.0000000
 32-pole XXXXY       :          0.0000000            0.0000000            0.0000000
 32-pole XXXXZ       :          0.0000000            0.0000000            0.0000000
 32-pole XXXYY       :          0.0000000            0.0000000            0.0000000
 32-pole XXXYZ       :          0.0000000            0.0000000            0.0000000
 32-pole XXXZZ       :          0.0000000            0.0000000            0.0000000
 32-pole XXYYY       :          0.0000000            0.0000000            0.0000000
 32-pole XXYYZ       :          0.0000000            0.0000000            0.0000000
 32-pole XXYZZ       :          0.0000000            0.0000000            0.0000000
 32-pole XXZZZ       :          0.0000000            0.0000000            0.0000000
 32-pole XYYYY       :          0.0000000            0.0000000            0.0000000
 32-pole XYYYZ       :          0.0000000            0.0000000            0.0000000
 32-pole XYYZZ       :          0.0000000            0.0000000            0.0000000
 32-pole XYZZZ       :          0.0000000            0.0000000            0.0000000
 32-pole XZZZZ       :          0.0000000            0.0000000            0.0000000
 32-pole YYYYY       :          0.0000000            0.0000000            0.0000000
 32-pole YYYYZ       :          0.0000000            0.0000000            0.0000000
 32-pole YYYZZ       :          0.0000000            0.0000000            0.0000000
 32-pole YYZZZ       :          0.0000000            0.0000000            0.0000000
 32-pole YZZZZ       :          0.0000000            0.0000000            0.0000000
 32-pole ZZZZZ       :          0.0000000            0.0000000            0.0000000

 --------------------------------------------------------------------------------
  Mulliken Charges: (a.u.)
   Center  Symbol    Alpha    Beta     Spin     Total
       1     C     3.07861  2.86558  0.21303  0.05580
       2     C     3.07861  2.86558  0.21303  0.05580
       3     C     3.02833  3.01041  0.01792 -0.03873
       4     C     3.02833  3.01041  0.01792 -0.03873
       5     C     3.03384  3.00661  0.02723 -0.04044
       6     C     3.03384  3.00661  0.02723 -0.04044
       7     H     0.43572  0.43694 -0.00121  0.12734
       8     H     0.43572  0.43694 -0.00121  0.12734
       9     H     0.43763  0.43921 -0.00158  0.12316
      10     H     0.43763  0.43921 -0.00158  0.12316
      11     C     2.99206  3.04810 -0.05604 -0.04016
      12     C     2.99206  3.04810 -0.05604 -0.04016
      13     H     0.43878  0.43671  0.00207  0.12451
      14     H     0.43878  0.43671  0.00207  0.12451
      15     C     3.20226  2.87447  0.32779 -0.07673
      16     C     3.20226  2.87447  0.32779 -0.07673
      17     H     0.43101  0.44540 -0.01440  0.12359
      18     H     0.43101  0.44540 -0.01440  0.12359
      19     H     0.42176  0.43657 -0.01481  0.14167
      20     H     0.42176  0.43657 -0.01481  0.14167

   Total alpha = 35.00000, Total beta = 34.00000, Total charge =  1.00000

  Lowdin Charges: (a.u.)
   Center  Symbol    Alpha    Beta     Spin     Total
       1     C     3.06167  2.85841  0.20326  0.07991
       2     C     3.06167  2.85841  0.20326  0.07991
       3     C     3.01085  2.98978  0.02107 -0.00064
       4     C     3.01085  2.98978  0.02107 -0.00064
       5     C     3.01585  2.98608  0.02977 -0.00194
       6     C     3.01585  2.98608  0.02977 -0.00194
       7     H     0.45946  0.46036 -0.00090  0.08017
       8     H     0.45946  0.46036 -0.00090  0.08017
       9     H     0.46075  0.46191 -0.00116  0.07734
      10     H     0.46075  0.46191 -0.00116  0.07734
      11     C     2.97678  3.02149 -0.04471  0.00172
      12     C     2.97678  3.02149 -0.04471  0.00172
      13     H     0.46205  0.46048  0.00157  0.07747
      14     H     0.46205  0.46048  0.00157  0.07747
      15     C     3.14896  2.83660  0.31236  0.01444
      16     C     3.14896  2.83660  0.31236  0.01444
      17     H     0.45533  0.46579 -0.01045  0.07888
      18     H     0.45533  0.46579 -0.01045  0.07888
      19     H     0.44828  0.45909 -0.01081  0.09264
      20     H     0.44828  0.45909 -0.01081  0.09264

  Total alpha = 35.00000, Total beta = 34.00000, Total charge =  1.00000

    Psi4 stopped on: Saturday, 04 May 2019 12:25AM
    Psi4 wall time for execution: 0:00:20.32

*** Psi4 exiting successfully. Buy a developer a beer!
