
    -----------------------------------------------------------------------
          Psi4: An Open-Source Ab Initio Electronic Structure Package
                               Psi4 1.3.1 release

                         Git: Rev {HEAD} 2ce1c29 


    R. M. Parrish, L. A. Burns, D. G. A. Smith, A. C. Simmonett,
    A. E. DePrince III, E. G. Hohenstein, U. Bozkaya, A. Yu. Sokolov,
    R. Di Remigio, R. M. Richard, J. F. Gonthier, A. M. James,
    H. R. McAlexander, A. Kumar, M. Saitow, X. Wang, B. P. Pritchard,
    P. Verma, H. F. Schaefer III, K. Patkowski, R. A. King, E. F. Valeev,
    F. A. Evangelista, J. M. Turney, T. D. Crawford, and C. D. Sherrill,
    J. Chem. Theory Comput. 13(7) pp 3185--3197 (2017).
    (doi: 10.1021/acs.jctc.7b00174)


                         Additional Contributions by
    P. Kraus, H. Kruse, M. H. Lechner, M. C. Schieber, R. A. Shaw,
    A. Alenaizan, R. Galvelis, Z. L. Glick, S. Lehtola, and J. P. Misiewicz

    -----------------------------------------------------------------------


    Psi4 started on: Saturday, 04 May 2019 12:24AM

    Process ID: 66816
    Host:       osmium
    PSIDATADIR: /home/eric/data/opt/apps/python/psi4conda/share/psi4
    Memory:     500.0 MiB
    Threads:    1
    
  ==> Input File <==

--------------------------------------------------------------------------
molecule dvb {
    0 1
    C    -1.4152533224   0.2302217854   0.0000000000
    C     1.4152533224  -0.2302217854   0.0000000000
    C    -0.4951331558   1.3144608674   0.0000000000
    C     0.4951331558  -1.3144608674   0.0000000000
    C     0.8894090436   1.0909493743   0.0000000000
    C    -0.8894090436  -1.0909493743   0.0000000000
    H    -0.8795511985   2.3437343748   0.0000000000
    H     0.8795511985  -2.3437343748   0.0000000000
    H     1.5779041557   1.9450061275   0.0000000000
    H    -1.5779041557  -1.9450061275   0.0000000000
    C     2.8845844962  -0.5210893778   0.0000000000
    C    -2.8845844962   0.5210893778   0.0000000000
    H     3.1403356810  -1.5919605685   0.0000000000
    H    -3.1403356810   1.5919605685   0.0000000000
    C     3.8800428103   0.3822535424   0.0000000000
    C    -3.8800428103  -0.3822535424   0.0000000000
    H     3.6946765858   1.4624389570   0.0000000000
    H    -3.6946765858  -1.4624389570   0.0000000000
    H     4.9316453546   0.0711049543   0.0000000000
    H    -4.9316453546  -0.0711049543   0.0000000000
}

set {
    basis sto-3g
    print_basis true
    print_mos true
}

scf_e, scf_wfn = energy('scf', return_wfn=True)
oeprop(scf_wfn, 'MULLIKEN_CHARGES', 'LOWDIN_CHARGES', 'MULTIPOLE(5)')
--------------------------------------------------------------------------

*** tstart() called on osmium
*** at Sat May  4 00:24:19 2019

   => Loading Basis Set <=

    Name: STO-3G
    Role: ORBITAL
    Keyword: BASIS
    atoms 1-6, 11-12, 15-16  entry C          line    61 file /home/eric/data/opt/apps/python/psi4conda/share/psi4/basis/sto-3g.gbs 
    atoms 7-10, 13-14, 17-20 entry H          line    19 file /home/eric/data/opt/apps/python/psi4conda/share/psi4/basis/sto-3g.gbs 


         ---------------------------------------------------------
                                   SCF
               by Justin Turney, Rob Parrish, Andy Simmonett
                          and Daniel G. A. Smith
                              RHF Reference
                        1 Threads,    500 MiB Core
         ---------------------------------------------------------

  ==> Geometry <==

    Molecular point group: c2h
    Full point group: C2h

    Geometry (in Angstrom), charge = 0, multiplicity = 1:

       Center              X                  Y                   Z               Mass       
    ------------   -----------------  -----------------  -----------------  -----------------
         C           -1.415253322400     0.230221785400     0.000000000000    12.000000000000
         C            1.415253322400    -0.230221785400     0.000000000000    12.000000000000
         C           -0.495133155800     1.314460867400     0.000000000000    12.000000000000
         C            0.495133155800    -1.314460867400     0.000000000000    12.000000000000
         C            0.889409043600     1.090949374300     0.000000000000    12.000000000000
         C           -0.889409043600    -1.090949374300     0.000000000000    12.000000000000
         H           -0.879551198500     2.343734374800     0.000000000000     1.007825032230
         H            0.879551198500    -2.343734374800     0.000000000000     1.007825032230
         H            1.577904155700     1.945006127500     0.000000000000     1.007825032230
         H           -1.577904155700    -1.945006127500     0.000000000000     1.007825032230
         C            2.884584496200    -0.521089377800     0.000000000000    12.000000000000
         C           -2.884584496200     0.521089377800     0.000000000000    12.000000000000
         H            3.140335681000    -1.591960568500     0.000000000000     1.007825032230
         H           -3.140335681000     1.591960568500     0.000000000000     1.007825032230
         C            3.880042810300     0.382253542400     0.000000000000    12.000000000000
         C           -3.880042810300    -0.382253542400     0.000000000000    12.000000000000
         H            3.694676585800     1.462438957000     0.000000000000     1.007825032230
         H           -3.694676585800    -1.462438957000     0.000000000000     1.007825032230
         H            4.931645354600     0.071104954300     0.000000000000     1.007825032230
         H           -4.931645354600    -0.071104954300     0.000000000000     1.007825032230

  Running in c2h symmetry.

  Rotational constants: A =      0.15403  B =      0.02287  C =      0.01992 [cm^-1]
  Rotational constants: A =   4617.84335  B =    685.76183  C =    597.09209 [MHz]
  Nuclear repulsion =  445.936979867057005

  Charge       = 0
  Multiplicity = 1
  Electrons    = 70
  Nalpha       = 35
  Nbeta        = 35

  ==> Algorithm <==

  SCF Algorithm Type is DF.
  DIIS enabled.
  MOM disabled.
  Fractional occupation disabled.
  Guess Type is SAD.
  Energy threshold   = 1.00e-06
  Density threshold  = 1.00e-06
  Integral threshold = 0.00e+00

  ==> Primary Basis <==

  Basis Set: STO-3G
    Blend: STO-3G
    Number of shells: 40
    Number of basis function: 60
    Number of Cartesian functions: 60
    Spherical Harmonics?: true
    Max angular momentum: 1

   => Loading Basis Set <=

    Name: (STO-3G AUX)
    Role: JKFIT
    Keyword: DF_BASIS_SCF
    atoms 1-6, 11-12, 15-16  entry C          line   203 file /home/eric/data/opt/apps/python/psi4conda/share/psi4/basis/def2-svp-jkfit.gbs 
    atoms 7-10, 13-14, 17-20 entry H          line    23 file /home/eric/data/opt/apps/python/psi4conda/share/psi4/basis/def2-svp-jkfit.gbs 

  -AO BASIS SET INFORMATION:
    Name                   = STO-3G
    Blend                  = STO-3G
    Total number of shells = 40
    Number of primitives   = 120
    Number of AO           = 60
    Number of SO           = 60
    Maximum AM             = 1
    Spherical Harmonics    = TRUE

  -Contraction Scheme:
    Atom   Type   All Primitives // Shells:
   ------ ------ --------------------------
       1     C     6s 3p // 2s 1p 
       2     C     6s 3p // 2s 1p 
       3     C     6s 3p // 2s 1p 
       4     C     6s 3p // 2s 1p 
       5     C     6s 3p // 2s 1p 
       6     C     6s 3p // 2s 1p 
       7     H     3s // 1s 
       8     H     3s // 1s 
       9     H     3s // 1s 
      10     H     3s // 1s 
      11     C     6s 3p // 2s 1p 
      12     C     6s 3p // 2s 1p 
      13     H     3s // 1s 
      14     H     3s // 1s 
      15     C     6s 3p // 2s 1p 
      16     C     6s 3p // 2s 1p 
      17     H     3s // 1s 
      18     H     3s // 1s 
      19     H     3s // 1s 
      20     H     3s // 1s 

  ==> AO Basis Functions <==

    [ STO-3G ]
    spherical
    ****
    C   1
    S   3 1.00
                        71.61683700           0.15432897
                        13.04509600           0.53532814
                         3.53051220           0.44463454
    S   3 1.00
                         2.94124940          -0.09996723
                         0.68348310           0.39951283
                         0.22228990           0.70011547
    P   3 1.00
                         2.94124940           0.15591627
                         0.68348310           0.60768372
                         0.22228990           0.39195739
    ****
    C   3
    S   3 1.00
                        71.61683700           0.15432897
                        13.04509600           0.53532814
                         3.53051220           0.44463454
    S   3 1.00
                         2.94124940          -0.09996723
                         0.68348310           0.39951283
                         0.22228990           0.70011547
    P   3 1.00
                         2.94124940           0.15591627
                         0.68348310           0.60768372
                         0.22228990           0.39195739
    ****
    C   5
    S   3 1.00
                        71.61683700           0.15432897
                        13.04509600           0.53532814
                         3.53051220           0.44463454
    S   3 1.00
                         2.94124940          -0.09996723
                         0.68348310           0.39951283
                         0.22228990           0.70011547
    P   3 1.00
                         2.94124940           0.15591627
                         0.68348310           0.60768372
                         0.22228990           0.39195739
    ****
    H   7
    S   3 1.00
                         3.42525091           0.15432897
                         0.62391373           0.53532814
                         0.16885540           0.44463454
    ****
    H   9
    S   3 1.00
                         3.42525091           0.15432897
                         0.62391373           0.53532814
                         0.16885540           0.44463454
    ****
    C  11
    S   3 1.00
                        71.61683700           0.15432897
                        13.04509600           0.53532814
                         3.53051220           0.44463454
    S   3 1.00
                         2.94124940          -0.09996723
                         0.68348310           0.39951283
                         0.22228990           0.70011547
    P   3 1.00
                         2.94124940           0.15591627
                         0.68348310           0.60768372
                         0.22228990           0.39195739
    ****
    H  13
    S   3 1.00
                         3.42525091           0.15432897
                         0.62391373           0.53532814
                         0.16885540           0.44463454
    ****
    C  15
    S   3 1.00
                        71.61683700           0.15432897
                        13.04509600           0.53532814
                         3.53051220           0.44463454
    S   3 1.00
                         2.94124940          -0.09996723
                         0.68348310           0.39951283
                         0.22228990           0.70011547
    P   3 1.00
                         2.94124940           0.15591627
                         0.68348310           0.60768372
                         0.22228990           0.39195739
    ****
    H  17
    S   3 1.00
                         3.42525091           0.15432897
                         0.62391373           0.53532814
                         0.16885540           0.44463454
    ****
    H  19
    S   3 1.00
                         3.42525091           0.15432897
                         0.62391373           0.53532814
                         0.16885540           0.44463454
    ****

  ==> Pre-Iterations <==

   -------------------------------------------------------
    Irrep   Nso     Nmo     Nalpha   Nbeta   Ndocc  Nsocc
   -------------------------------------------------------
     Ag        25      25       0       0       0       0
     Bg         5       5       0       0       0       0
     Au         5       5       0       0       0       0
     Bu        25      25       0       0       0       0
   -------------------------------------------------------
    Total      60      60      35      35      35       0
   -------------------------------------------------------

  ==> Integral Setup <==

  DFHelper Memory: AOs need 0.031 GiB; user supplied 0.366 GiB. Using in-core AOs.

  ==> MemDFJK: Density-Fitted J/K Matrices <==

    J tasked:                   Yes
    K tasked:                   Yes
    wK tasked:                   No
    OpenMP threads:               1
    Memory [MiB]:               375
    Algorithm:                 Core
    Schwarz Cutoff:           1E-12
    Mask sparsity (%):       4.1111
    Fitting Condition:        1E-10

   => Auxiliary Basis Set <=

  Basis Set: (STO-3G AUX)
    Blend: DEF2-SVP-JKFIT
    Number of shells: 310
    Number of basis function: 930
    Number of Cartesian functions: 1090
    Spherical Harmonics?: true
    Max angular momentum: 4

  Minimum eigenvalue in the overlap matrix is 1.8147106803E-01.
  Using Symmetric Orthogonalization.

  SCF Guess: Superposition of Atomic Densities via on-the-fly atomic UHF.

  ==> Iterations <==

                           Total Energy        Delta E     RMS |[F,P]|

   @DF-RHF iter SAD:  -372.47056553946283   -3.72471e+02   0.00000e+00 
   @DF-RHF iter   1:  -379.75143611747291   -7.28087e+00   3.88904e-03 DIIS
   @DF-RHF iter   2:  -379.76852818402728   -1.70921e-02   1.09122e-03 DIIS
   @DF-RHF iter   3:  -379.76985290879338   -1.32472e-03   4.96086e-04 DIIS
   @DF-RHF iter   4:  -379.77009942471813   -2.46516e-04   7.34173e-05 DIIS
   @DF-RHF iter   5:  -379.77011073918823   -1.13145e-05   1.71715e-05 DIIS
   @DF-RHF iter   6:  -379.77011148035746   -7.41169e-07   4.55112e-06 DIIS
   @DF-RHF iter   7:  -379.77011151550613   -3.51487e-08   8.19717e-07 DIIS
  Energy and wave function converged.


  ==> Post-Iterations <==

    Orbital Energies [Eh]
    ---------------------

    Doubly Occupied:                                                      

       1Bu   -11.040747     1Ag   -11.040684     2Bu   -11.031746  
       2Ag   -11.031746     3Bu   -11.029115     3Ag   -11.028984  
       4Bu   -11.028773     4Ag   -11.028750     5Bu   -11.017623  
       5Ag   -11.017622     6Ag    -1.090319     6Bu    -1.020271  
       7Ag    -0.974938     7Bu    -0.950322     8Bu    -0.909649  
       8Ag    -0.799896     9Ag    -0.762839     9Bu    -0.727641  
      10Ag    -0.696781    11Ag    -0.628047    10Bu    -0.605675  
      11Bu    -0.572949    12Bu    -0.553600    12Ag    -0.553159  
      13Bu    -0.525356    14Bu    -0.496695    13Ag    -0.492527  
       1Au    -0.463723    15Bu    -0.446432    14Ag    -0.421660  
      15Ag    -0.415629     1Bg    -0.376951     2Au    -0.315116  
       2Bg    -0.278354     3Bg    -0.222179  

    Virtual:                                                              

       3Au     0.199015     4Au     0.268536     4Bg     0.308851  
       5Au     0.397103     5Bg     0.521788    16Ag     0.565048  
      16Bu     0.575601    17Ag     0.621586    17Bu     0.625837  
      18Ag     0.658249    18Bu     0.659407    19Bu     0.677206  
      19Ag     0.694197    20Bu     0.706718    20Ag     0.740152  
      21Ag     0.802254    21Bu     0.825687    22Ag     0.860638  
      22Bu     0.887791    23Bu     0.921042    23Ag     0.939978  
      24Ag     0.990324    24Bu     1.027298    25Ag     1.107746  
      25Bu     1.124960  

    Final Occupation by Irrep:
             Ag    Bg    Au    Bu 
    DOCC [    15,    3,    2,   15 ]

  @DF-RHF Final Energy:  -379.77011151550613

   => Energetics <=

    Nuclear Repulsion Energy =            445.9369798670570049
    One-Electron Energy =               -1400.2211155145664634
    Two-Electron Energy =                 574.5140241320033283
    Total Energy =                       -379.7701115155060734

Computation Completed


Properties will be evaluated at   0.000000,   0.000000,   0.000000 [a0]

Properties computed using the SCF density matrix

  Nuclear Dipole Moment: [e a0]
     X:     0.0000      Y:     0.0000      Z:     0.0000

  Electronic Dipole Moment: [e a0]
     X:     0.0000      Y:     0.0000      Z:     0.0000

  Dipole Moment: [e a0]
     X:     0.0000      Y:     0.0000      Z:     0.0000     Total:     0.0000

  Dipole Moment: [D]
     X:     0.0000      Y:     0.0000      Z:     0.0000     Total:     0.0000


  ==> Molecular Orbitals <==

                            1            2            3            4            5

 1    C1 s0         0.7014836    0.7015422    0.0096669    0.0100033    0.0016015
 2    C1 s0         0.0252590    0.0251753   -0.0037887   -0.0037342    0.0016016
 3    C1 p0         0.0000000    0.0000000    0.0000000    0.0000000    0.0000000
 4    C1 p+1        0.0006606    0.0004484    0.0029445    0.0029353   -0.0000780
 5    C1 p-1        0.0000020    0.0000411   -0.0004548   -0.0004527   -0.0036143
 6    C2 s0        -0.7014836    0.7015422   -0.0096669    0.0100033   -0.0016015
 7    C2 s0        -0.0252590    0.0251753    0.0037887   -0.0037342   -0.0016016
 8    C2 p0         0.0000000    0.0000000    0.0000000    0.0000000    0.0000000
 9    C2 p+1        0.0006606   -0.0004484    0.0029445   -0.0029353   -0.0000780
 10   C2 p-1        0.0000020   -0.0000411   -0.0004548    0.0004527   -0.0036143
 11   C3 s0         0.0058255    0.0032233   -0.0037002   -0.0062836    0.3763700
 12   C3 s0        -0.0047666   -0.0046126   -0.0000710   -0.0001934    0.0092973
 13   C3 p0         0.0000000    0.0000000    0.0000000    0.0000000    0.0000000
 14   C3 p+1        0.0019911    0.0020213    0.0000267    0.0000115   -0.0023541
 15   C3 p-1        0.0024251    0.0024412    0.0000038    0.0000620    0.0000541
 16   C4 s0        -0.0058255    0.0032233    0.0037002   -0.0062836   -0.3763700
 17   C4 s0         0.0047666   -0.0046126    0.0000710   -0.0001934   -0.0092973
 18   C4 p0         0.0000000    0.0000000    0.0000000    0.0000000    0.0000000
 19   C4 p+1        0.0019911   -0.0020213    0.0000267   -0.0000115   -0.0023541
 20   C4 p-1        0.0024251   -0.0024412    0.0000038   -0.0000620    0.0000541
 21   C5 s0        -0.0058082    0.0032811    0.0024300   -0.0051461    0.5923784
 22   C5 s0         0.0047271   -0.0045546   -0.0000150   -0.0000885    0.0187302
 23   C5 p0         0.0000000    0.0000000    0.0000000    0.0000000    0.0000000
 24   C5 p+1        0.0011089   -0.0011442   -0.0000006    0.0000191    0.0011211
 25   C5 p-1       -0.0029077    0.0029178   -0.0000159    0.0000652   -0.0007614
 26   C6 s0         0.0058082    0.0032811   -0.0024300   -0.0051461   -0.5923784
 27   C6 s0        -0.0047271   -0.0045546    0.0000150   -0.0000885   -0.0187302
 28   C6 p0         0.0000000    0.0000000    0.0000000    0.0000000    0.0000000
 29   C6 p+1        0.0011089    0.0011442   -0.0000006   -0.0000191    0.0011211
 30   C6 p-1       -0.0029077   -0.0029178   -0.0000159   -0.0000652   -0.0007614
 31   H7 s0         0.0000599   -0.0000220    0.0000055    0.0000120   -0.0024148
 32   H8 s0        -0.0000599   -0.0000220   -0.0000055    0.0000120    0.0024148
 33   H9 s0        -0.0000543   -0.0000256    0.0000934   -0.0000891   -0.0039153
 34   H10 s0        0.0000543   -0.0000256   -0.0000934   -0.0000891    0.0039153
 35   C11 s0        0.0089244   -0.0092579   -0.7013578    0.7013206    0.0001065
 36   C11 s0        0.0044877   -0.0045536   -0.0250011    0.0249897    0.0000653
 37   C11 p0        0.0000000    0.0000000    0.0000000    0.0000000    0.0000000
 38   C11 p+1      -0.0028874    0.0029265   -0.0006428    0.0006499   -0.0000542
 39   C11 p-1       0.0006206   -0.0006286   -0.0005127    0.0005111   -0.0000321
 40   C12 s0       -0.0089244   -0.0092579    0.7013578    0.7013206   -0.0001065
 41   C12 s0       -0.0044877   -0.0045536    0.0250011    0.0249897   -0.0000653
 42   C12 p0        0.0000000    0.0000000    0.0000000    0.0000000    0.0000000
 43   C12 p+1      -0.0028874   -0.0029265   -0.0006428   -0.0006499   -0.0000542
 44   C12 p-1       0.0006206    0.0006286   -0.0005127   -0.0005111   -0.0000321
 45   H13 s0       -0.0000856    0.0000926    0.0047782   -0.0047774   -0.0000001
 46   H14 s0        0.0000856    0.0000926   -0.0047782   -0.0047774    0.0000001
 47   C15 s0        0.0005174   -0.0004901   -0.0178247    0.0178276   -0.0007454
 48   C15 s0       -0.0001825    0.0001858    0.0047438   -0.0047430   -0.0000399
 49   C15 p0        0.0000000    0.0000000    0.0000000    0.0000000    0.0000000
 50   C15 p+1       0.0000997   -0.0001039   -0.0023815    0.0023808    0.0000301
 51   C15 p-1      -0.0000370    0.0000369   -0.0021159    0.0021164   -0.0000417
 52   C16 s0       -0.0005174   -0.0004901    0.0178247    0.0178276    0.0007454
 53   C16 s0        0.0001825    0.0001858   -0.0047438   -0.0047430    0.0000399
 54   C16 p0        0.0000000    0.0000000    0.0000000    0.0000000    0.0000000
 55   C16 p+1       0.0000997    0.0001039   -0.0023815   -0.0023808    0.0000301
 56   C16 p-1      -0.0000370   -0.0000369   -0.0021159   -0.0021164   -0.0000417
 57   H17 s0        0.0001028   -0.0000986    0.0000588   -0.0000591    0.0000907
 58   H18 s0       -0.0001028   -0.0000986   -0.0000588   -0.0000591   -0.0000907
 59   H19 s0        0.0000194   -0.0000190    0.0000436   -0.0000435   -0.0000113
 60   H20 s0       -0.0000194   -0.0000190   -0.0000436   -0.0000435    0.0000113

            Ene   -11.0407466  -11.0406841  -11.0317461  -11.0317457  -11.0291146
            Sym            Bu           Ag           Bu           Ag           Bu
            Occ             2            2            2            2            2


                            6            7            8            9           10

 1    C1 s0         0.0034017    0.0071808    0.0011516   -0.0002729    0.0002410
 2    C1 s0         0.0063417    0.0071423    0.0022484   -0.0002700    0.0002694
 3    C1 p0         0.0000000    0.0000000    0.0000000    0.0000000    0.0000000
 4    C1 p+1        0.0019437    0.0023714    0.0013420    0.0001223   -0.0001202
 5    C1 p-1       -0.0016087    0.0004151    0.0033833   -0.0000525    0.0000519
 6    C2 s0         0.0034017   -0.0071808    0.0011516    0.0002729    0.0002410
 7    C2 s0         0.0063417   -0.0071423    0.0022484    0.0002700    0.0002694
 8    C2 p0         0.0000000    0.0000000    0.0000000    0.0000000    0.0000000
 9    C2 p+1       -0.0019437    0.0023714   -0.0013420    0.0001223    0.0001202
 10   C2 p-1        0.0016087    0.0004151   -0.0033833   -0.0000525   -0.0000519
 11   C3 s0        -0.3015648   -0.5920590   -0.6334899   -0.0002608    0.0004131
 12   C3 s0        -0.0065258   -0.0242314   -0.0248796    0.0000123   -0.0000704
 13   C3 p0         0.0000000    0.0000000    0.0000000    0.0000000    0.0000000
 14   C3 p+1        0.0027364   -0.0019524   -0.0016340   -0.0000622    0.0000161
 15   C3 p-1       -0.0003179    0.0009802    0.0007017   -0.0000113    0.0000198
 16   C4 s0        -0.3015648    0.5920590   -0.6334899    0.0002608    0.0004131
 17   C4 s0        -0.0065258    0.0242314   -0.0248796   -0.0000123   -0.0000704
 18   C4 p0         0.0000000    0.0000000    0.0000000    0.0000000    0.0000000
 19   C4 p+1       -0.0027364   -0.0019524    0.0016340   -0.0000622   -0.0000161
 20   C4 p-1        0.0003179    0.0009802   -0.0007017   -0.0000113   -0.0000198
 21   C5 s0        -0.6337318    0.3758746    0.3010694    0.0010686    0.0010821
 22   C5 s0        -0.0207878    0.0179886    0.0151850    0.0000011   -0.0000081
 23   C5 p0         0.0000000    0.0000000    0.0000000    0.0000000    0.0000000
 24   C5 p+1       -0.0009692   -0.0029123   -0.0030772   -0.0000902   -0.0000832
 25   C5 p-1        0.0005410    0.0000048    0.0002311    0.0000062    0.0000017
 26   C6 s0        -0.6337318   -0.3758746    0.3010694   -0.0010686    0.0010821
 27   C6 s0        -0.0207878   -0.0179886    0.0151850   -0.0000011   -0.0000081
 28   C6 p0         0.0000000    0.0000000    0.0000000    0.0000000    0.0000000
 29   C6 p+1        0.0009692   -0.0029123    0.0030772   -0.0000902    0.0000832
 30   C6 p-1       -0.0005410    0.0000048   -0.0002311    0.0000062   -0.0000017
 31   H7 s0         0.0020604    0.0040303    0.0043170    0.0000034   -0.0000050
 32   H8 s0         0.0020604   -0.0040303    0.0043170   -0.0000034   -0.0000050
 33   H9 s0         0.0043400   -0.0026330   -0.0020553    0.0000548    0.0000558
 34   H10 s0        0.0043400    0.0026330   -0.0020553   -0.0000548    0.0000558
 35   C11 s0       -0.0074635    0.0045662   -0.0035017   -0.0173865   -0.0173836
 36   C11 s0       -0.0004153    0.0004601   -0.0001807   -0.0060351   -0.0060347
 37   C11 p0        0.0000000    0.0000000    0.0000000    0.0000000    0.0000000
 38   C11 p+1      -0.0000171   -0.0000860   -0.0000221   -0.0023774   -0.0023774
 39   C11 p-1      -0.0000443    0.0000708   -0.0000068   -0.0021906   -0.0021901
 40   C12 s0       -0.0074635   -0.0045662   -0.0035017    0.0173865   -0.0173836
 41   C12 s0       -0.0004153   -0.0004601   -0.0001807    0.0060351   -0.0060347
 42   C12 p0        0.0000000    0.0000000    0.0000000    0.0000000    0.0000000
 43   C12 p+1       0.0000171   -0.0000860    0.0000221   -0.0023774    0.0023774
 44   C12 p-1       0.0000443    0.0000708    0.0000068   -0.0021906    0.0021901
 45   H13 s0        0.0001257   -0.0000954    0.0000577    0.0001742    0.0001739
 46   H14 s0        0.0001257    0.0000954    0.0000577   -0.0001742    0.0001739
 47   C15 s0        0.0009392   -0.0006585   -0.0001833    0.7014356    0.7014357
 48   C15 s0        0.0001738   -0.0001387    0.0000408    0.0253515    0.0253511
 49   C15 p0        0.0000000    0.0000000    0.0000000    0.0000000    0.0000000
 50   C15 p+1      -0.0001081    0.0000810   -0.0000339   -0.0008116   -0.0008114
 51   C15 p-1       0.0000069   -0.0000010   -0.0000309   -0.0007697   -0.0007696
 52   C16 s0        0.0009392    0.0006585   -0.0001833   -0.7014356    0.7014357
 53   C16 s0        0.0001738    0.0001387    0.0000408   -0.0253515    0.0253511
 54   C16 p0        0.0000000    0.0000000    0.0000000    0.0000000    0.0000000
 55   C16 p+1       0.0001081    0.0000810    0.0000339   -0.0008116    0.0008114
 56   C16 p-1      -0.0000069   -0.0000010    0.0000309   -0.0007697    0.0007696
 57   H17 s0       -0.0001022    0.0000741    0.0000595   -0.0047338   -0.0047338
 58   H18 s0       -0.0001022   -0.0000741    0.0000595    0.0047338   -0.0047338
 59   H19 s0        0.0000134   -0.0000068    0.0000004   -0.0047447   -0.0047446
 60   H20 s0        0.0000134    0.0000068    0.0000004    0.0047447   -0.0047446

            Ene   -11.0289837  -11.0287728  -11.0287503  -11.0176225  -11.0176223
            Sym            Ag           Bu           Ag           Bu           Ag
            Occ             2            2            2            2            2


                           11           12           13           14           15

 1    C1 s0         0.1066941    0.1012757    0.0029742    0.0120541    0.1002713
 2    C1 s0        -0.2753725   -0.2708213   -0.0102168   -0.0329923   -0.2790728
 3    C1 p0         0.0000000    0.0000000    0.0000000    0.0000000    0.0000000
 4    C1 p+1       -0.0382290    0.0317913    0.0934585   -0.0227530   -0.0588769
 5    C1 p-1        0.0051090   -0.0039227   -0.0102814   -0.1252203    0.0183026
 6    C2 s0         0.1066941   -0.1012757    0.0029742   -0.0120541   -0.1002713
 7    C2 s0        -0.2753725    0.2708213   -0.0102168    0.0329923    0.2790728
 8    C2 p0         0.0000000    0.0000000    0.0000000    0.0000000    0.0000000
 9    C2 p+1        0.0382290    0.0317913   -0.0934585   -0.0227530   -0.0588769
 10   C2 p-1       -0.0051090   -0.0039227    0.0102814   -0.1252203    0.0183026
 11   C3 s0         0.0966506    0.0377390   -0.0459766    0.1309102    0.0422798
 12   C3 s0        -0.2472757   -0.1000508    0.1224131   -0.3571366   -0.1179740
 13   C3 p0         0.0000000    0.0000000    0.0000000    0.0000000    0.0000000
 14   C3 p+1       -0.0147568    0.0565978    0.0350985   -0.0590801    0.0917124
 15   C3 p-1        0.0521848    0.0288878   -0.0154049    0.0017899    0.0402372
 16   C4 s0         0.0966506   -0.0377390   -0.0459766   -0.1309102   -0.0422798
 17   C4 s0        -0.2472757    0.1000508    0.1224131    0.3571366    0.1179740
 18   C4 p0         0.0000000    0.0000000    0.0000000    0.0000000    0.0000000
 19   C4 p+1        0.0147568    0.0565978   -0.0350985   -0.0590801    0.0917124
 20   C4 p-1       -0.0521848    0.0288878    0.0154049    0.0017899    0.0402372
 21   C5 s0         0.0964570   -0.0416660   -0.0417788    0.1192029   -0.0721217
 22   C5 s0        -0.2471266    0.1110761    0.1104788   -0.3250119    0.2006982
 23   C5 p0         0.0000000    0.0000000    0.0000000    0.0000000    0.0000000
 24   C5 p+1        0.0308152    0.0442127   -0.0443895    0.0696579    0.0485983
 25   C5 p-1        0.0448134   -0.0450546   -0.0020700   -0.0301146   -0.0574485
 26   C6 s0         0.0964570    0.0416660   -0.0417788   -0.1192029    0.0721217
 27   C6 s0        -0.2471266   -0.1110761    0.1104788    0.3250119   -0.2006982
 28   C6 p0         0.0000000    0.0000000    0.0000000    0.0000000    0.0000000
 29   C6 p+1       -0.0308152    0.0442127    0.0443895    0.0696579    0.0485983
 30   C6 p-1       -0.0448134   -0.0450546    0.0020700   -0.0301146   -0.0574485
 31   H7 s0        -0.0441641   -0.0257988    0.0238214   -0.0980769   -0.0340392
 32   H8 s0        -0.0441641    0.0257988    0.0238214    0.0980769    0.0340392
 33   H9 s0        -0.0443882    0.0294807    0.0181212   -0.0898814    0.0544655
 34   H10 s0       -0.0443882   -0.0294807    0.0181212    0.0898814   -0.0544655
 35   C11 s0        0.0496924   -0.1130642    0.1176504   -0.0003257    0.0507482
 36   C11 s0       -0.1287507    0.2986973   -0.3144825    0.0014010   -0.1362241
 37   C11 p0        0.0000000    0.0000000    0.0000000    0.0000000    0.0000000
 38   C11 p+1       0.0273901   -0.0065531   -0.0583315   -0.0166730   -0.1279143
 39   C11 p-1      -0.0141789    0.0376503   -0.0488246   -0.0196746   -0.0407609
 40   C12 s0        0.0496924    0.1130642    0.1176504    0.0003257   -0.0507482
 41   C12 s0       -0.1287507   -0.2986973   -0.3144825   -0.0014010    0.1362241
 42   C12 p0        0.0000000    0.0000000    0.0000000    0.0000000    0.0000000
 43   C12 p+1      -0.0273901   -0.0065531    0.0583315   -0.0166730   -0.1279143
 44   C12 p-1       0.0141789    0.0376503    0.0488246   -0.0196746   -0.0407609
 45   H13 s0       -0.0253704    0.0666300   -0.0761390    0.0090406   -0.0378187
 46   H14 s0       -0.0253704   -0.0666300   -0.0761390   -0.0090406    0.0378187
 47   C15 s0        0.0251754   -0.0814036    0.1163448    0.0127116    0.1067403
 48   C15 s0       -0.0648332    0.2136375   -0.3100716   -0.0338242   -0.2922258
 49   C15 p0        0.0000000    0.0000000    0.0000000    0.0000000    0.0000000
 50   C15 p+1       0.0203413   -0.0509856    0.0553929    0.0058399    0.0209495
 51   C15 p-1       0.0133990   -0.0394573    0.0509603   -0.0008023    0.0352516
 52   C16 s0        0.0251754    0.0814036    0.1163448   -0.0127116   -0.1067403
 53   C16 s0       -0.0648332   -0.2136375   -0.3100716    0.0338242    0.2922258
 54   C16 p0        0.0000000    0.0000000    0.0000000    0.0000000    0.0000000
 55   C16 p+1      -0.0203413   -0.0509856   -0.0553929    0.0058399    0.0209495
 56   C16 p-1      -0.0133990   -0.0394573   -0.0509603   -0.0008023    0.0352516
 57   H17 s0       -0.0140066    0.0489101   -0.0743526   -0.0126879   -0.0768786
 58   H18 s0       -0.0140066   -0.0489101   -0.0743526    0.0126879    0.0768786
 59   H19 s0       -0.0108344    0.0444600   -0.0747929   -0.0078085   -0.0881045
 60   H20 s0       -0.0108344   -0.0444600   -0.0747929    0.0078085    0.0881045

            Ene    -1.0903189   -1.0202713   -0.9749378   -0.9503221   -0.9096493
            Sym            Ag           Bu           Ag           Bu           Bu
            Occ             2            2            2            2            2


                           16           17           18           19           20

 1    C1 s0         0.0723294    0.0504230    0.0112937    0.0563488    0.0286933
 2    C1 s0        -0.2129454   -0.1513052   -0.0325069   -0.1708233   -0.0958050
 3    C1 p0         0.0000000    0.0000000    0.0000000    0.0000000    0.0000000
 4    C1 p+1        0.0743224    0.0624896   -0.1387832   -0.1349968    0.1365595
 5    C1 p-1       -0.1135651    0.1902268    0.0499757   -0.0197079   -0.0490678
 6    C2 s0         0.0723294    0.0504230   -0.0112937    0.0563488    0.0286933
 7    C2 s0        -0.2129454   -0.1513052    0.0325069   -0.1708233   -0.0958050
 8    C2 p0         0.0000000    0.0000000    0.0000000    0.0000000    0.0000000
 9    C2 p+1       -0.0743224   -0.0624896   -0.1387832    0.1349968   -0.1365595
 10   C2 p-1        0.1135651   -0.1902268    0.0499757    0.0197079    0.0490678
 11   C3 s0        -0.0006830   -0.1090520    0.0482719   -0.0073890    0.0117056
 12   C3 s0         0.0003917    0.3248689   -0.1479404    0.0254650   -0.0448226
 13   C3 p0         0.0000000    0.0000000    0.0000000    0.0000000    0.0000000
 14   C3 p+1        0.1590047   -0.0425697    0.0088042    0.0953055    0.1376702
 15   C3 p-1        0.0352178    0.0745356    0.0050253    0.1747340   -0.1424957
 16   C4 s0        -0.0006830   -0.1090520   -0.0482719   -0.0073890    0.0117056
 17   C4 s0         0.0003917    0.3248689    0.1479404    0.0254650   -0.0448226
 18   C4 p0         0.0000000    0.0000000    0.0000000    0.0000000    0.0000000
 19   C4 p+1       -0.1590047    0.0425697    0.0088042   -0.0953055   -0.1376702
 20   C4 p-1       -0.0352178   -0.0745356    0.0050253   -0.1747340    0.1424957
 21   C5 s0        -0.0793500    0.0602677   -0.0302830   -0.0499089   -0.0168731
 22   C5 s0         0.2294357   -0.1808223    0.0923527    0.1582246    0.0479994
 23   C5 p0         0.0000000    0.0000000    0.0000000    0.0000000    0.0000000
 24   C5 p+1       -0.0305953   -0.1701199    0.0765360    0.0225668   -0.1382867
 25   C5 p-1        0.0679937    0.0823023   -0.0337332    0.1947145   -0.0933323
 26   C6 s0        -0.0793500    0.0602677    0.0302830   -0.0499089   -0.0168731
 27   C6 s0         0.2294357   -0.1808223   -0.0923527    0.1582246    0.0479994
 28   C6 p0         0.0000000    0.0000000    0.0000000    0.0000000    0.0000000
 29   C6 p+1        0.0305953    0.1701199    0.0765360   -0.0225668    0.1382867
 30   C6 p-1       -0.0679937   -0.0823023   -0.0337332   -0.1947145    0.0933323
 31   H7 s0        -0.0138061    0.1736392   -0.0518466    0.0988313   -0.1469296
 32   H8 s0        -0.0138061    0.1736392    0.0518466    0.0988313   -0.1469296
 33   H9 s0         0.1062459   -0.0927720    0.0558855    0.1688470   -0.1036360
 34   H10 s0        0.1062459   -0.0927720   -0.0558855    0.1688470   -0.1036360
 35   C11 s0        0.0525490    0.0069580    0.0965370   -0.0606611   -0.0350002
 36   C11 s0       -0.1594939   -0.0229304   -0.2975246    0.1873790    0.1104756
 37   C11 p0        0.0000000    0.0000000    0.0000000    0.0000000    0.0000000
 38   C11 p+1       0.1324853    0.0744126    0.0448555    0.0104276    0.1837133
 39   C11 p-1       0.0771739   -0.0419192    0.1128864   -0.0711849   -0.1091676
 40   C12 s0        0.0525490    0.0069580   -0.0965370   -0.0606611   -0.0350002
 41   C12 s0       -0.1594939   -0.0229304    0.2975246    0.1873790    0.1104756
 42   C12 p0        0.0000000    0.0000000    0.0000000    0.0000000    0.0000000
 43   C12 p+1      -0.1324853   -0.0744126    0.0448555   -0.0104276   -0.1837133
 44   C12 p-1      -0.0771739    0.0419192    0.1128864    0.0711849    0.1091676
 45   H13 s0       -0.0810943    0.0315341   -0.1748379    0.1251823    0.1527291
 46   H14 s0       -0.0810943    0.0315341    0.1748379    0.1251823    0.1527291
 47   C15 s0       -0.0824979   -0.0346194   -0.0803184    0.0507868    0.0141542
 48   C15 s0        0.2399364    0.1037353    0.2482180   -0.1614883   -0.0537159
 49   C15 p0        0.0000000    0.0000000    0.0000000    0.0000000    0.0000000
 50   C15 p+1       0.0379016    0.0442768    0.0918852   -0.0815750    0.0133088
 51   C15 p-1       0.0337086   -0.0116395    0.1189486   -0.0868287   -0.2046209
 52   C16 s0       -0.0824979   -0.0346194    0.0803184    0.0507868    0.0141542
 53   C16 s0        0.2399364    0.1037353   -0.2482180   -0.1614883   -0.0537159
 54   C16 p0        0.0000000    0.0000000    0.0000000    0.0000000    0.0000000
 55   C16 p+1      -0.0379016   -0.0442768    0.0918852    0.0815750   -0.0133088
 56   C16 p-1      -0.0337086    0.0116395    0.1189486    0.0868287    0.2046209
 57   H17 s0        0.1048374    0.0224723    0.1638886   -0.1061806   -0.1788447
 58   H18 s0        0.1048374    0.0224723   -0.1638886   -0.1061806   -0.1788447
 59   H19 s0        0.1014529    0.0653216    0.1308594   -0.1001572    0.0292051
 60   H20 s0        0.1014529    0.0653216   -0.1308594   -0.1001572    0.0292051

            Ene    -0.7998958   -0.7628386   -0.7276406   -0.6967812   -0.6280466
            Sym            Ag           Ag           Bu           Ag           Ag
            Occ             2            2            2            2            2


                           21           22           23           24           25

 1    C1 s0         0.0257014    0.0659668    0.0197061    0.0199017    0.0025705
 2    C1 s0        -0.0887257   -0.2234784   -0.0667453   -0.0651456   -0.0086331
 3    C1 p0         0.0000000    0.0000000    0.0000000    0.0000000    0.0000000
 4    C1 p+1        0.1321328   -0.0301614   -0.1402914    0.0081624   -0.0734569
 5    C1 p-1        0.1184811   -0.1006673    0.2213423   -0.0136062   -0.0839074
 6    C2 s0        -0.0257014   -0.0659668   -0.0197061    0.0199017   -0.0025705
 7    C2 s0         0.0887257    0.2234784    0.0667453   -0.0651456    0.0086331
 8    C2 p0         0.0000000    0.0000000    0.0000000    0.0000000    0.0000000
 9    C2 p+1        0.1321328   -0.0301614   -0.1402914   -0.0081624   -0.0734569
 10   C2 p-1        0.1184811   -0.1006673    0.2213423    0.0136062   -0.0839074
 11   C3 s0        -0.0232791   -0.0450737    0.0017814   -0.0231260    0.0256951
 12   C3 s0         0.0784410    0.1539439   -0.0034016    0.0769012   -0.0824893
 13   C3 p0         0.0000000    0.0000000    0.0000000    0.0000000    0.0000000
 14   C3 p+1       -0.1820389    0.0671059   -0.1175550    0.0807438   -0.1551208
 15   C3 p-1        0.0277316    0.2211135   -0.0029220   -0.0059869    0.2986745
 16   C4 s0         0.0232791    0.0450737   -0.0017814   -0.0231260   -0.0256951
 17   C4 s0        -0.0784410   -0.1539439    0.0034016    0.0769012    0.0824893
 18   C4 p0         0.0000000    0.0000000    0.0000000    0.0000000    0.0000000
 19   C4 p+1       -0.1820389    0.0671059   -0.1175550   -0.0807438   -0.1551208
 20   C4 p-1        0.0277316    0.2211135   -0.0029220    0.0059869    0.2986745
 21   C5 s0         0.0417615    0.0408183   -0.0113651    0.0161935    0.0184696
 22   C5 s0        -0.1364610   -0.1409936    0.0358817   -0.0594433   -0.0593172
 23   C5 p0         0.0000000    0.0000000    0.0000000    0.0000000    0.0000000
 24   C5 p+1        0.0937203   -0.1789333    0.0625359   -0.1341379    0.2320006
 25   C5 p-1       -0.1033081   -0.1161943   -0.2486629   -0.0395700    0.1801148
 26   C6 s0        -0.0417615   -0.0408183    0.0113651    0.0161935   -0.0184696
 27   C6 s0         0.1364610    0.1409936   -0.0358817   -0.0594433    0.0593172
 28   C6 p0         0.0000000    0.0000000    0.0000000    0.0000000    0.0000000
 29   C6 p+1        0.0937203   -0.1789333    0.0625359    0.1341379    0.2320006
 30   C6 p-1       -0.1033081   -0.1161943   -0.2486629    0.0395700    0.1801148
 31   H7 s0         0.1113692    0.2257417    0.0314217    0.0034996    0.2585164
 32   H8 s0        -0.1113692   -0.2257417   -0.0314217    0.0034996   -0.2585164
 33   H9 s0        -0.0714070   -0.2348844   -0.1291293   -0.1165933    0.2236082
 34   H10 s0        0.0714070    0.2348844    0.1291293   -0.1165933   -0.2236082
 35   C11 s0       -0.0140940    0.0156107    0.0024527   -0.0255306   -0.0015803
 36   C11 s0        0.0440842   -0.0439986   -0.0148250    0.0745285    0.0036133
 37   C11 p0        0.0000000    0.0000000    0.0000000    0.0000000    0.0000000
 38   C11 p+1      -0.1040704   -0.1189632    0.1786759    0.0851691    0.0592782
 39   C11 p-1       0.2145514   -0.0476256    0.0475705    0.2493954   -0.0234162
 40   C12 s0        0.0140940   -0.0156107   -0.0024527   -0.0255306    0.0015803
 41   C12 s0       -0.0440842    0.0439986    0.0148250    0.0745285   -0.0036133
 42   C12 p0        0.0000000    0.0000000    0.0000000    0.0000000    0.0000000
 43   C12 p+1      -0.1040704   -0.1189632    0.1786759   -0.0851691    0.0592782
 44   C12 p-1       0.2145514   -0.0476256    0.0475705   -0.2493954   -0.0234162
 45   H13 s0       -0.1653190   -0.0175131   -0.0142169   -0.1513798    0.0223935
 46   H14 s0        0.1653190    0.0175131    0.0142169   -0.1513798   -0.0223935
 47   C15 s0        0.0066328   -0.0116619   -0.0011892   -0.0036461    0.0043431
 48   C15 s0       -0.0249008    0.0474302   -0.0061030   -0.0009375   -0.0168603
 49   C15 p0        0.0000000    0.0000000    0.0000000    0.0000000    0.0000000
 50   C15 p+1      -0.2021687    0.1439476    0.0367928   -0.3361531    0.0143529
 51   C15 p-1       0.0897930    0.0673166   -0.2526648   -0.0166565   -0.0711862
 52   C16 s0       -0.0066328    0.0116619    0.0011892   -0.0036461   -0.0043431
 53   C16 s0        0.0249008   -0.0474302    0.0061030   -0.0009375    0.0168603
 54   C16 p0        0.0000000    0.0000000    0.0000000    0.0000000    0.0000000
 55   C16 p+1      -0.2021687    0.1439476    0.0367928    0.3361531    0.0143529
 56   C16 p-1       0.0897930    0.0673166   -0.2526648    0.0166565   -0.0711862
 57   H17 s0        0.0801737    0.0390359   -0.2227815    0.0257620   -0.0565386
 58   H18 s0       -0.0801737   -0.0390359    0.2227815    0.0257620    0.0565386
 59   H19 s0       -0.1790639    0.1180743    0.0903282   -0.2683668    0.0222594
 60   H20 s0        0.1790639   -0.1180743   -0.0903282   -0.2683668   -0.0222594

            Ene    -0.6056751   -0.5729488   -0.5535996   -0.5531589   -0.5253557
            Sym            Bu           Bu           Bu           Ag           Bu
            Occ             2            2            2            2            2


                           26           27           28           29           30

 1    C1 s0         0.0026032    0.0232819    0.0000000    0.0098276    0.0020961
 2    C1 s0        -0.0095182   -0.0835285    0.0000000   -0.0430334   -0.0163414
 3    C1 p0         0.0000000    0.0000000    0.3315016    0.0000000    0.0000000
 4    C1 p+1        0.1761292   -0.0045703    0.0000000    0.2441528    0.2594824
 5    C1 p-1        0.1769674    0.0838971    0.0000000   -0.0926650    0.1648204
 6    C2 s0        -0.0026032    0.0232819    0.0000000   -0.0098276    0.0020961
 7    C2 s0         0.0095182   -0.0835285    0.0000000    0.0430334   -0.0163414
 8    C2 p0         0.0000000    0.0000000    0.3315016    0.0000000    0.0000000
 9    C2 p+1        0.1761292    0.0045703    0.0000000    0.2441528   -0.2594824
 10   C2 p-1        0.1769674   -0.0838971    0.0000000   -0.0926650   -0.1648204
 11   C3 s0        -0.0170304    0.0042251    0.0000000   -0.0074368   -0.0040676
 12   C3 s0         0.0611256   -0.0214760    0.0000000    0.0234852    0.0132331
 13   C3 p0         0.0000000    0.0000000    0.3028341    0.0000000    0.0000000
 14   C3 p+1       -0.2224579    0.1326496    0.0000000    0.0350284   -0.2674599
 15   C3 p-1       -0.1123000   -0.1259676    0.0000000   -0.0664442   -0.1601596
 16   C4 s0         0.0170304    0.0042251    0.0000000    0.0074368   -0.0040676
 17   C4 s0        -0.0611256   -0.0214760    0.0000000   -0.0234852    0.0132331
 18   C4 p0         0.0000000    0.0000000    0.3028341    0.0000000    0.0000000
 19   C4 p+1       -0.2224579   -0.1326496    0.0000000    0.0350284    0.2674599
 20   C4 p-1       -0.1123000    0.1259676    0.0000000   -0.0664442    0.1601596
 21   C5 s0         0.0060527   -0.0071258    0.0000000    0.0137759    0.0096586
 22   C5 s0        -0.0170161    0.0241407    0.0000000   -0.0475251   -0.0284080
 23   C5 p0         0.0000000    0.0000000    0.3018703    0.0000000    0.0000000
 24   C5 p+1        0.1852456   -0.1370530    0.0000000   -0.0112565    0.2229126
 25   C5 p-1       -0.0770274    0.0616595    0.0000000    0.1440222    0.1185878
 26   C6 s0        -0.0060527   -0.0071258    0.0000000   -0.0137759    0.0096586
 27   C6 s0         0.0170161    0.0241407    0.0000000    0.0475251   -0.0284080
 28   C6 p0         0.0000000    0.0000000    0.3018703    0.0000000    0.0000000
 29   C6 p+1        0.1852456    0.1370530    0.0000000   -0.0112565   -0.2229126
 30   C6 p-1       -0.0770274   -0.0616595    0.0000000    0.1440222   -0.1185878
 31   H7 s0        -0.0024870   -0.1568600    0.0000000   -0.0488623   -0.0527934
 32   H8 s0         0.0024870   -0.1568600    0.0000000    0.0488623   -0.0527934
 33   H9 s0         0.0400118   -0.0001060    0.0000000    0.0594275    0.2539130
 34   H10 s0       -0.0400118   -0.0001060    0.0000000   -0.0594275    0.2539130
 35   C11 s0        0.0008577   -0.0151010    0.0000000   -0.0035069    0.0175173
 36   C11 s0        0.0122937    0.0631355    0.0000000    0.0112365   -0.0738690
 37   C11 p0        0.0000000    0.0000000    0.1655715    0.0000000    0.0000000
 38   C11 p+1      -0.1878086   -0.0792738    0.0000000   -0.1801856    0.2330415
 39   C11 p-1      -0.2028863   -0.2097230    0.0000000    0.2136818   -0.0248189
 40   C12 s0       -0.0008577   -0.0151010    0.0000000    0.0035069    0.0175173
 41   C12 s0       -0.0122937    0.0631355    0.0000000   -0.0112365   -0.0738690
 42   C12 p0        0.0000000    0.0000000    0.1655715    0.0000000    0.0000000
 43   C12 p+1      -0.1878086    0.0792738    0.0000000   -0.1801856   -0.2330415
 44   C12 p-1      -0.2028863    0.2097230    0.0000000    0.2136818    0.0248189
 45   H13 s0        0.1484643    0.2029548    0.0000000   -0.2572482    0.0464252
 46   H14 s0       -0.1484643    0.2029548    0.0000000    0.2572482    0.0464252
 47   C15 s0        0.0189096    0.0098859    0.0000000   -0.0026803   -0.0087223
 48   C15 s0       -0.0520184   -0.0260198    0.0000000    0.0122879    0.0234705
 49   C15 p0        0.0000000    0.0000000    0.0991402    0.0000000    0.0000000
 50   C15 p+1       0.2383476   -0.0517114    0.0000000    0.1422699   -0.1379339
 51   C15 p-1       0.1270182    0.2958919    0.0000000   -0.1938689   -0.0372766
 52   C16 s0       -0.0189096    0.0098859    0.0000000    0.0026803   -0.0087223
 53   C16 s0        0.0520184   -0.0260198    0.0000000   -0.0122879    0.0234705
 54   C16 p0        0.0000000    0.0000000    0.0991402    0.0000000    0.0000000
 55   C16 p+1       0.2383476    0.0517114    0.0000000    0.1422699    0.1379339
 56   C16 p-1       0.1270182   -0.2958919    0.0000000   -0.1938689    0.0372766
 57   H17 s0        0.0584855    0.2731963    0.0000000   -0.2263013    0.0321308
 58   H18 s0       -0.0584855    0.2731963    0.0000000    0.2263013    0.0321308
 59   H19 s0        0.1535494   -0.1458735    0.0000000    0.2119779   -0.1214575
 60   H20 s0       -0.1535494   -0.1458735    0.0000000   -0.2119779   -0.1214575

            Ene    -0.4966948   -0.4925269   -0.4637225   -0.4464321   -0.4216603
            Sym            Bu           Ag           Au           Bu           Ag
            Occ             2            2            2            2            2


                           31           32           33           34           35

 1    C1 s0         0.0062910    0.0000000    0.0000000    0.0000000    0.0000000
 2    C1 s0        -0.0316733    0.0000000    0.0000000    0.0000000    0.0000000
 3    C1 p0         0.0000000    0.3186709    0.0396496    0.0022508    0.4179956
 4    C1 p+1        0.1310432    0.0000000    0.0000000    0.0000000    0.0000000
 5    C1 p-1       -0.2782270    0.0000000    0.0000000    0.0000000    0.0000000
 6    C2 s0         0.0062910    0.0000000    0.0000000    0.0000000    0.0000000
 7    C2 s0        -0.0316733    0.0000000    0.0000000    0.0000000    0.0000000
 8    C2 p0         0.0000000   -0.3186709    0.0396496   -0.0022508   -0.4179956
 9    C2 p+1       -0.1310432    0.0000000    0.0000000    0.0000000    0.0000000
 10   C2 p-1        0.2782270    0.0000000    0.0000000    0.0000000    0.0000000
 11   C3 s0         0.0114956    0.0000000    0.0000000    0.0000000    0.0000000
 12   C3 s0        -0.0351247    0.0000000    0.0000000    0.0000000    0.0000000
 13   C3 p0         0.0000000    0.1242935    0.1645037   -0.4598178    0.2318869
 14   C3 p+1       -0.0861908    0.0000000    0.0000000    0.0000000    0.0000000
 15   C3 p-1        0.2099420    0.0000000    0.0000000    0.0000000    0.0000000
 16   C4 s0         0.0114956    0.0000000    0.0000000    0.0000000    0.0000000
 17   C4 s0        -0.0351247    0.0000000    0.0000000    0.0000000    0.0000000
 18   C4 p0         0.0000000   -0.1242935    0.1645037    0.4598178   -0.2318869
 19   C4 p+1        0.0861908    0.0000000    0.0000000    0.0000000    0.0000000
 20   C4 p-1       -0.2099420    0.0000000    0.0000000    0.0000000    0.0000000
 21   C5 s0        -0.0066562    0.0000000    0.0000000    0.0000000    0.0000000
 22   C5 s0         0.0202703    0.0000000    0.0000000    0.0000000    0.0000000
 23   C5 p0         0.0000000   -0.1194017    0.1649296   -0.4614916   -0.2320028
 24   C5 p+1        0.1248386    0.0000000    0.0000000    0.0000000    0.0000000
 25   C5 p-1       -0.2684488    0.0000000    0.0000000    0.0000000    0.0000000
 26   C6 s0        -0.0066562    0.0000000    0.0000000    0.0000000    0.0000000
 27   C6 s0         0.0202703    0.0000000    0.0000000    0.0000000    0.0000000
 28   C6 p0         0.0000000    0.1194017    0.1649296    0.4614916    0.2320028
 29   C6 p+1       -0.1248386    0.0000000    0.0000000    0.0000000    0.0000000
 30   C6 p-1        0.2684488    0.0000000    0.0000000    0.0000000    0.0000000
 31   H7 s0         0.2516220    0.0000000    0.0000000    0.0000000    0.0000000
 32   H8 s0         0.2516220    0.0000000    0.0000000    0.0000000    0.0000000
 33   H9 s0        -0.1231682    0.0000000    0.0000000    0.0000000    0.0000000
 34   H10 s0       -0.1231682    0.0000000    0.0000000    0.0000000    0.0000000
 35   C11 s0        0.0130842    0.0000000    0.0000000    0.0000000    0.0000000
 36   C11 s0       -0.0472960    0.0000000    0.0000000    0.0000000    0.0000000
 37   C11 p0        0.0000000   -0.3832114   -0.4151745   -0.0001915    0.2183454
 38   C11 p+1       0.1439442    0.0000000    0.0000000    0.0000000    0.0000000
 39   C11 p-1      -0.1405334    0.0000000    0.0000000    0.0000000    0.0000000
 40   C12 s0        0.0130842    0.0000000    0.0000000    0.0000000    0.0000000
 41   C12 s0       -0.0472960    0.0000000    0.0000000    0.0000000    0.0000000
 42   C12 p0        0.0000000    0.3832114   -0.4151745    0.0001915   -0.2183454
 43   C12 p+1      -0.1439442    0.0000000    0.0000000    0.0000000    0.0000000
 44   C12 p-1       0.1405334    0.0000000    0.0000000    0.0000000    0.0000000
 45   H13 s0        0.1837822    0.0000000    0.0000000    0.0000000    0.0000000
 46   H14 s0        0.1837822    0.0000000    0.0000000    0.0000000    0.0000000
 47   C15 s0        0.0030276    0.0000000    0.0000000    0.0000000    0.0000000
 48   C15 s0       -0.0138002    0.0000000    0.0000000    0.0000000    0.0000000
 49   C15 p0        0.0000000   -0.3066715   -0.4262988   -0.0026252    0.3581830
 50   C15 p+1      -0.0562205    0.0000000    0.0000000    0.0000000    0.0000000
 51   C15 p-1       0.1010161    0.0000000    0.0000000    0.0000000    0.0000000
 52   C16 s0        0.0030276    0.0000000    0.0000000    0.0000000    0.0000000
 53   C16 s0       -0.0138002    0.0000000    0.0000000    0.0000000    0.0000000
 54   C16 p0        0.0000000    0.3066715   -0.4262988    0.0026252   -0.3581830
 55   C16 p+1       0.0562205    0.0000000    0.0000000    0.0000000    0.0000000
 56   C16 p-1      -0.1010161    0.0000000    0.0000000    0.0000000    0.0000000
 57   H17 s0        0.1173213    0.0000000    0.0000000    0.0000000    0.0000000
 58   H18 s0        0.1173213    0.0000000    0.0000000    0.0000000    0.0000000
 59   H19 s0       -0.1024157    0.0000000    0.0000000    0.0000000    0.0000000
 60   H20 s0       -0.1024157    0.0000000    0.0000000    0.0000000    0.0000000

            Ene    -0.4156294   -0.3769514   -0.3151165   -0.2783540   -0.2221793
            Sym            Ag           Bg           Au           Bg           Bg
            Occ             2            2            2            2            2


                           36           37           38           39           40

 1    C1 s0         0.0000000    0.0000000    0.0000000    0.0000000    0.0000000
 2    C1 s0         0.0000000    0.0000000    0.0000000    0.0000000    0.0000000
 3    C1 p0         0.4715377    0.0222927    0.0379054    0.4734913    0.5387117
 4    C1 p+1        0.0000000    0.0000000    0.0000000    0.0000000    0.0000000
 5    C1 p-1        0.0000000    0.0000000    0.0000000    0.0000000    0.0000000
 6    C2 s0         0.0000000    0.0000000    0.0000000    0.0000000    0.0000000
 7    C2 s0         0.0000000    0.0000000    0.0000000    0.0000000    0.0000000
 8    C2 p0         0.4715377    0.0222927   -0.0379054    0.4734913   -0.5387117
 9    C2 p+1        0.0000000    0.0000000    0.0000000    0.0000000    0.0000000
 10   C2 p-1        0.0000000    0.0000000    0.0000000    0.0000000    0.0000000
 11   C3 s0         0.0000000    0.0000000    0.0000000    0.0000000    0.0000000
 12   C3 s0         0.0000000    0.0000000    0.0000000    0.0000000    0.0000000
 13   C3 p0        -0.2499743   -0.5785580   -0.2255400   -0.1618579   -0.4694822
 14   C3 p+1        0.0000000    0.0000000    0.0000000    0.0000000    0.0000000
 15   C3 p-1        0.0000000    0.0000000    0.0000000    0.0000000    0.0000000
 16   C4 s0         0.0000000    0.0000000    0.0000000    0.0000000    0.0000000
 17   C4 s0         0.0000000    0.0000000    0.0000000    0.0000000    0.0000000
 18   C4 p0        -0.2499743   -0.5785580    0.2255400   -0.1618579    0.4694822
 19   C4 p+1        0.0000000    0.0000000    0.0000000    0.0000000    0.0000000
 20   C4 p-1        0.0000000    0.0000000    0.0000000    0.0000000    0.0000000
 21   C5 s0         0.0000000    0.0000000    0.0000000    0.0000000    0.0000000
 22   C5 s0         0.0000000    0.0000000    0.0000000    0.0000000    0.0000000
 23   C5 p0        -0.2785687    0.5581063    0.2204315   -0.1867753    0.4714882
 24   C5 p+1        0.0000000    0.0000000    0.0000000    0.0000000    0.0000000
 25   C5 p-1        0.0000000    0.0000000    0.0000000    0.0000000    0.0000000
 26   C6 s0         0.0000000    0.0000000    0.0000000    0.0000000    0.0000000
 27   C6 s0         0.0000000    0.0000000    0.0000000    0.0000000    0.0000000
 28   C6 p0        -0.2785687    0.5581063   -0.2204315   -0.1867753   -0.4714882
 29   C6 p+1        0.0000000    0.0000000    0.0000000    0.0000000    0.0000000
 30   C6 p-1        0.0000000    0.0000000    0.0000000    0.0000000    0.0000000
 31   H7 s0         0.0000000    0.0000000    0.0000000    0.0000000    0.0000000
 32   H8 s0         0.0000000    0.0000000    0.0000000    0.0000000    0.0000000
 33   H9 s0         0.0000000    0.0000000    0.0000000    0.0000000    0.0000000
 34   H10 s0        0.0000000    0.0000000    0.0000000    0.0000000    0.0000000
 35   C11 s0        0.0000000    0.0000000    0.0000000    0.0000000    0.0000000
 36   C11 s0        0.0000000    0.0000000    0.0000000    0.0000000    0.0000000
 37   C11 p0        0.2469347   -0.0033034   -0.5243948   -0.5350716    0.2787468
 38   C11 p+1       0.0000000    0.0000000    0.0000000    0.0000000    0.0000000
 39   C11 p-1       0.0000000    0.0000000    0.0000000    0.0000000    0.0000000
 40   C12 s0        0.0000000    0.0000000    0.0000000    0.0000000    0.0000000
 41   C12 s0        0.0000000    0.0000000    0.0000000    0.0000000    0.0000000
 42   C12 p0        0.2469347   -0.0033034    0.5243948   -0.5350716   -0.2787468
 43   C12 p+1       0.0000000    0.0000000    0.0000000    0.0000000    0.0000000
 44   C12 p-1       0.0000000    0.0000000    0.0000000    0.0000000    0.0000000
 45   H13 s0        0.0000000    0.0000000    0.0000000    0.0000000    0.0000000
 46   H14 s0        0.0000000    0.0000000    0.0000000    0.0000000    0.0000000
 47   C15 s0        0.0000000    0.0000000    0.0000000    0.0000000    0.0000000
 48   C15 s0        0.0000000    0.0000000    0.0000000    0.0000000    0.0000000
 49   C15 p0       -0.4149230   -0.0040755    0.5312349    0.4073524   -0.1584729
 50   C15 p+1       0.0000000    0.0000000    0.0000000    0.0000000    0.0000000
 51   C15 p-1       0.0000000    0.0000000    0.0000000    0.0000000    0.0000000
 52   C16 s0        0.0000000    0.0000000    0.0000000    0.0000000    0.0000000
 53   C16 s0        0.0000000    0.0000000    0.0000000    0.0000000    0.0000000
 54   C16 p0       -0.4149230   -0.0040755   -0.5312349    0.4073524    0.1584729
 55   C16 p+1       0.0000000    0.0000000    0.0000000    0.0000000    0.0000000
 56   C16 p-1       0.0000000    0.0000000    0.0000000    0.0000000    0.0000000
 57   H17 s0        0.0000000    0.0000000    0.0000000    0.0000000    0.0000000
 58   H18 s0        0.0000000    0.0000000    0.0000000    0.0000000    0.0000000
 59   H19 s0        0.0000000    0.0000000    0.0000000    0.0000000    0.0000000
 60   H20 s0        0.0000000    0.0000000    0.0000000    0.0000000    0.0000000

            Ene     0.1990150    0.2685361    0.3088514    0.3971033    0.5217882
            Sym            Au           Au           Bg           Au           Bg
            Occ             0            0            0            0            0


                           41           42           43           44           45

 1    C1 s0         0.0634617    0.0295879    0.0201361    0.0552080    0.0454441
 2    C1 s0        -0.3800221   -0.1768985   -0.1234646   -0.3251167   -0.2786105
 3    C1 p0         0.0000000    0.0000000    0.0000000    0.0000000    0.0000000
 4    C1 p+1        0.2684084    0.1131052   -0.0775214    0.4531355    0.1493716
 5    C1 p-1       -0.0871704   -0.2829500   -0.1132969    0.0830056    0.2480965
 6    C2 s0         0.0634617   -0.0295879    0.0201361   -0.0552080    0.0454441
 7    C2 s0        -0.3800221    0.1768985   -0.1234646    0.3251167   -0.2786105
 8    C2 p0         0.0000000    0.0000000    0.0000000    0.0000000    0.0000000
 9    C2 p+1       -0.2684084    0.1131052    0.0775214    0.4531355   -0.1493716
 10   C2 p-1        0.0871704   -0.2829500    0.1132969    0.0830056   -0.2480965
 11   C3 s0         0.0291456   -0.0043284   -0.0640867   -0.0232957    0.0735320
 12   C3 s0        -0.1829174    0.0204292    0.3978986    0.1449475   -0.4574416
 13   C3 p0         0.0000000    0.0000000    0.0000000    0.0000000    0.0000000
 14   C3 p+1        0.0667133    0.0030737   -0.1132665    0.2198310   -0.1465145
 15   C3 p-1       -0.3088917   -0.3555262    0.0038666    0.1180232   -0.0608624
 16   C4 s0         0.0291456    0.0043284   -0.0640867    0.0232957    0.0735320
 17   C4 s0        -0.1829174   -0.0204292    0.3978986   -0.1449475   -0.4574416
 18   C4 p0         0.0000000    0.0000000    0.0000000    0.0000000    0.0000000
 19   C4 p+1       -0.0667133    0.0030737    0.1132665    0.2198310    0.1465145
 20   C4 p-1        0.3088917   -0.3555262   -0.0038666    0.1180232    0.0608624
 21   C5 s0         0.0484011    0.0143995   -0.0147690    0.0009577   -0.0939782
 22   C5 s0        -0.2983282   -0.0893432    0.0970386    0.0007909    0.5828289
 23   C5 p0         0.0000000    0.0000000    0.0000000    0.0000000    0.0000000
 24   C5 p+1       -0.1350342   -0.0052852    0.2001006    0.3267371   -0.0233984
 25   C5 p-1       -0.2085970   -0.2913226    0.1715732    0.2622093   -0.0247882
 26   C6 s0         0.0484011   -0.0143995   -0.0147690   -0.0009577   -0.0939782
 27   C6 s0        -0.2983282    0.0893432    0.0970386   -0.0007909    0.5828289
 28   C6 p0         0.0000000    0.0000000    0.0000000    0.0000000    0.0000000
 29   C6 p+1        0.1350342   -0.0052852   -0.2001006    0.3267371    0.0233984
 30   C6 p-1        0.2085970   -0.2913226   -0.1715732    0.2622093    0.0247882
 31   H7 s0         0.4209566    0.3188727   -0.2864963   -0.1013193    0.2436855
 32   H8 s0         0.4209566   -0.3188727   -0.2864963    0.1013193    0.2436855
 33   H9 s0         0.4348350    0.2765724   -0.2745632   -0.4088345   -0.2061135
 34   H10 s0        0.4348350   -0.2765724   -0.2745632    0.4088345   -0.2061135
 35   C11 s0       -0.0482626   -0.0137276    0.0645797    0.0893153   -0.0163099
 36   C11 s0        0.2767295    0.0835330   -0.3945692   -0.5297845    0.1080553
 37   C11 p0        0.0000000    0.0000000    0.0000000    0.0000000    0.0000000
 38   C11 p+1      -0.3250049    0.2006987   -0.0756058    0.3188325   -0.2349967
 39   C11 p-1       0.2383817   -0.3499955    0.3503758   -0.0764246   -0.1253118
 40   C12 s0       -0.0482626    0.0137276    0.0645797   -0.0893153   -0.0163099
 41   C12 s0        0.2767295   -0.0835330   -0.3945692    0.5297845    0.1080553
 42   C12 p0        0.0000000    0.0000000    0.0000000    0.0000000    0.0000000
 43   C12 p+1       0.3250049    0.2006987    0.0756058    0.3188325    0.2349967
 44   C12 p-1      -0.2383817   -0.3499955   -0.3503758   -0.0764246    0.1253118
 45   H13 s0        0.1403264   -0.4487467    0.5895883    0.1307452   -0.1263803
 46   H14 s0        0.1403264    0.4487467    0.5895883   -0.1307452   -0.1263803
 47   C15 s0        0.0411369   -0.0013470   -0.0177482   -0.0564234   -0.1075805
 48   C15 s0       -0.2427024    0.0135370    0.0987658    0.3378532    0.6835994
 49   C15 p0        0.0000000    0.0000000    0.0000000    0.0000000    0.0000000
 50   C15 p+1      -0.1508123    0.1735849   -0.2454692    0.1666904    0.0727828
 51   C15 p-1       0.1377202   -0.3012044    0.2984700   -0.1111280    0.2494803
 52   C16 s0        0.0411369    0.0013470   -0.0177482    0.0564234   -0.1075805
 53   C16 s0       -0.2427024   -0.0135370    0.0987658   -0.3378532    0.6835994
 54   C16 p0        0.0000000    0.0000000    0.0000000    0.0000000    0.0000000
 55   C16 p+1       0.1508123    0.1735849    0.2454692    0.1666904   -0.0727828
 56   C16 p-1      -0.1377202   -0.3012044   -0.2984700   -0.1111280   -0.2494803
 57   H17 s0       -0.0986979    0.3215635   -0.3813484    0.0019296   -0.5418355
 58   H18 s0       -0.0986979   -0.3215635   -0.3813484   -0.0019296   -0.5418355
 59   H19 s0        0.3538356   -0.2791121    0.2620505   -0.3896080   -0.3307994
 60   H20 s0        0.3538356    0.2791121    0.2620505    0.3896080   -0.3307994

            Ene     0.5650476    0.5756009    0.6215856    0.6258370    0.6582487
            Sym            Ag           Bu           Ag           Bu           Ag
            Occ             0            0            0            0            0


                           46           47           48           49           50

 1    C1 s0         0.0826802    0.0177367    0.1294651    0.0603013    0.0402038
 2    C1 s0        -0.4924088   -0.1140111   -0.7966666   -0.3631288   -0.2541523
 3    C1 p0         0.0000000    0.0000000    0.0000000    0.0000000    0.0000000
 4    C1 p+1        0.0317486   -0.2581695   -0.0136289   -0.1141775   -0.0465708
 5    C1 p-1        0.1165026    0.1053452    0.0437331   -0.1399165   -0.3445856
 6    C2 s0        -0.0826802   -0.0177367    0.1294651   -0.0603013    0.0402038
 7    C2 s0         0.4924088    0.1140111   -0.7966666    0.3631288   -0.2541523
 8    C2 p0         0.0000000    0.0000000    0.0000000    0.0000000    0.0000000
 9    C2 p+1        0.0317486   -0.2581695    0.0136289   -0.1141775    0.0465708
 10   C2 p-1        0.1165026    0.1053452   -0.0437331   -0.1399165    0.3445856
 11   C3 s0        -0.0762518   -0.0573675   -0.0700348   -0.0581397   -0.1135291
 12   C3 s0         0.4615271    0.3610614    0.4442007    0.3570857    0.7277617
 13   C3 p0         0.0000000    0.0000000    0.0000000    0.0000000    0.0000000
 14   C3 p+1        0.0274513   -0.3207784   -0.2961037   -0.1218105    0.1076744
 15   C3 p-1        0.1128526    0.3206563    0.0119448   -0.1480936   -0.0762061
 16   C4 s0         0.0762518    0.0573675   -0.0700348    0.0581397   -0.1135291
 17   C4 s0        -0.4615271   -0.3610614    0.4442007   -0.3570857    0.7277617
 18   C4 p0         0.0000000    0.0000000    0.0000000    0.0000000    0.0000000
 19   C4 p+1        0.0274513   -0.3207784    0.2961037   -0.1218105   -0.1076744
 20   C4 p-1        0.1128526    0.3206563   -0.0119448   -0.1480936    0.0762061
 21   C5 s0         0.0996154    0.0045571   -0.0740365    0.0682258    0.0954649
 22   C5 s0        -0.6111886   -0.0163246    0.4692682   -0.4251356   -0.6144388
 23   C5 p0         0.0000000    0.0000000    0.0000000    0.0000000    0.0000000
 24   C5 p+1       -0.1110937   -0.1108674    0.2405079   -0.1486686    0.1802801
 25   C5 p-1        0.0089557    0.2039129   -0.2255843   -0.1822798   -0.1586762
 26   C6 s0        -0.0996154   -0.0045571   -0.0740365   -0.0682258    0.0954649
 27   C6 s0         0.6111886    0.0163246    0.4692682    0.4251356   -0.6144388
 28   C6 p0         0.0000000    0.0000000    0.0000000    0.0000000    0.0000000
 29   C6 p+1       -0.1110937   -0.1108674   -0.2405079   -0.1486686   -0.1802801
 30   C6 p-1        0.0089557    0.2039129    0.2255843   -0.1822798    0.1586762
 31   H7 s0        -0.3382570   -0.5982654   -0.2954293   -0.0774581   -0.2435676
 32   H8 s0         0.3382570    0.5982654   -0.2954293    0.0774581   -0.2435676
 33   H9 s0         0.3275917   -0.0495976   -0.2202036    0.4882354    0.3397229
 34   H10 s0       -0.3275917    0.0495976   -0.2202036   -0.4882354    0.3397229
 35   C11 s0        0.0407385   -0.0734236   -0.0930737    0.0699981   -0.0328240
 36   C11 s0       -0.2602239    0.4673335    0.5705745   -0.4303572    0.2305791
 37   C11 p0        0.0000000    0.0000000    0.0000000    0.0000000    0.0000000
 38   C11 p+1       0.1902357   -0.0608882   -0.0977085   -0.1240332   -0.0745148
 39   C11 p-1       0.1495012   -0.2242029   -0.1153357    0.0587047   -0.0376726
 40   C12 s0       -0.0407385    0.0734236   -0.0930737   -0.0699981   -0.0328240
 41   C12 s0        0.2602239   -0.4673335    0.5705745    0.4303572    0.2305791
 42   C12 p0        0.0000000    0.0000000    0.0000000    0.0000000    0.0000000
 43   C12 p+1       0.1902357   -0.0608882    0.0977085   -0.1240332    0.0745148
 44   C12 p-1       0.1495012   -0.2242029    0.1153357    0.0587047    0.0376726
 45   H13 s0        0.1958454   -0.4380172   -0.3648133    0.2965769   -0.0871843
 46   H14 s0       -0.1958454    0.4380172   -0.3648133   -0.2965769   -0.0871843
 47   C15 s0        0.0834615   -0.0208728    0.0633575   -0.1104303   -0.0610055
 48   C15 s0       -0.5333584    0.1416061   -0.3903688    0.7023406    0.3976396
 49   C15 p0        0.0000000    0.0000000    0.0000000    0.0000000    0.0000000
 50   C15 p+1      -0.1181235    0.2910651   -0.0653468    0.0186921    0.3718680
 51   C15 p-1      -0.2637270   -0.0301699    0.0289588    0.1410493    0.1364846
 52   C16 s0       -0.0834615    0.0208728    0.0633575    0.1104303   -0.0610055
 53   C16 s0        0.5333584   -0.1416061   -0.3903688   -0.7023406    0.3976396
 54   C16 p0        0.0000000    0.0000000    0.0000000    0.0000000    0.0000000
 55   C16 p+1      -0.1181235    0.2910651    0.0653468    0.0186921   -0.3718680
 56   C16 p-1      -0.2637270   -0.0301699   -0.0289588    0.1410493   -0.1364846
 57   H17 s0        0.4603653    0.0277305    0.1732741   -0.5149211   -0.2860415
 58   H18 s0       -0.4603653   -0.0277305    0.1732741    0.5149211   -0.2860415
 59   H19 s0        0.2925142   -0.3286535    0.2673424   -0.3163960   -0.4568411
 60   H20 s0       -0.2925142    0.3286535    0.2673424    0.3163960   -0.4568411

            Ene     0.6594072    0.6772058    0.6941973    0.7067177    0.7401523
            Sym            Bu           Bu           Ag           Bu           Ag
            Occ             0            0            0            0            0


                           51           52           53           54           55

 1    C1 s0         0.0682850    0.0027282    0.0004590    0.0515053    0.0945048
 2    C1 s0        -0.4627241   -0.0082229    0.0031922   -0.3616206   -0.6486995
 3    C1 p0         0.0000000    0.0000000    0.0000000    0.0000000    0.0000000
 4    C1 p+1       -0.5873900   -0.0535892    0.0465568   -0.0028094    0.0545455
 5    C1 p-1        0.1189508   -0.5555995   -0.2134582   -0.2631565    0.1898964
 6    C2 s0         0.0682850   -0.0027282    0.0004590   -0.0515053   -0.0945048
 7    C2 s0        -0.4627241    0.0082229    0.0031922    0.3616206    0.6486995
 8    C2 p0         0.0000000    0.0000000    0.0000000    0.0000000    0.0000000
 9    C2 p+1        0.5873900   -0.0535892   -0.0465568   -0.0028094    0.0545455
 10   C2 p-1       -0.1189508   -0.5555995    0.2134582   -0.2631565    0.1898964
 11   C3 s0        -0.0137703   -0.0943960   -0.0043352    0.0347271    0.0087921
 12   C3 s0         0.0918418    0.6427447    0.0356653   -0.2391146   -0.0750917
 13   C3 p0         0.0000000    0.0000000    0.0000000    0.0000000    0.0000000
 14   C3 p+1       -0.1586737   -0.0983679    0.1997019   -0.7158671   -0.1372886
 15   C3 p-1       -0.4473822    0.0158754   -0.5304578   -0.1968024   -0.2719475
 16   C4 s0        -0.0137703    0.0943960   -0.0043352   -0.0347271   -0.0087921
 17   C4 s0         0.0918418   -0.6427447    0.0356653    0.2391146    0.0750917
 18   C4 p0         0.0000000    0.0000000    0.0000000    0.0000000    0.0000000
 19   C4 p+1        0.1586737   -0.0983679   -0.1997019   -0.7158671   -0.1372886
 20   C4 p-1        0.4473822    0.0158754    0.5304578   -0.1968024   -0.2719475
 21   C5 s0        -0.0479677   -0.0344290    0.0031534   -0.0875969    0.0289171
 22   C5 s0         0.3157650    0.2429002   -0.0289660    0.6105988   -0.1913396
 23   C5 p0         0.0000000    0.0000000    0.0000000    0.0000000    0.0000000
 24   C5 p+1       -0.0135421    0.4804364    0.3928849   -0.3835570   -0.2098166
 25   C5 p-1       -0.3248325   -0.1937335    0.5201971    0.3001167    0.3926688
 26   C6 s0        -0.0479677    0.0344290    0.0031534    0.0875969   -0.0289171
 27   C6 s0         0.3157650   -0.2429002   -0.0289660   -0.6105988    0.1913396
 28   C6 p0         0.0000000    0.0000000    0.0000000    0.0000000    0.0000000
 29   C6 p+1        0.0135421    0.4804364   -0.3928849   -0.3835570   -0.2098166
 30   C6 p-1        0.3248325   -0.1937335   -0.5201971    0.3001167    0.3926688
 31   H7 s0         0.2416684   -0.2985819    0.4416863    0.0616474    0.1498415
 32   H8 s0         0.2416684    0.2985819    0.4416863   -0.0616474   -0.1498415
 33   H9 s0         0.0527828   -0.2088119   -0.5094256   -0.2538691   -0.0225878
 34   H10 s0        0.0527828    0.2088119   -0.5094256    0.2538691    0.0225878
 35   C11 s0        0.0731530    0.0268836   -0.0520381    0.0620932   -0.0176777
 36   C11 s0       -0.4859985   -0.1986127    0.3632018   -0.4340543    0.1441621
 37   C11 p0        0.0000000    0.0000000    0.0000000    0.0000000    0.0000000
 38   C11 p+1      -0.0238824   -0.0478904    0.1623077   -0.1054662    0.4839237
 39   C11 p-1       0.1568559   -0.2760580    0.1416647    0.0774075   -0.2950779
 40   C12 s0        0.0731530   -0.0268836   -0.0520381   -0.0620932    0.0176777
 41   C12 s0       -0.4859985    0.1986127    0.3632018    0.4340543   -0.1441621
 42   C12 p0        0.0000000    0.0000000    0.0000000    0.0000000    0.0000000
 43   C12 p+1       0.0238824   -0.0478904   -0.1623077   -0.1054662    0.4839237
 44   C12 p-1      -0.1568559   -0.2760580   -0.1416647    0.0774075   -0.2950779
 45   H13 s0        0.3109702   -0.1515968   -0.0806065    0.2588753   -0.3278717
 46   H14 s0        0.3109702    0.1515968   -0.0806065   -0.2588753    0.3278717
 47   C15 s0       -0.0191290   -0.0099644    0.0416609   -0.0093715    0.0177151
 48   C15 s0        0.1211951    0.0789327   -0.2902271    0.0621790   -0.1295120
 49   C15 p0        0.0000000    0.0000000    0.0000000    0.0000000    0.0000000
 50   C15 p+1       0.1337182   -0.4902913    0.2916114   -0.0965164   -0.2375888
 51   C15 p-1      -0.3575769    0.0201566    0.0974125   -0.3071978    0.5062203
 52   C16 s0       -0.0191290    0.0099644    0.0416609    0.0093715   -0.0177151
 53   C16 s0        0.1211951   -0.0789327   -0.2902271   -0.0621790    0.1295120
 54   C16 p0        0.0000000    0.0000000    0.0000000    0.0000000    0.0000000
 55   C16 p+1      -0.1337182   -0.4902913   -0.2916114   -0.0965164   -0.2375888
 56   C16 p-1       0.3575769    0.0201566   -0.0974125   -0.3071978    0.5062203
 57   H17 s0        0.2450350   -0.1053667    0.1284266    0.2285280   -0.3453540
 58   H18 s0        0.2450350    0.1053667    0.1284266   -0.2285280    0.3453540
 59   H19 s0       -0.2548675    0.3564768   -0.0806542   -0.0283535    0.3309927
 60   H20 s0       -0.2548675   -0.3564768   -0.0806542    0.0283535   -0.3309927

            Ene     0.8022543    0.8256873    0.8606383    0.8877913    0.9210417
            Sym            Ag           Bu           Ag           Bu           Bu
            Occ             0            0            0            0            0


                           56           57           58           59           60

 1    C1 s0         0.0141955    0.0175799    0.0195345    0.0047418    0.0424106
 2    C1 s0        -0.0848094   -0.1121099   -0.1394459   -0.0320225   -0.3214941
 3    C1 p0         0.0000000    0.0000000    0.0000000    0.0000000    0.0000000
 4    C1 p+1        0.3604459    0.4114668   -0.1313459   -0.0509347   -0.6631798
 5    C1 p-1       -0.1081632    0.1025212   -0.4692397   -0.7122812    0.1588405
 6    C2 s0         0.0141955    0.0175799   -0.0195345    0.0047418   -0.0424106
 7    C2 s0        -0.0848094   -0.1121099    0.1394459   -0.0320225    0.3214941
 8    C2 p0         0.0000000    0.0000000    0.0000000    0.0000000    0.0000000
 9    C2 p+1       -0.3604459   -0.4114668   -0.1313459    0.0509347   -0.6631798
 10   C2 p-1        0.1081632   -0.1025212   -0.4692397    0.7122812    0.1588405
 11   C3 s0         0.0282024   -0.0180797   -0.0462941   -0.0071919   -0.0508823
 12   C3 s0        -0.2015191    0.1318641    0.3390632    0.0497468    0.3753858
 13   C3 p0         0.0000000    0.0000000    0.0000000    0.0000000    0.0000000
 14   C3 p+1       -0.3934412    0.3645694   -0.1375428   -0.5468847    0.2426225
 15   C3 p-1        0.2675496    0.1165527   -0.1961718   -0.2471316   -0.5651583
 16   C4 s0         0.0282024   -0.0180797    0.0462941   -0.0071919    0.0508823
 17   C4 s0        -0.2015191    0.1318641   -0.3390632    0.0497468   -0.3753858
 18   C4 p0         0.0000000    0.0000000    0.0000000    0.0000000    0.0000000
 19   C4 p+1        0.3934412   -0.3645694   -0.1375428    0.5468847    0.2426225
 20   C4 p-1       -0.2675496   -0.1165527   -0.1961718    0.2471316   -0.5651583
 21   C5 s0        -0.0315872    0.0160084   -0.0222655    0.0073399    0.0555055
 22   C5 s0         0.2209514   -0.1184063    0.1677391   -0.0496995   -0.4115333
 23   C5 p0         0.0000000    0.0000000    0.0000000    0.0000000    0.0000000
 24   C5 p+1       -0.3275148    0.4296626    0.2158092   -0.4253049    0.3920193
 25   C5 p-1        0.1552583    0.0539178   -0.0551278    0.4422812    0.4959338
 26   C6 s0        -0.0315872    0.0160084    0.0222655    0.0073399   -0.0555055
 27   C6 s0         0.2209514   -0.1184063   -0.1677391   -0.0496995    0.4115333
 28   C6 p0         0.0000000    0.0000000    0.0000000    0.0000000    0.0000000
 29   C6 p+1        0.3275148   -0.4296626    0.2158092    0.4253049    0.3920193
 30   C6 p-1       -0.1552583   -0.0539178   -0.0551278   -0.4422812    0.4959338
 31   H7 s0        -0.2176425   -0.0476814   -0.0238981    0.0084359    0.2696129
 32   H8 s0        -0.2176425   -0.0476814    0.0238981    0.0084359   -0.2696129
 33   H9 s0        -0.0352100   -0.2042773   -0.1057734   -0.0384790   -0.2772491
 34   H10 s0       -0.0352100   -0.2042773    0.1057734   -0.0384790    0.2772491
 35   C11 s0       -0.0433406    0.0363883   -0.0583370    0.0241522   -0.0140867
 36   C11 s0        0.3072475   -0.2970790    0.4518733   -0.1974621    0.0879590
 37   C11 p0        0.0000000    0.0000000    0.0000000    0.0000000    0.0000000
 38   C11 p+1      -0.1475784   -0.6797150    0.4553641   -0.2989650   -0.3652230
 39   C11 p-1       0.5560277   -0.1028412    0.6104744   -0.4161553    0.0260483
 40   C12 s0       -0.0433406    0.0363883    0.0583370    0.0241522    0.0140867
 41   C12 s0        0.3072475   -0.2970790   -0.4518733   -0.1974621   -0.0879590
 42   C12 p0        0.0000000    0.0000000    0.0000000    0.0000000    0.0000000
 43   C12 p+1       0.1475784    0.6797150    0.4553641    0.2989650   -0.3652230
 44   C12 p-1      -0.5560277    0.1028412    0.6104744    0.4161553    0.0260483
 45   H13 s0        0.3083633    0.1460764    0.1788764   -0.1578102    0.0487933
 46   H14 s0        0.3083633    0.1460764   -0.1788764   -0.1578102   -0.0487933
 47   C15 s0        0.0326673   -0.0463448    0.0684489   -0.0382180   -0.0088608
 48   C15 s0       -0.2418031    0.3555141   -0.5269273    0.3055779    0.0784051
 49   C15 p0        0.0000000    0.0000000    0.0000000    0.0000000    0.0000000
 50   C15 p+1       0.5404851   -0.1806705    0.5349911   -0.3015005    0.0042433
 51   C15 p-1      -0.1299434   -0.5845372    0.3913132   -0.2413928   -0.2169466
 52   C16 s0        0.0326673   -0.0463448   -0.0684489   -0.0382180    0.0088608
 53   C16 s0       -0.2418031    0.3555141    0.5269273    0.3055779   -0.0784051
 54   C16 p0        0.0000000    0.0000000    0.0000000    0.0000000    0.0000000
 55   C16 p+1      -0.5404851    0.1806705    0.5349911    0.3015005    0.0042433
 56   C16 p-1       0.1299434    0.5845372    0.3913132    0.2413928   -0.2169466
 57   H17 s0        0.2654392    0.2725520   -0.0114519    0.0313954    0.1367857
 58   H18 s0        0.2654392    0.2725520    0.0114519    0.0313954   -0.1367857
 59   H19 s0       -0.3204762   -0.1228658   -0.0963462    0.0465118   -0.0663295
 60   H20 s0       -0.3204762   -0.1228658    0.0963462    0.0465118    0.0663295

            Ene     0.9399782    0.9903244    1.0272977    1.1077464    1.1249603
            Sym            Ag           Ag           Bu           Ag           Bu
            Occ             0            0            0            0            0



*** tstop() called on osmium at Sat May  4 00:24:22 2019
Module time:
	user time   =       2.70 seconds =       0.05 minutes
	system time =       0.03 seconds =       0.00 minutes
	total time  =          3 seconds =       0.05 minutes
Total time:
	user time   =       2.70 seconds =       0.05 minutes
	system time =       0.03 seconds =       0.00 minutes
	total time  =          3 seconds =       0.05 minutes


Properties will be evaluated at   0.000000,   0.000000,   0.000000 [a0]
OEProp: No title given, name of density matrix used for the following properties is 'SCF density'

 Multipole Moments:

 ------------------------------------------------------------------------------------
     Multipole             Electric (a.u.)       Nuclear  (a.u.)        Total (a.u.)
 ------------------------------------------------------------------------------------

 L = 1.  Multiply by 2.5417464519 to convert to Debye
 Dipole X            :          0.0000000            0.0000000            0.0000000
 Dipole Y            :          0.0000000            0.0000000            0.0000000
 Dipole Z            :          0.0000000            0.0000000            0.0000000

 L = 2.  Multiply by 1.3450342976 to convert to Debye.ang
 Quadrupole XX       :      -1535.8925331         1496.8839879          -39.0085452
 Quadrupole XY       :        -11.5265690           11.4580037           -0.0685653
 Quadrupole XZ       :          0.0000000            0.0000000            0.0000000
 Quadrupole YY       :       -283.2387718          244.8754365          -38.3633354
 Quadrupole YZ       :          0.0000000            0.0000000            0.0000000
 Quadrupole ZZ       :        -43.5643397            0.0000000          -43.5643397

 L = 3.  Multiply by 0.7117614979 to convert to Debye.ang^2
 Octupole XXX        :          0.0000000            0.0000000            0.0000000
 Octupole XXY        :          0.0000000            0.0000000            0.0000000
 Octupole XXZ        :          0.0000000            0.0000000            0.0000000
 Octupole XYY        :          0.0000000            0.0000000            0.0000000
 Octupole XYZ        :          0.0000000            0.0000000            0.0000000
 Octupole XZZ        :          0.0000000            0.0000000            0.0000000
 Octupole YYY        :          0.0000000            0.0000000            0.0000000
 Octupole YYZ        :          0.0000000            0.0000000            0.0000000
 Octupole YZZ        :          0.0000000            0.0000000            0.0000000
 Octupole ZZZ        :          0.0000000            0.0000000            0.0000000

 L = 4.  Multiply by 0.3766479641 to convert to Debye.ang^3
 Hexadecapole XXXX   :     -73574.8429894        68490.6488536        -5084.1941357
 Hexadecapole XXXY   :      -2528.4036771         2491.6209064          -36.7827707
 Hexadecapole XXXZ   :          0.0000000            0.0000000            0.0000000
 Hexadecapole XXYY   :      -3640.8554078         2641.3398160         -999.5155919
 Hexadecapole XXYZ   :          0.0000000            0.0000000            0.0000000
 Hexadecapole XXZZ   :       -975.7102296            0.0000000         -975.7102296
 Hexadecapole XYYY   :         26.1846403          -48.3518189          -22.1671787
 Hexadecapole XYYZ   :          0.0000000            0.0000000            0.0000000
 Hexadecapole XYZZ   :         -7.1963908            0.0000000           -7.1963908
 Hexadecapole XZZZ   :          0.0000000            0.0000000            0.0000000
 Hexadecapole YYYY   :      -3004.6525366         2103.6746443         -900.9778924
 Hexadecapole YYYZ   :          0.0000000            0.0000000            0.0000000
 Hexadecapole YYZZ   :       -192.3816497            0.0000000         -192.3816497
 Hexadecapole YZZZ   :          0.0000000            0.0000000            0.0000000
 Hexadecapole ZZZZ   :       -126.3744328            0.0000000         -126.3744328

 L = 5.  Multiply by 0.1993135191 to convert to Debye.ang^4
 32-pole XXXXX       :          0.0000000            0.0000000            0.0000000
 32-pole XXXXY       :          0.0000000            0.0000000            0.0000000
 32-pole XXXXZ       :          0.0000000            0.0000000            0.0000000
 32-pole XXXYY       :          0.0000000            0.0000000            0.0000000
 32-pole XXXYZ       :          0.0000000            0.0000000            0.0000000
 32-pole XXXZZ       :          0.0000000            0.0000000            0.0000000
 32-pole XXYYY       :          0.0000000            0.0000000            0.0000000
 32-pole XXYYZ       :          0.0000000            0.0000000            0.0000000
 32-pole XXYZZ       :          0.0000000            0.0000000            0.0000000
 32-pole XXZZZ       :          0.0000000            0.0000000            0.0000000
 32-pole XYYYY       :          0.0000000            0.0000000            0.0000000
 32-pole XYYYZ       :          0.0000000            0.0000000            0.0000000
 32-pole XYYZZ       :          0.0000000            0.0000000            0.0000000
 32-pole XYZZZ       :          0.0000000            0.0000000            0.0000000
 32-pole XZZZZ       :          0.0000000            0.0000000            0.0000000
 32-pole YYYYY       :          0.0000000            0.0000000            0.0000000
 32-pole YYYYZ       :          0.0000000            0.0000000            0.0000000
 32-pole YYYZZ       :          0.0000000            0.0000000            0.0000000
 32-pole YYZZZ       :          0.0000000            0.0000000            0.0000000
 32-pole YZZZZ       :          0.0000000            0.0000000            0.0000000
 32-pole ZZZZZ       :          0.0000000            0.0000000            0.0000000

 --------------------------------------------------------------------------------
  Mulliken Charges: (a.u.)
   Center  Symbol    Alpha    Beta     Spin     Total
       1     C     2.99908  2.99908  0.00000  0.00184
       2     C     2.99908  2.99908  0.00000  0.00184
       3     C     3.02981  3.02981  0.00000 -0.05963
       4     C     3.02981  3.02981  0.00000 -0.05963
       5     C     3.03021  3.03021  0.00000 -0.06042
       6     C     3.03021  3.03021  0.00000 -0.06042
       7     H     0.47066  0.47066  0.00000  0.05868
       8     H     0.47066  0.47066  0.00000  0.05868
       9     H     0.46972  0.46972  0.00000  0.06057
      10     H     0.46972  0.46972  0.00000  0.06057
      11     C     3.02761  3.02761  0.00000 -0.05521
      12     C     3.02761  3.02761  0.00000 -0.05521
      13     H     0.47120  0.47120  0.00000  0.05761
      14     H     0.47120  0.47120  0.00000  0.05761
      15     C     3.06192  3.06192  0.00000 -0.12384
      16     C     3.06192  3.06192  0.00000 -0.12384
      17     H     0.47050  0.47050  0.00000  0.05899
      18     H     0.47050  0.47050  0.00000  0.05899
      19     H     0.46929  0.46929  0.00000  0.06142
      20     H     0.46929  0.46929  0.00000  0.06142

   Total alpha = 35.00000, Total beta = 35.00000, Total charge =  0.00000

  Lowdin Charges: (a.u.)
   Center  Symbol    Alpha    Beta     Spin     Total
       1     C     2.99563  2.99563  0.00000  0.00874
       2     C     2.99563  2.99563  0.00000  0.00874
       3     C     3.01584  3.01584  0.00000 -0.03168
       4     C     3.01584  3.01584  0.00000 -0.03168
       5     C     3.01610  3.01610  0.00000 -0.03220
       6     C     3.01610  3.01610  0.00000 -0.03220
       7     H     0.48597  0.48597  0.00000  0.02806
       8     H     0.48597  0.48597  0.00000  0.02806
       9     H     0.48498  0.48498  0.00000  0.03004
      10     H     0.48498  0.48498  0.00000  0.03004
      11     C     3.01139  3.01139  0.00000 -0.02278
      12     C     3.01139  3.01139  0.00000 -0.02278
      13     H     0.48648  0.48648  0.00000  0.02703
      14     H     0.48648  0.48648  0.00000  0.02703
      15     C     3.03482  3.03482  0.00000 -0.06964
      16     C     3.03482  3.03482  0.00000 -0.06964
      17     H     0.48473  0.48473  0.00000  0.03054
      18     H     0.48473  0.48473  0.00000  0.03054
      19     H     0.48407  0.48407  0.00000  0.03187
      20     H     0.48407  0.48407  0.00000  0.03187

  Total alpha = 35.00000, Total beta = 35.00000, Total charge =  0.00000

    Psi4 stopped on: Saturday, 04 May 2019 12:24AM
    Psi4 wall time for execution: 0:00:02.83

*** Psi4 exiting successfully. Buy a developer a beer!
