
    -----------------------------------------------------------------------
          Psi4: An Open-Source Ab Initio Electronic Structure Package
                               Psi4 1.3.1 release

                         Git: Rev {HEAD} 2ce1c29 


    R. M. Parrish, L. A. Burns, D. G. A. Smith, A. C. Simmonett,
    A. E. DePrince III, E. G. Hohenstein, U. Bozkaya, A. Yu. Sokolov,
    R. Di Remigio, R. M. Richard, J. F. Gonthier, A. M. James,
    H. R. McAlexander, A. Kumar, M. Saitow, X. Wang, B. P. Pritchard,
    P. Verma, H. F. Schaefer III, K. Patkowski, R. A. King, E. F. Valeev,
    F. A. Evangelista, J. M. Turney, T. D. Crawford, and C. D. Sherrill,
    J. Chem. Theory Comput. 13(7) pp 3185--3197 (2017).
    (doi: 10.1021/acs.jctc.7b00174)


                         Additional Contributions by
    P. Kraus, H. Kruse, M. H. Lechner, M. C. Schieber, R. A. Shaw,
    A. Alenaizan, R. Galvelis, Z. L. Glick, S. Lehtola, and J. P. Misiewicz

    -----------------------------------------------------------------------


    Psi4 started on: Sunday, 28 June 2020 01:00PM

    Process ID: 46755
    Host:       osmium
    PSIDATADIR: /home/eric/.pyenv/versions/miniconda3-4.7.12/envs/psi4-1.3.1-3.6/share/psi4
    Memory:     500.0 MiB
    Threads:    1
    
  ==> Input File <==

--------------------------------------------------------------------------
molecule dvb {
    0 1
    C                  0.27867948   -1.36683162    0.00000000
    C                  1.32303041   -0.44173575    0.00000000
    C                  1.04434506    0.92484978    0.00000000
    C                 -0.27867948    1.36683162    0.00000000
    C                 -1.32303041    0.44173575    0.00000000
    C                 -1.04434506   -0.92484978    0.00000000
    H                  2.36595443   -0.79037726    0.00000000
    H                  1.86746094    1.65407997    0.00000000
    H                 -2.36595443    0.79037726    0.00000000
    H                 -1.86746094   -1.65407997    0.00000000
    C                 -0.58659169    2.87589931    0.00000000
    C                  0.36350188    3.80076420    0.00000000
    H                 -1.65647768    3.12394312    0.00000000
    H                  0.14429560    4.87693235    0.00000000
    H                  1.43338788    3.55272039    0.00000000
    C                  0.58659169   -2.87589931    0.00000000
    C                 -0.36350188   -3.80076420    0.00000000
    H                  1.65647768   -3.12394312    0.00000000
    H                 -0.14429560   -4.87693235    0.00000000
    H                 -1.43338788   -3.55272039    0.00000000
}

set {
    basis sto-3g
    scf_type direct
}

energy('bp86-d3zero')
--------------------------------------------------------------------------

*** tstart() called on osmium
*** at Sun Jun 28 13:00:39 2020

   => Loading Basis Set <=

    Name: STO-3G
    Role: ORBITAL
    Keyword: BASIS
    atoms 1-6, 11-12, 16-17  entry C          line    61 file /home/eric/.pyenv/versions/miniconda3-4.7.12/envs/psi4-1.3.1-3.6/share/psi4/basis/sto-3g.gbs 
    atoms 7-10, 13-15, 18-20 entry H          line    19 file /home/eric/.pyenv/versions/miniconda3-4.7.12/envs/psi4-1.3.1-3.6/share/psi4/basis/sto-3g.gbs 


         ---------------------------------------------------------
                                   SCF
               by Justin Turney, Rob Parrish, Andy Simmonett
                          and Daniel G. A. Smith
                              RKS Reference
                        1 Threads,    500 MiB Core
         ---------------------------------------------------------

  ==> Geometry <==

    Molecular point group: c2h
    Full point group: C2h

    Geometry (in Angstrom), charge = 0, multiplicity = 1:

       Center              X                  Y                   Z               Mass       
    ------------   -----------------  -----------------  -----------------  -----------------
         C            0.278679480000    -1.366831620000     0.000000000000    12.000000000000
         C            1.323030410000    -0.441735750000     0.000000000000    12.000000000000
         C            1.044345060000     0.924849780000     0.000000000000    12.000000000000
         C           -0.278679480000     1.366831620000     0.000000000000    12.000000000000
         C           -1.323030410000     0.441735750000     0.000000000000    12.000000000000
         C           -1.044345060000    -0.924849780000     0.000000000000    12.000000000000
         H            2.365954430000    -0.790377260000     0.000000000000     1.007825032230
         H            1.867460940000     1.654079970000     0.000000000000     1.007825032230
         H           -2.365954430000     0.790377260000     0.000000000000     1.007825032230
         H           -1.867460940000    -1.654079970000     0.000000000000     1.007825032230
         C           -0.586591690000     2.875899310000     0.000000000000    12.000000000000
         C            0.363501880000     3.800764200000     0.000000000000    12.000000000000
         H           -1.656477680000     3.123943120000     0.000000000000     1.007825032230
         H            0.144295600000     4.876932350000     0.000000000000     1.007825032230
         H            1.433387880000     3.552720390000     0.000000000000     1.007825032230
         C            0.586591690000    -2.875899310000     0.000000000000    12.000000000000
         C           -0.363501880000    -3.800764200000     0.000000000000    12.000000000000
         H            1.656477680000    -3.123943120000     0.000000000000     1.007825032230
         H           -0.144295600000    -4.876932350000     0.000000000000     1.007825032230
         H           -1.433387880000    -3.552720390000     0.000000000000     1.007825032230

  Running in c2h symmetry.

  Rotational constants: A =      0.15397  B =      0.02357  C =      0.02044 [cm^-1]
  Rotational constants: A =   4616.01035  B =    706.72887  C =    612.89266 [MHz]
  Nuclear repulsion =  450.006138085107125

  Charge       = 0
  Multiplicity = 1
  Electrons    = 70
  Nalpha       = 35
  Nbeta        = 35

  ==> Algorithm <==

  SCF Algorithm Type is DIRECT.
  DIIS enabled.
  MOM disabled.
  Fractional occupation disabled.
  Guess Type is SAD.
  Energy threshold   = 1.00e-06
  Density threshold  = 1.00e-06
  Integral threshold = 0.00e+00

  ==> Primary Basis <==

  Basis Set: STO-3G
    Blend: STO-3G
    Number of shells: 40
    Number of basis function: 60
    Number of Cartesian functions: 60
    Spherical Harmonics?: true
    Max angular momentum: 1

  ==> DFT Potential <==

   => Composite Functional: BP86-D3ZERO <= 

    BP86 GGA Exchange-Correlation Functional

    A. D. Becke, Phys. Rev. A, 38, 3098-3100, 1988
    J. P. Perdew, Phys. Rev. B, 33, 8822, 1986


    Deriv               =              1
    GGA                 =           TRUE
    Meta                =          FALSE

    Exchange Hybrid     =          FALSE
    MP2 Hybrid          =          FALSE

   => Exchange Functionals <=

    1.0000     XC_GGA_X_B88

   => Correlation Functionals <=

    1.0000     XC_GGA_C_P86

   => Molecular Quadrature <=

    Radial Scheme          =       TREUTLER
    Pruning Scheme         =           FLAT
    Nuclear Scheme         =       TREUTLER

    BS radius alpha        =              1
    Pruning alpha          =              1
    Radial Points          =             75
    Spherical Points       =            302
    Total Points           =         438960
    Total Blocks           =           3304
    Max Points             =            256
    Max Functions          =             56

   => BP86-D3: Empirical Dispersion <=

    Grimme's -D3 (zero-damping) Dispersion Correction
    Grimme S.; Antony J.; Ehrlich S.; Krieg H. (2010), J. Chem. Phys., 132: 154104

        s6 =       1.000000
        s8 =       1.683000
       sr6 =       1.139000
    alpha6 =      14.000000
       sr8 =       1.000000

   => Loading Basis Set <=

    Name: (STO-3G AUX)
    Role: JKFIT
    Keyword: DF_BASIS_SCF
    atoms 1-6, 11-12, 16-17  entry C          line   203 file /home/eric/.pyenv/versions/miniconda3-4.7.12/envs/psi4-1.3.1-3.6/share/psi4/basis/def2-svp-jkfit.gbs 
    atoms 7-10, 13-15, 18-20 entry H          line    23 file /home/eric/.pyenv/versions/miniconda3-4.7.12/envs/psi4-1.3.1-3.6/share/psi4/basis/def2-svp-jkfit.gbs 

  Starting with a DF guess...

  ==> Pre-Iterations <==

   -------------------------------------------------------
    Irrep   Nso     Nmo     Nalpha   Nbeta   Ndocc  Nsocc
   -------------------------------------------------------
     Ag        25      25       0       0       0       0
     Bg         5       5       0       0       0       0
     Au         5       5       0       0       0       0
     Bu        25      25       0       0       0       0
   -------------------------------------------------------
    Total      60      60      35      35      35       0
   -------------------------------------------------------

  ==> Integral Setup <==

  DFHelper Memory: AOs need 0.031 GiB; user supplied 0.031 GiB. Using in-core AOs.

  ==> MemDFJK: Density-Fitted J/K Matrices <==

    J tasked:                   Yes
    K tasked:                    No
    wK tasked:                   No
    OpenMP threads:               1
    Memory [MiB]:                31
    Algorithm:                 Core
    Schwarz Cutoff:           1E-12
    Mask sparsity (%):       4.1111
    Fitting Condition:        1E-10

   => Auxiliary Basis Set <=

  Basis Set: (STO-3G AUX)
    Blend: DEF2-SVP-JKFIT
    Number of shells: 310
    Number of basis function: 930
    Number of Cartesian functions: 1090
    Spherical Harmonics?: true
    Max angular momentum: 4

  Cached 100.0% of DFT collocation blocks in 0.579 [GiB].

  Minimum eigenvalue in the overlap matrix is 1.7141694614E-01.
  Using Symmetric Orthogonalization.

  SCF Guess: Superposition of Atomic Densities via on-the-fly atomic UHF.

  ==> Iterations <==

                           Total Energy        Delta E     RMS |[F,P]|

   @DF-RKS iter SAD:  -378.33553144971785   -3.78336e+02   0.00000e+00 
   @DF-RKS iter   1:  -382.32730081658690   -3.99177e+00   2.15087e-03 DIIS
   @DF-RKS iter   2:  -382.31598657633066    1.13142e-02   4.10269e-03 DIIS
   @DF-RKS iter   3:  -382.32995538529570   -1.39688e-02   8.63121e-04 DIIS
   @DF-RKS iter   4:  -382.33050022852973   -5.44843e-04   3.08163e-04 DIIS
   @DF-RKS iter   5:  -382.33057111709866   -7.08886e-05   7.44534e-05 DIIS
   @DF-RKS iter   6:  -382.33057572994784   -4.61285e-06   1.00858e-05 DIIS
   @DF-RKS iter   7:  -382.33057582908833   -9.91405e-08   1.20669e-06 DIIS
   @DF-RKS iter   8:  -382.33057583038021   -1.29188e-09   3.73203e-07 DIIS

  DF guess converged.

  ==> DirectJK: Integral-Direct J/K Matrices <==

    J tasked:                  Yes
    K tasked:                   No
    wK tasked:                  No
    Integrals threads:           1
    Schwarz Cutoff:          1E-12

   @RKS iter   9:  -382.32750640101347   -3.82328e+02   7.73767e-06 DIIS
   @RKS iter  10:  -382.32750641243820   -1.14247e-08   1.70665e-06 DIIS
   @RKS iter  11:  -382.32750641413236   -1.69416e-09   1.07595e-06 DIIS
   @RKS iter  12:  -382.32750641521386   -1.08150e-09   1.86096e-07 DIIS
  Energy and wave function converged.


  ==> Post-Iterations <==

    Orbital Energies [Eh]
    ---------------------

    Doubly Occupied:                                                      

       1Bu    -9.743480     1Ag    -9.743419     2Bu    -9.732220  
       2Ag    -9.732218     3Bu    -9.731734     3Ag    -9.731715  
       4Bu    -9.730549     4Ag    -9.730436     5Bu    -9.716193  
       5Ag    -9.716193     6Ag    -0.743693     6Bu    -0.683802  
       7Ag    -0.651306     7Bu    -0.636216     8Bu    -0.603985  
       8Ag    -0.526574     9Ag    -0.503242     9Bu    -0.476365  
      10Ag    -0.458800    11Ag    -0.411975    10Bu    -0.389629  
      11Bu    -0.362163    12Bu    -0.352355    12Ag    -0.349412  
      13Bu    -0.329657    14Bu    -0.311825    13Ag    -0.304202  
       1Au    -0.288525    15Bu    -0.263609    14Ag    -0.253626  
      15Ag    -0.240681     1Bg    -0.227592     2Au    -0.182506  
       2Bg    -0.168986     3Bg    -0.134286  

    Virtual:                                                              

       3Au     0.018210     4Au     0.056237     4Bg     0.076928  
       5Au     0.138912     5Bg     0.229812    16Ag     0.272799  
      16Bu     0.282810    17Bu     0.316618    17Ag     0.322059  
      18Bu     0.361958    18Ag     0.364950    19Bu     0.370895  
      19Ag     0.392747    20Bu     0.415845    20Ag     0.441330  
      21Ag     0.482793    21Bu     0.514077    22Ag     0.529884  
      22Bu     0.551800    23Bu     0.567704    23Ag     0.585908  
      24Ag     0.632341    24Bu     0.681320    25Ag     0.741813  
      25Bu     0.750463  

    Final Occupation by Irrep:
             Ag    Bg    Au    Bu 
    DOCC [    15,    3,    2,   15 ]

  @RKS Final Energy:  -382.32750641521386

   => Energetics <=

    Nuclear Repulsion Energy =            450.0061380851071249
    One-Electron Energy =               -1408.7650253347392209
    Two-Electron Energy =                 634.3451107619988534
    DFT Exchange-Correlation Energy =     -57.8990099975805421
    Empirical Dispersion Energy =          -0.0147199300000000
    VV10 Nonlocal Energy =                  0.0000000000000000
    Total Energy =                       -382.3275064152138611

Computation Completed


Properties will be evaluated at   0.000000,   0.000000,   0.000000 [a0]

Properties computed using the SCF density matrix

  Nuclear Dipole Moment: [e a0]
     X:    -0.0000      Y:     0.0000      Z:     0.0000

  Electronic Dipole Moment: [e a0]
     X:     0.0000      Y:     0.0000      Z:     0.0000

  Dipole Moment: [e a0]
     X:    -0.0000      Y:     0.0000      Z:     0.0000     Total:     0.0000

  Dipole Moment: [D]
     X:    -0.0000      Y:     0.0000      Z:     0.0000     Total:     0.0000


*** tstop() called on osmium at Sun Jun 28 13:00:54 2020
Module time:
	user time   =      14.79 seconds =       0.25 minutes
	system time =       0.24 seconds =       0.00 minutes
	total time  =         15 seconds =       0.25 minutes
Total time:
	user time   =      14.79 seconds =       0.25 minutes
	system time =       0.24 seconds =       0.00 minutes
	total time  =         15 seconds =       0.25 minutes

    Psi4 stopped on: Sunday, 28 June 2020 01:00PM
    Psi4 wall time for execution: 0:00:15.11

*** Psi4 exiting successfully. Buy a developer a beer!
