
    -----------------------------------------------------------------------
          Psi4: An Open-Source Ab Initio Electronic Structure Package
                               Psi4 1.3.1 release

                         Git: Rev {HEAD} 2ce1c29 


    R. M. Parrish, L. A. Burns, D. G. A. Smith, A. C. Simmonett,
    A. E. DePrince III, E. G. Hohenstein, U. Bozkaya, A. Yu. Sokolov,
    R. Di Remigio, R. M. Richard, J. F. Gonthier, A. M. James,
    H. R. McAlexander, A. Kumar, M. Saitow, X. Wang, B. P. Pritchard,
    P. Verma, H. F. Schaefer III, K. Patkowski, R. A. King, E. F. Valeev,
    F. A. Evangelista, J. M. Turney, T. D. Crawford, and C. D. Sherrill,
    J. Chem. Theory Comput. 13(7) pp 3185--3197 (2017).
    (doi: 10.1021/acs.jctc.7b00174)


                         Additional Contributions by
    P. Kraus, H. Kruse, M. H. Lechner, M. C. Schieber, R. A. Shaw,
    A. Alenaizan, R. Galvelis, Z. L. Glick, S. Lehtola, and J. P. Misiewicz

    -----------------------------------------------------------------------


    Psi4 started on: Saturday, 04 May 2019 12:15AM

    Process ID: 41757
    Host:       osmium
    PSIDATADIR: /home/eric/data/opt/apps/python/psi4conda/share/psi4
    Memory:     500.0 MiB
    Threads:    1
    
  ==> Input File <==

--------------------------------------------------------------------------
molecule dvb {
    0 1
    C    -1.4152533224   0.2302217854   0.0000000000
    C     1.4152533224  -0.2302217854   0.0000000000
    C    -0.4951331558   1.3144608674   0.0000000000
    C     0.4951331558  -1.3144608674   0.0000000000
    C     0.8894090436   1.0909493743   0.0000000000
    C    -0.8894090436  -1.0909493743   0.0000000000
    H    -0.8795511985   2.3437343748   0.0000000000
    H     0.8795511985  -2.3437343748   0.0000000000
    H     1.5779041557   1.9450061275   0.0000000000
    H    -1.5779041557  -1.9450061275   0.0000000000
    C     2.8845844962  -0.5210893778   0.0000000000
    C    -2.8845844962   0.5210893778   0.0000000000
    H     3.1403356810  -1.5919605685   0.0000000000
    H    -3.1403356810   1.5919605685   0.0000000000
    C     3.8800428103   0.3822535424   0.0000000000
    C    -3.8800428103  -0.3822535424   0.0000000000
    H     3.6946765858   1.4624389570   0.0000000000
    H    -3.6946765858  -1.4624389570   0.0000000000
    H     4.9316453546   0.0711049543   0.0000000000
    H    -4.9316453546  -0.0711049543   0.0000000000
}

set {
    basis sto-3g
    scf_type pk
}

optimize('b3lyp')--------------------------------------------------------------------------
gradient() will perform analytic gradient computation.

*** tstart() called on osmium
*** at Sat May  4 00:15:23 2019

   => Loading Basis Set <=

    Name: STO-3G
    Role: ORBITAL
    Keyword: BASIS
    atoms 1-6, 11-12, 15-16  entry C          line    61 file /home/eric/data/opt/apps/python/psi4conda/share/psi4/basis/sto-3g.gbs 
    atoms 7-10, 13-14, 17-20 entry H          line    19 file /home/eric/data/opt/apps/python/psi4conda/share/psi4/basis/sto-3g.gbs 


         ---------------------------------------------------------
                                   SCF
               by Justin Turney, Rob Parrish, Andy Simmonett
                          and Daniel G. A. Smith
                              RKS Reference
                        1 Threads,    500 MiB Core
         ---------------------------------------------------------

  ==> Geometry <==

    Molecular point group: c2h
    Full point group: C2h

    Geometry (in Angstrom), charge = 0, multiplicity = 1:

       Center              X                  Y                   Z               Mass       
    ------------   -----------------  -----------------  -----------------  -----------------
         C           -1.415253322400     0.230221785400     0.000000000000    12.000000000000
         C            1.415253322400    -0.230221785400     0.000000000000    12.000000000000
         C           -0.495133155800     1.314460867400     0.000000000000    12.000000000000
         C            0.495133155800    -1.314460867400     0.000000000000    12.000000000000
         C            0.889409043600     1.090949374300     0.000000000000    12.000000000000
         C           -0.889409043600    -1.090949374300     0.000000000000    12.000000000000
         H           -0.879551198500     2.343734374800     0.000000000000     1.007825032230
         H            0.879551198500    -2.343734374800     0.000000000000     1.007825032230
         H            1.577904155700     1.945006127500     0.000000000000     1.007825032230
         H           -1.577904155700    -1.945006127500     0.000000000000     1.007825032230
         C            2.884584496200    -0.521089377800     0.000000000000    12.000000000000
         C           -2.884584496200     0.521089377800     0.000000000000    12.000000000000
         H            3.140335681000    -1.591960568500     0.000000000000     1.007825032230
         H           -3.140335681000     1.591960568500     0.000000000000     1.007825032230
         C            3.880042810300     0.382253542400     0.000000000000    12.000000000000
         C           -3.880042810300    -0.382253542400     0.000000000000    12.000000000000
         H            3.694676585800     1.462438957000     0.000000000000     1.007825032230
         H           -3.694676585800    -1.462438957000     0.000000000000     1.007825032230
         H            4.931645354600     0.071104954300     0.000000000000     1.007825032230
         H           -4.931645354600    -0.071104954300     0.000000000000     1.007825032230

  Running in c2h symmetry.

  Rotational constants: A =      0.15403  B =      0.02287  C =      0.01992 [cm^-1]
  Rotational constants: A =   4617.84335  B =    685.76183  C =    597.09209 [MHz]
  Nuclear repulsion =  445.936979867057119

  Charge       = 0
  Multiplicity = 1
  Electrons    = 70
  Nalpha       = 35
  Nbeta        = 35

  ==> Algorithm <==

  SCF Algorithm Type is PK.
  DIIS enabled.
  MOM disabled.
  Fractional occupation disabled.
  Guess Type is SAD.
  Energy threshold   = 1.00e-08
  Density threshold  = 1.00e-08
  Integral threshold = 0.00e+00

  ==> Primary Basis <==

  Basis Set: STO-3G
    Blend: STO-3G
    Number of shells: 40
    Number of basis function: 60
    Number of Cartesian functions: 60
    Spherical Harmonics?: true
    Max angular momentum: 1

  ==> DFT Potential <==

   => Composite Functional: B3LYP <= 

    B3LYP Hyb-GGA Exchange-Correlation Functional

    P. J. Stephens, F. J. Devlin, C. F. Chabalowski, and M. J. Frisch, J. Phys. Chem. 98, 11623 (1994)

    Deriv               =              1
    GGA                 =           TRUE
    Meta                =          FALSE

    Exchange Hybrid     =           TRUE
    MP2 Hybrid          =          FALSE

   => Exchange Functionals <=

    0.0800   Slater exchange
    0.7200         Becke 88

   => Exact (HF) Exchange <=

    0.2000               HF 

   => Correlation Functionals <=

    0.1900   Vosko, Wilk & Nusair (VWN5_RPA)
    0.8100   Lee, Yang & Parr

   => Molecular Quadrature <=

    Radial Scheme          =       TREUTLER
    Pruning Scheme         =           FLAT
    Nuclear Scheme         =       TREUTLER

    BS radius alpha        =              1
    Pruning alpha          =              1
    Radial Points          =             75
    Spherical Points       =            302
    Total Points           =         438996
    Total Blocks           =           3340
    Max Points             =            256
    Max Functions          =             56

  ==> Pre-Iterations <==

   -------------------------------------------------------
    Irrep   Nso     Nmo     Nalpha   Nbeta   Ndocc  Nsocc
   -------------------------------------------------------
     Ag        25      25       0       0       0       0
     Bg         5       5       0       0       0       0
     Au         5       5       0       0       0       0
     Bu        25      25       0       0       0       0
   -------------------------------------------------------
    Total      60      60      35      35      35       0
   -------------------------------------------------------

  ==> Integral Setup <==

  Using in-core PK algorithm.
   Calculation information:
      Number of atoms:                  20
      Number of AO shells:              40
      Number of primitives:            120
      Number of atomic orbitals:        60
      Number of basis functions:        60

      Integral cutoff                 1.00e-12
      Number of threads:                 1

  Performing in-core PK
  Using 3350730 doubles for integral storage.
  We computed 262766 shell quartets total.
  Whereas there are 336610 unique shell quartets.

  ==> DiskJK: Disk-Based J/K Matrices <==

    J tasked:                  Yes
    K tasked:                  Yes
    wK tasked:                  No
    Memory [MiB]:               98
    Schwarz Cutoff:          1E-12

    OpenMP threads:              1

  Cached 50.0% of DFT collocation blocks in 0.287 [GiB].

  Minimum eigenvalue in the overlap matrix is 1.8147106803E-01.
  Using Symmetric Orthogonalization.

  SCF Guess: Superposition of Atomic Densities via on-the-fly atomic UHF.

  ==> Iterations <==

                        Total Energy        Delta E     RMS |[F,P]|

   @RKS iter SAD:  -377.60815739465642   -3.77608e+02   0.00000e+00 
   @RKS iter   1:  -382.30329017463652   -4.69513e+00   2.36951e-03 DIIS
   @RKS iter   2:  -382.30050426085717    2.78591e-03   3.00654e-03 DIIS
   @RKS iter   3:  -382.30772763597594   -7.22338e-03   7.91299e-04 DIIS
   @RKS iter   4:  -382.30820630246825   -4.78666e-04   1.89929e-04 DIIS
   @RKS iter   5:  -382.30823272937511   -2.64269e-05   5.58273e-05 DIIS
   @RKS iter   6:  -382.30823527900014   -2.54963e-06   7.12145e-06 DIIS
   @RKS iter   7:  -382.30823532520856   -4.62084e-08   1.98422e-06 DIIS
   @RKS iter   8:  -382.30823532904435   -3.83579e-09   3.82999e-07 DIIS
   @RKS iter   9:  -382.30823532914548   -1.01124e-10   1.64961e-07 DIIS
   @RKS iter  10:  -382.30823532916929   -2.38174e-11   3.36039e-09 DIIS
  Energy and wave function converged.


  ==> Post-Iterations <==

    Orbital Energies [Eh]
    ---------------------

    Doubly Occupied:                                                      

       1Bu   -10.020231     1Ag   -10.020182     2Bu   -10.007940  
       2Ag   -10.007939     3Ag   -10.006888     3Bu   -10.006886  
       4Bu   -10.006240     4Ag   -10.006097     5Bu    -9.992161  
       5Ag    -9.992161     6Ag    -0.809461     6Bu    -0.753937  
       7Ag    -0.717864     7Bu    -0.699924     8Bu    -0.667316  
       8Ag    -0.588511     9Ag    -0.559150     9Bu    -0.531423  
      10Ag    -0.509936    11Ag    -0.457598    10Bu    -0.439199  
      11Bu    -0.411019    12Bu    -0.397694    12Ag    -0.395941  
      13Bu    -0.374433    14Bu    -0.350938    13Ag    -0.347016  
       1Au    -0.324470    15Bu    -0.311066    14Ag    -0.292985  
      15Ag    -0.287497     1Bg    -0.263458     2Au    -0.212339  
       2Bg    -0.195170     3Bg    -0.152997  

    Virtual:                                                              

       3Au     0.037509     4Au     0.090116     4Bg     0.110726  
       5Au     0.182200     5Bg     0.272300    16Ag     0.332484  
      16Bu     0.340642    17Bu     0.379521    17Ag     0.381289  
      18Ag     0.410343    18Bu     0.411234    19Bu     0.425800  
      19Ag     0.439358    20Bu     0.453721    20Ag     0.478335  
      21Ag     0.525562    21Bu     0.546350    22Ag     0.576436  
      22Bu     0.598436    23Bu     0.624896    23Ag     0.639831  
      24Ag     0.682834    24Bu     0.717355    25Ag     0.779040  
      25Bu     0.794262  

    Final Occupation by Irrep:
             Ag    Bg    Au    Bu 
    DOCC [    15,    3,    2,   15 ]

  @RKS Final Energy:  -382.30823532916929

   => Energetics <=

    Nuclear Repulsion Energy =            445.9369798670571186
    One-Electron Energy =               -1400.6447806855690033
    Two-Electron Energy =                 619.1836058702788250
    DFT Exchange-Correlation Energy =     -46.7840403809362329
    Empirical Dispersion Energy =           0.0000000000000000
    VV10 Nonlocal Energy =                  0.0000000000000000
    Total Energy =                       -382.3082353291693494

Computation Completed


Properties will be evaluated at   0.000000,   0.000000,   0.000000 [a0]

Properties computed using the SCF density matrix

  Nuclear Dipole Moment: [e a0]
     X:     0.0000      Y:     0.0000      Z:     0.0000

  Electronic Dipole Moment: [e a0]
     X:     0.0000      Y:     0.0000      Z:     0.0000

  Dipole Moment: [e a0]
     X:     0.0000      Y:     0.0000      Z:     0.0000     Total:     0.0000

  Dipole Moment: [D]
     X:     0.0000      Y:     0.0000      Z:     0.0000     Total:     0.0000


*** tstop() called on osmium at Sat May  4 00:15:36 2019
Module time:
	user time   =      12.97 seconds =       0.22 minutes
	system time =       0.22 seconds =       0.00 minutes
	total time  =         13 seconds =       0.22 minutes
Total time:
	user time   =      12.97 seconds =       0.22 minutes
	system time =       0.22 seconds =       0.00 minutes
	total time  =         13 seconds =       0.22 minutes

*** tstart() called on osmium
*** at Sat May  4 00:15:36 2019


         ------------------------------------------------------------
                                   SCF GRAD                          
                          Rob Parrish, Justin Turney,                
                       Andy Simmonett, and Alex Sokolov              
         ------------------------------------------------------------

  ==> Geometry <==

    Molecular point group: c2h
    Full point group: C2h

    Geometry (in Angstrom), charge = 0, multiplicity = 1:

       Center              X                  Y                   Z               Mass       
    ------------   -----------------  -----------------  -----------------  -----------------
         C           -1.415253322400     0.230221785400     0.000000000000    12.000000000000
         C            1.415253322400    -0.230221785400     0.000000000000    12.000000000000
         C           -0.495133155800     1.314460867400     0.000000000000    12.000000000000
         C            0.495133155800    -1.314460867400     0.000000000000    12.000000000000
         C            0.889409043600     1.090949374300     0.000000000000    12.000000000000
         C           -0.889409043600    -1.090949374300     0.000000000000    12.000000000000
         H           -0.879551198500     2.343734374800     0.000000000000     1.007825032230
         H            0.879551198500    -2.343734374800     0.000000000000     1.007825032230
         H            1.577904155700     1.945006127500     0.000000000000     1.007825032230
         H           -1.577904155700    -1.945006127500     0.000000000000     1.007825032230
         C            2.884584496200    -0.521089377800     0.000000000000    12.000000000000
         C           -2.884584496200     0.521089377800     0.000000000000    12.000000000000
         H            3.140335681000    -1.591960568500     0.000000000000     1.007825032230
         H           -3.140335681000     1.591960568500     0.000000000000     1.007825032230
         C            3.880042810300     0.382253542400     0.000000000000    12.000000000000
         C           -3.880042810300    -0.382253542400     0.000000000000    12.000000000000
         H            3.694676585800     1.462438957000     0.000000000000     1.007825032230
         H           -3.694676585800    -1.462438957000     0.000000000000     1.007825032230
         H            4.931645354600     0.071104954300     0.000000000000     1.007825032230
         H           -4.931645354600    -0.071104954300     0.000000000000     1.007825032230

  Nuclear repulsion =  445.936979867057119

  ==> Basis Set <==

  Basis Set: STO-3G
    Blend: STO-3G
    Number of shells: 40
    Number of basis function: 60
    Number of Cartesian functions: 60
    Spherical Harmonics?: true
    Max angular momentum: 1

  ==> DirectJKGrad: Integral-Direct SCF Gradients <==

    Gradient:                    1
    J tasked:                  Yes
    K tasked:                  Yes
    wK tasked:                  No
    Integrals threads:           1
    Schwarz Cutoff:          0E+00

  ==> DFT Potential <==

   => Composite Functional: B3LYP <= 

    B3LYP Hyb-GGA Exchange-Correlation Functional

    P. J. Stephens, F. J. Devlin, C. F. Chabalowski, and M. J. Frisch, J. Phys. Chem. 98, 11623 (1994)

    Deriv               =              1
    GGA                 =           TRUE
    Meta                =          FALSE

    Exchange Hybrid     =           TRUE
    MP2 Hybrid          =          FALSE

   => Exchange Functionals <=

    0.0800   Slater exchange
    0.7200         Becke 88

   => Exact (HF) Exchange <=

    0.2000               HF 

   => Correlation Functionals <=

    0.1900   Vosko, Wilk & Nusair (VWN5_RPA)
    0.8100   Lee, Yang & Parr

   => Molecular Quadrature <=

    Radial Scheme          =       TREUTLER
    Pruning Scheme         =           FLAT
    Nuclear Scheme         =       TREUTLER

    BS radius alpha        =              1
    Pruning alpha          =              1
    Radial Points          =             75
    Spherical Points       =            302
    Total Points           =         438996
    Total Blocks           =           3340
    Max Points             =            256
    Max Functions          =             56


  -Total Gradient:
     Atom            X                  Y                   Z
    ------   -----------------  -----------------  -----------------
       1        0.000663189788     0.000218076775     0.000000000000
       2       -0.000663189788    -0.000218076775     0.000000000000
       3       -0.001215044245     0.000302160618     0.000000000000
       4        0.001215044245    -0.000302160618     0.000000000000
       5       -0.000176555820     0.001319822804     0.000000000000
       6        0.000176555820    -0.001319822804     0.000000000000
       7        0.000128735483     0.000157602639     0.000000000000
       8       -0.000128735483    -0.000157602639     0.000000000000
       9        0.000285167696    -0.000767270503     0.000000000000
      10       -0.000285167696     0.000767270503     0.000000000000
      11       -0.000551207551     0.000489502313     0.000000000000
      12        0.000551207551    -0.000489502313     0.000000000000
      13        0.000557935360    -0.000304270911     0.000000000000
      14       -0.000557935360     0.000304270911    -0.000000000000
      15        0.000012927660    -0.000202196584     0.000000000000
      16       -0.000012927660     0.000202196584     0.000000000000
      17       -0.000375114711    -0.000084380562     0.000000000000
      18        0.000375114711     0.000084380562    -0.000000000000
      19        0.000392170410    -0.000129455453     0.000000000000
      20       -0.000392170410     0.000129455453     0.000000000000


*** tstop() called on osmium at Sat May  4 00:15:44 2019
Module time:
	user time   =       8.20 seconds =       0.14 minutes
	system time =       0.00 seconds =       0.00 minutes
	total time  =          8 seconds =       0.13 minutes
Total time:
	user time   =      21.17 seconds =       0.35 minutes
	system time =       0.22 seconds =       0.00 minutes
	total time  =         21 seconds =       0.35 minutes

			-----------------------------------------
			 OPTKING 2.0: for geometry optimizations 
			  - R.A. King,  Bethel University        
			-----------------------------------------

	Internal coordinates to be generated automatically.
	Detected frag 1 with atoms:  1 2 3 4 5 6 7 8 9 10 11 12 13 14 15 16 17 18 19 20
	---Fragment 1 Bond Connectivity---
	 1 : 3 6 12
	 2 : 4 5 11
	 3 : 1 5 7
	 4 : 2 6 8
	 5 : 2 3 9
	 6 : 1 4 10
	 7 : 3
	 8 : 4
	 9 : 5
	 10 : 6
	 11 : 2 13 15
	 12 : 1 14 16
	 13 : 11
	 14 : 12
	 15 : 11 17 19
	 16 : 12 18 20
	 17 : 15
	 18 : 16
	 19 : 15
	 20 : 16

	---Fragment 1 Geometry and Gradient---
	 C          -2.6744411775        0.4350561225        0.0000000000
	 C           2.6744411775       -0.4350561225        0.0000000000
	 C          -0.9356660601        2.4839710420        0.0000000000
	 C           0.9356660601       -2.4839710420        0.0000000000
	 C           1.6807395059        2.0615955342        0.0000000000
	 C          -1.6807395059       -2.0615955342        0.0000000000
	 H          -1.6621108785        4.4290160792        0.0000000000
	 H           1.6621108785       -4.4290160792        0.0000000000
	 H           2.9818067065        3.6755288933        0.0000000000
	 H          -2.9818067065       -3.6755288933        0.0000000000
	 C           5.4510746836       -0.9847162109        0.0000000000
	 C          -5.4510746836        0.9847162109        0.0000000000
	 H           5.9343743791       -3.0083694770        0.0000000000
	 H          -5.9343743791        3.0083694770        0.0000000000
	 C           7.3322182665        0.7223545056        0.0000000000
	 C          -7.3322182665       -0.7223545056        0.0000000000
	 H           6.9819268693        2.7636091039        0.0000000000
	 H          -6.9819268693       -2.7636091039        0.0000000000
	 H           9.3194590681        0.1343688898        0.0000000000
	 H          -9.3194590681       -0.1343688898        0.0000000000
	             0.0006631898        0.0002180768        0.0000000000
	            -0.0006631898       -0.0002180768        0.0000000000
	            -0.0012150442        0.0003021606        0.0000000000
	             0.0012150442       -0.0003021606        0.0000000000
	            -0.0001765558        0.0013198228        0.0000000000
	             0.0001765558       -0.0013198228        0.0000000000
	             0.0001287355        0.0001576026        0.0000000000
	            -0.0001287355       -0.0001576026        0.0000000000
	             0.0002851677       -0.0007672705        0.0000000000
	            -0.0002851677        0.0007672705        0.0000000000
	            -0.0005512076        0.0004895023        0.0000000000
	             0.0005512076       -0.0004895023        0.0000000000
	             0.0005579354       -0.0003042709        0.0000000000
	            -0.0005579354        0.0003042709       -0.0000000000
	             0.0000129277       -0.0002021966        0.0000000000
	            -0.0000129277        0.0002021966        0.0000000000
	            -0.0003751147       -0.0000843806        0.0000000000
	             0.0003751147        0.0000843806       -0.0000000000
	             0.0003921704       -0.0001294555        0.0000000000
	            -0.0003921704        0.0001294555        0.0000000000

	Previous optimization step data not found.  Starting new optimization.

	---Fragment 1 Intrafragment Coordinates---
	 - Coordinate -           - BOHR/RAD -       - ANG/DEG -
	 R(1,3)           =         2.687265	       1.422039
	 R(1,6)           =         2.687138	       1.421972
	 R(1,12)          =         2.830516	       1.497844
	 R(2,4)           =         2.687265	       1.422039
	 R(2,5)           =         2.687138	       1.421972
	 R(2,11)          =         2.830516	       1.497844
	 R(3,5)           =         2.650279	       1.402467
	 R(3,7)           =         2.076276	       1.098718
	 R(4,6)           =         2.650279	       1.402467
	 R(4,8)           =         2.076276	       1.098718
	 R(5,9)           =         2.073055	       1.097013
	 R(6,10)          =         2.073055	       1.097013
	 R(11,13)         =         2.080565	       1.100988
	 R(11,15)         =         2.540235	       1.344234
	 R(12,14)         =         2.080565	       1.100988
	 R(12,16)         =         2.540235	       1.344234
	 R(15,17)         =         2.071093	       1.095975
	 R(15,19)         =         2.072403	       1.096668
	 R(16,18)         =         2.071093	       1.095975
	 R(16,20)         =         2.072403	       1.096668
	 B(1,3,5)         =         2.114443	     121.148665
	 B(1,3,7)         =         2.080452	     119.201095
	 B(1,6,4)         =         2.109642	     120.873578
	 B(1,6,10)        =         2.084322	     119.422852
	 B(1,12,14)       =         2.000663	     114.629535
	 B(1,12,16)       =         2.209236	     126.579923
	 B(2,4,6)         =         2.114443	     121.148665
	 B(2,4,8)         =         2.080452	     119.201095
	 B(2,5,3)         =         2.109642	     120.873578
	 B(2,5,9)         =         2.084322	     119.422852
	 B(2,11,13)       =         2.000663	     114.629535
	 B(2,11,15)       =         2.209236	     126.579923
	 B(3,1,6)         =         2.059100	     117.977757
	 B(3,1,12)        =         2.079063	     119.121552
	 B(3,5,9)         =         2.089221	     119.703570
	 B(4,2,5)         =         2.059100	     117.977757
	 B(4,2,11)        =         2.079063	     119.121552
	 B(4,6,10)        =         2.089221	     119.703570
	 B(5,2,11)        =         2.145022	     122.900691
	 B(5,3,7)         =         2.088291	     119.650240
	 B(6,1,12)        =         2.145022	     122.900691
	 B(6,4,8)         =         2.088291	     119.650240
	 B(11,15,17)      =         2.137770	     122.485172
	 B(11,15,19)      =         2.116996	     121.294925
	 B(12,16,18)      =         2.137770	     122.485172
	 B(12,16,20)      =         2.116996	     121.294925
	 B(13,11,15)      =         2.073286	     118.790543
	 B(14,12,16)      =         2.073286	     118.790543
	 B(17,15,19)      =         2.028420	     116.219903
	 B(18,16,20)      =         2.028420	     116.219903
	 D(1,3,5,2)       =         0.000000	       0.000000
	 D(1,3,5,9)       =         3.141593	     180.000000
	 D(1,6,4,2)       =         0.000000	       0.000000
	 D(1,6,4,8)       =         3.141593	     180.000000
	 D(1,12,16,18)    =         0.000000	       0.000000
	 D(1,12,16,20)    =         3.141593	     180.000000
	 D(2,4,6,10)      =         3.141593	     180.000000
	 D(2,5,3,7)       =         3.141593	     180.000000
	 D(2,11,15,17)    =         0.000000	       0.000000
	 D(2,11,15,19)    =         3.141593	     180.000000
	 D(3,1,6,4)       =         0.000000	       0.000000
	 D(3,1,6,10)      =         3.141593	     180.000000
	 D(3,1,12,14)     =         0.000000	       0.000000
	 D(3,1,12,16)     =         3.141593	     180.000000
	 D(3,5,2,4)       =         0.000000	       0.000000
	 D(3,5,2,11)      =         3.141593	     180.000000
	 D(4,2,5,9)       =         3.141593	     180.000000
	 D(4,2,11,13)     =         0.000000	       0.000000
	 D(4,2,11,15)     =         3.141593	     180.000000
	 D(4,6,1,12)      =         3.141593	     180.000000
	 D(5,2,4,6)       =         0.000000	       0.000000
	 D(5,2,4,8)       =         3.141593	     180.000000
	 D(5,2,11,13)     =         3.141593	     180.000000
	 D(5,2,11,15)     =         0.000000	       0.000000
	 D(5,3,1,6)       =         0.000000	       0.000000
	 D(5,3,1,12)      =         3.141593	     180.000000
	 D(6,1,3,7)       =         3.141593	     180.000000
	 D(6,1,12,14)     =         3.141593	     180.000000
	 D(6,1,12,16)     =         0.000000	       0.000000
	 D(6,4,2,11)      =         3.141593	     180.000000
	 D(7,3,1,12)      =         0.000000	       0.000000
	 D(7,3,5,9)       =         0.000000	       0.000000
	 D(8,4,2,11)      =         0.000000	       0.000000
	 D(8,4,6,10)      =         0.000000	       0.000000
	 D(9,5,2,11)      =         0.000000	       0.000000
	 D(10,6,1,12)     =         0.000000	       0.000000
	 D(13,11,15,17)   =         3.141593	     180.000000
	 D(13,11,15,19)   =         0.000000	       0.000000
	 D(14,12,16,18)   =         3.141593	     180.000000
	 D(14,12,16,20)   =         0.000000	       0.000000

	Current energy   :      -382.3082353292

	Generating empirical Hessian (Schlegel '84) for each fragment.
	Taking RFO optimization step.
	Going to follow RFO solution 1.
	Using RFO vector 1.
	Norm of target step-size    0.01543
	Projected energy change by RFO approximation:        -0.0000465784

	Back-transformation to cartesian coordinates...
	Successfully converged to displaced geometry.

	--- Internal Coordinate Step in ANG or DEG, aJ/ANG or AJ/DEG ---
	 ---------------------------------------------------------------------------
	   Coordinate                Previous        Force       Change         New 
	   ----------                --------       ------       ------       ------
	    1 R(1,3)          =      1.422039     0.002499     0.000381     1.422420
	    2 R(1,6)          =      1.421972    -0.006118    -0.000932     1.421040
	    3 R(1,12)         =      1.497844    -0.000662    -0.000130     1.497714
	    4 R(2,4)          =      1.422039     0.002499     0.000381     1.422420
	    5 R(2,5)          =      1.421972    -0.006118    -0.000932     1.421040
	    6 R(2,11)         =      1.497844    -0.000662    -0.000130     1.497714
	    7 R(3,5)          =      1.402467    -0.002544    -0.000361     1.402106
	    8 R(3,7)          =      1.098718    -0.000845    -0.000160     1.098557
	    9 R(4,6)          =      1.402467    -0.002544    -0.000361     1.402106
	   10 R(4,8)          =      1.098718    -0.000845    -0.000160     1.098557
	   11 R(5,9)          =      1.097013     0.003447     0.000651     1.097664
	   12 R(6,10)         =      1.097013     0.003447     0.000651     1.097664
	   13 R(11,13)        =      1.100988    -0.003503    -0.000670     1.100318
	   14 R(11,15)        =      1.344234     0.002112     0.000241     1.344475
	   15 R(12,14)        =      1.100988    -0.003503    -0.000670     1.100318
	   16 R(12,16)        =      1.344234     0.002112     0.000241     1.344475
	   17 R(15,17)        =      1.095975     0.000158     0.000030     1.096005
	   18 R(15,19)        =      1.096668    -0.003399    -0.000641     1.096027
	   19 R(16,18)        =      1.095975     0.000158     0.000030     1.096005
	   20 R(16,20)        =      1.096668    -0.003399    -0.000641     1.096027
	   21 B(1,3,5)        =    121.148665     0.000057     0.187387   121.336053
	   22 B(1,3,7)        =    119.201095    -0.000042    -0.158865   119.042230
	   23 B(1,6,4)        =    120.873578    -0.000007    -0.029928   120.843650
	   24 B(1,6,10)       =    119.422852     0.000059     0.275892   119.698744
	   25 B(1,12,14)      =    114.629535    -0.000048    -0.213402   114.416133
	   26 B(1,12,16)      =    126.579923     0.000022     0.074989   126.654912
	   27 B(2,4,6)        =    121.148665     0.000057     0.187387   121.336053
	   28 B(2,4,8)        =    119.201095    -0.000042    -0.158865   119.042230
	   29 B(2,5,3)        =    120.873578    -0.000007    -0.029928   120.843650
	   30 B(2,5,9)        =    119.422852     0.000059     0.275892   119.698744
	   31 B(2,11,13)      =    114.629535    -0.000048    -0.213402   114.416133
	   32 B(2,11,15)      =    126.579923     0.000022     0.074989   126.654912
	   33 B(3,1,6)        =    117.977757    -0.000050    -0.157459   117.820298
	   34 B(3,1,12)       =    119.121552     0.000013     0.043148   119.164700
	   35 B(3,5,9)        =    119.703570    -0.000052    -0.245964   119.457606
	   36 B(4,2,5)        =    117.977757    -0.000050    -0.157459   117.820298
	   37 B(4,2,11)       =    119.121552     0.000013     0.043148   119.164700
	   38 B(4,6,10)       =    119.703570    -0.000052    -0.245964   119.457606
	   39 B(5,2,11)       =    122.900691     0.000037     0.114311   123.015002
	   40 B(5,3,7)        =    119.650240    -0.000015    -0.028522   119.621718
	   41 B(6,1,12)       =    122.900691     0.000037     0.114311   123.015002
	   42 B(6,4,8)        =    119.650240    -0.000015    -0.028522   119.621718
	   43 B(11,15,17)     =    122.485172     0.000040     0.186857   122.672028
	   44 B(11,15,19)     =    121.294925    -0.000019    -0.088921   121.206003
	   45 B(12,16,18)     =    122.485172     0.000040     0.186857   122.672028
	   46 B(12,16,20)     =    121.294925    -0.000019    -0.088921   121.206003
	   47 B(13,11,15)     =    118.790543     0.000026     0.138413   118.928955
	   48 B(14,12,16)     =    118.790543     0.000026     0.138413   118.928955
	   49 B(17,15,19)     =    116.219903    -0.000021    -0.097935   116.121968
	   50 B(18,16,20)     =    116.219903    -0.000021    -0.097935   116.121968
	   51 D(1,3,5,2)      =      0.000000    -0.000000     0.000000     0.000000
	   52 D(1,3,5,9)      =    180.000000    -0.000000     0.000000   180.000000
	   53 D(1,6,4,2)      =      0.000000    -0.000000     0.000000     0.000000
	   54 D(1,6,4,8)      =    180.000000     0.000000     0.000000   180.000000
	   55 D(1,12,16,18)   =      0.000000     0.000000     0.000000     0.000000
	   56 D(1,12,16,20)   =    180.000000    -0.000000     0.000000   180.000000
	   57 D(2,4,6,10)     =    180.000000    -0.000000     0.000000   180.000000
	   58 D(2,5,3,7)      =    180.000000     0.000000     0.000000   180.000000
	   59 D(2,11,15,17)   =      0.000000     0.000000     0.000000     0.000000
	   60 D(2,11,15,19)   =    180.000000    -0.000000     0.000000   180.000000
	   61 D(3,1,6,4)      =      0.000000    -0.000000     0.000000     0.000000
	   62 D(3,1,6,10)     =    180.000000    -0.000000     0.000000   180.000000
	   63 D(3,1,12,14)    =      0.000000    -0.000000     0.000000     0.000000
	   64 D(3,1,12,16)    =    180.000000    -0.000000     0.000000   180.000000
	   65 D(3,5,2,4)      =      0.000000    -0.000000     0.000000     0.000000
	   66 D(3,5,2,11)     =    180.000000    -0.000000     0.000000   180.000000
	   67 D(4,2,5,9)      =    180.000000    -0.000000     0.000000   180.000000
	   68 D(4,2,11,13)    =      0.000000    -0.000000     0.000000     0.000000
	   69 D(4,2,11,15)    =    180.000000    -0.000000     0.000000   180.000000
	   70 D(4,6,1,12)     =    180.000000    -0.000000     0.000000   180.000000
	   71 D(5,2,4,6)      =      0.000000     0.000000     0.000000     0.000000
	   72 D(5,2,4,8)      =    180.000000     0.000000     0.000000   180.000000
	   73 D(5,2,11,13)    =    180.000000    -0.000000     0.000000   180.000000
	   74 D(5,2,11,15)    =      0.000000     0.000000     0.000000     0.000000
	   75 D(5,3,1,6)      =      0.000000     0.000000     0.000000     0.000000
	   76 D(5,3,1,12)     =    180.000000     0.000000     0.000000   180.000000
	   77 D(6,1,3,7)      =    180.000000     0.000000     0.000000   180.000000
	   78 D(6,1,12,14)    =    180.000000    -0.000000     0.000000   180.000000
	   79 D(6,1,12,16)    =      0.000000    -0.000000     0.000000     0.000000
	   80 D(6,4,2,11)     =    180.000000     0.000000     0.000000   180.000000
	   81 D(7,3,1,12)     =      0.000000     0.000000     0.000000     0.000000
	   82 D(7,3,5,9)      =      0.000000     0.000000     0.000000     0.000000
	   83 D(8,4,2,11)     =      0.000000     0.000000     0.000000     0.000000
	   84 D(8,4,6,10)     =      0.000000     0.000000     0.000000     0.000000
	   85 D(9,5,2,11)     =      0.000000    -0.000000     0.000000     0.000000
	   86 D(10,6,1,12)    =      0.000000    -0.000000     0.000000     0.000000
	   87 D(13,11,15,17)  =    180.000000     0.000000     0.000000   180.000000
	   88 D(13,11,15,19)  =      0.000000    -0.000000     0.000000     0.000000
	   89 D(14,12,16,18)  =    180.000000     0.000000     0.000000   180.000000
	   90 D(14,12,16,20)  =      0.000000    -0.000000     0.000000     0.000000
	 ---------------------------------------------------------------------------
	Successfully symmetrized geometry.

  ==> Convergence Check <==

  Measures of convergence in internal coordinates in au.
  Criteria marked as inactive (o), active & met (*), and active & unmet ( ).
  --------------------------------------------------------------------------------------------- ~
   Step     Total Energy     Delta E     MAX Force     RMS Force      MAX Disp      RMS Disp    ~
  --------------------------------------------------------------------------------------------- ~
    Convergence Criteria    1.00e-06 *    3.00e-04 *             o    1.20e-03 *             o  ~
  --------------------------------------------------------------------------------------------- ~
      1    -382.30823533   -3.82e+02      7.73e-04      3.35e-04 o    4.82e-03      1.63e-03 o  ~
  ---------------------------------------------------------------------------------------------

	Writing optimization data to binary file.
	Structure for next step:
	Cartesian Geometry (in Angstrom)
	    C    -1.4169254315   0.2283412650   0.0000000000
	    C     1.4169254315  -0.2283412650   0.0000000000
	    C    -0.4952470993   1.3117559240   0.0000000000
	    C     0.4952470993  -1.3117559240   0.0000000000
	    C     0.8893958323   1.0911543079  -0.0000000000
	    C    -0.8893958323  -1.0911543079  -0.0000000000
	    H    -0.8812165052   2.3402772635   0.0000000000
	    H     0.8812165052  -2.3402772635   0.0000000000
	    H     1.5728563290   1.9500771512   0.0000000000
	    H    -1.5728563290  -1.9500771512   0.0000000000
	    C     2.8859956360  -0.5198551788  -0.0000000000
	    C    -2.8859956360   0.5198551788  -0.0000000000
	    H     3.1371135960  -1.5911341492  -0.0000000000
	    H    -3.1371135960   1.5911341492   0.0000000000
	    C     3.8832264511   0.3818900436   0.0000000000
	    C    -3.8832264511  -0.3818900436   0.0000000000
	    H     3.7032880219   1.4630229277   0.0000000000
	    H    -3.7032880219  -1.4630229277   0.0000000000
	    H     4.9331767630   0.0674379319   0.0000000000
	    H    -4.9331767630  -0.0674379319   0.0000000000
			--------------------------
			 OPTKING Finished Execution 
			--------------------------

    Structure for next step:
    Molecular point group: c2h
    Full point group: C2h

    Geometry (in Angstrom), charge = 0, multiplicity = 1:

    C           -1.416925437081     0.228341265881     0.000000000000
    C            1.416925437081    -0.228341265881     0.000000000000
    C           -0.495247101236     1.311755929150     0.000000000000
    C            0.495247101236    -1.311755929150     0.000000000000
    C            0.889395835798     1.091154312200    -0.000000000000
    C           -0.889395835798    -1.091154312200     0.000000000000
    H           -0.881216508685     2.340277272732     0.000000000000
    H            0.881216508685    -2.340277272732    -0.000000000000
    H            1.572856335176     1.950077158903     0.000000000000
    H           -1.572856335176    -1.950077158903     0.000000000000
    C            2.885995647338    -0.519855180808     0.000000000000
    C           -2.885995647338     0.519855180808     0.000000000000
    H            3.137113608371    -1.591134155498     0.000000000000
    H           -3.137113608371     1.591134155498     0.000000000000
    C            3.883226466336     0.381890045060     0.000000000000
    C           -3.883226466336    -0.381890045060    -0.000000000000
    H            3.703288036471     1.463022933410     0.000000000000
    H           -3.703288036471    -1.463022933410     0.000000000000
    H            4.933176782375     0.067437932209     0.000000000000
    H           -4.933176782375    -0.067437932209    -0.000000000000

gradient() will perform analytic gradient computation.

*** tstart() called on osmium
*** at Sat May  4 00:15:45 2019

   => Loading Basis Set <=

    Name: STO-3G
    Role: ORBITAL
    Keyword: BASIS
    atoms 1-6, 11-12, 15-16  entry C          line    61 file /home/eric/data/opt/apps/python/psi4conda/share/psi4/basis/sto-3g.gbs 
    atoms 7-10, 13-14, 17-20 entry H          line    19 file /home/eric/data/opt/apps/python/psi4conda/share/psi4/basis/sto-3g.gbs 


         ---------------------------------------------------------
                                   SCF
               by Justin Turney, Rob Parrish, Andy Simmonett
                          and Daniel G. A. Smith
                              RKS Reference
                        1 Threads,    500 MiB Core
         ---------------------------------------------------------

  ==> Geometry <==

    Molecular point group: c2h
    Full point group: C2h

    Geometry (in Angstrom), charge = 0, multiplicity = 1:

       Center              X                  Y                   Z               Mass       
    ------------   -----------------  -----------------  -----------------  -----------------
         C           -1.416925437081     0.228341265881     0.000000000000    12.000000000000
         C            1.416925437081    -0.228341265881     0.000000000000    12.000000000000
         C           -0.495247101236     1.311755929150     0.000000000000    12.000000000000
         C            0.495247101236    -1.311755929150     0.000000000000    12.000000000000
         C            0.889395835798     1.091154312200     0.000000000000    12.000000000000
         C           -0.889395835798    -1.091154312200     0.000000000000    12.000000000000
         H           -0.881216508685     2.340277272732     0.000000000000     1.007825032230
         H            0.881216508685    -2.340277272732     0.000000000000     1.007825032230
         H            1.572856335176     1.950077158903     0.000000000000     1.007825032230
         H           -1.572856335176    -1.950077158903     0.000000000000     1.007825032230
         C            2.885995647338    -0.519855180808     0.000000000000    12.000000000000
         C           -2.885995647338     0.519855180808     0.000000000000    12.000000000000
         H            3.137113608371    -1.591134155498     0.000000000000     1.007825032230
         H           -3.137113608371     1.591134155498     0.000000000000     1.007825032230
         C            3.883226466336     0.381890045060     0.000000000000    12.000000000000
         C           -3.883226466336    -0.381890045060     0.000000000000    12.000000000000
         H            3.703288036471     1.463022933410     0.000000000000     1.007825032230
         H           -3.703288036471    -1.463022933410     0.000000000000     1.007825032230
         H            4.933176782375     0.067437932209     0.000000000000     1.007825032230
         H           -4.933176782375    -0.067437932209     0.000000000000     1.007825032230

  Running in c2h symmetry.

  Rotational constants: A =      0.15434  B =      0.02284  C =      0.01990 [cm^-1]
  Rotational constants: A =   4626.93761  B =    684.83461  C =    596.54045 [MHz]
  Nuclear repulsion =  445.888147590488757

  Charge       = 0
  Multiplicity = 1
  Electrons    = 70
  Nalpha       = 35
  Nbeta        = 35

  ==> Algorithm <==

  SCF Algorithm Type is PK.
  DIIS enabled.
  MOM disabled.
  Fractional occupation disabled.
  Guess Type is READ.
  Energy threshold   = 1.00e-08
  Density threshold  = 1.00e-08
  Integral threshold = 0.00e+00

  ==> Primary Basis <==

  Basis Set: STO-3G
    Blend: STO-3G
    Number of shells: 40
    Number of basis function: 60
    Number of Cartesian functions: 60
    Spherical Harmonics?: true
    Max angular momentum: 1

  ==> DFT Potential <==

   => Composite Functional: B3LYP <= 

    B3LYP Hyb-GGA Exchange-Correlation Functional

    P. J. Stephens, F. J. Devlin, C. F. Chabalowski, and M. J. Frisch, J. Phys. Chem. 98, 11623 (1994)

    Deriv               =              1
    GGA                 =           TRUE
    Meta                =          FALSE

    Exchange Hybrid     =           TRUE
    MP2 Hybrid          =          FALSE

   => Exchange Functionals <=

    0.0800   Slater exchange
    0.7200         Becke 88

   => Exact (HF) Exchange <=

    0.2000               HF 

   => Correlation Functionals <=

    0.1900   Vosko, Wilk & Nusair (VWN5_RPA)
    0.8100   Lee, Yang & Parr

   => Molecular Quadrature <=

    Radial Scheme          =       TREUTLER
    Pruning Scheme         =           FLAT
    Nuclear Scheme         =       TREUTLER

    BS radius alpha        =              1
    Pruning alpha          =              1
    Radial Points          =             75
    Spherical Points       =            302
    Total Points           =         438988
    Total Blocks           =           3334
    Max Points             =            256
    Max Functions          =             56

   => Loading Basis Set <=

    Name: STO-3G
    Role: ORBITAL
    Keyword: BASIS
    atoms 1-6, 11-12, 15-16  entry C          line    61 file /home/eric/data/opt/apps/python/psi4conda/share/psi4/basis/sto-3g.gbs 
    atoms 7-10, 13-14, 17-20 entry H          line    19 file /home/eric/data/opt/apps/python/psi4conda/share/psi4/basis/sto-3g.gbs 

  Reading orbitals from file 180, no projection.

  ==> Pre-Iterations <==

   -------------------------------------------------------
    Irrep   Nso     Nmo     Nalpha   Nbeta   Ndocc  Nsocc
   -------------------------------------------------------
     Ag        25      25       0       0       0       0
     Bg         5       5       0       0       0       0
     Au         5       5       0       0       0       0
     Bu        25      25       0       0       0       0
   -------------------------------------------------------
    Total      60      60      35      35      35       0
   -------------------------------------------------------

  ==> Integral Setup <==

  Using in-core PK algorithm.
   Calculation information:
      Number of atoms:                  20
      Number of AO shells:              40
      Number of primitives:            120
      Number of atomic orbitals:        60
      Number of basis functions:        60

      Integral cutoff                 1.00e-12
      Number of threads:                 1

  Performing in-core PK
  Using 3350730 doubles for integral storage.
  We computed 262684 shell quartets total.
  Whereas there are 336610 unique shell quartets.

  ==> DiskJK: Disk-Based J/K Matrices <==

    J tasked:                  Yes
    K tasked:                  Yes
    wK tasked:                  No
    Memory [MiB]:               98
    Schwarz Cutoff:          1E-12

    OpenMP threads:              1

  Cached 50.0% of DFT collocation blocks in 0.287 [GiB].

  Minimum eigenvalue in the overlap matrix is 1.8134536531E-01.
  Using Symmetric Orthogonalization.

  SCF Guess: Orbitals guess was supplied from a previous computation.

  ==> Iterations <==

                        Total Energy        Delta E     RMS |[F,P]|

   @RKS iter   0:  -382.30893269707792   -3.82309e+02   1.94155e-04 
   @RKS iter   1:  -382.30825927658856    6.73420e-04   2.67296e-05 DIIS
   @RKS iter   2:  -382.30825907300652    2.03582e-07   3.29275e-05 DIIS
   @RKS iter   3:  -382.30825993389385   -8.60887e-07   2.52246e-06 DIIS
   @RKS iter   4:  -382.30825993787187   -3.97802e-09   1.38656e-06 DIIS
   @RKS iter   5:  -382.30825993906257   -1.19070e-09   7.30308e-07 DIIS
   @RKS iter   6:  -382.30825993949452   -4.31953e-10   6.50758e-08 DIIS
   @RKS iter   7:  -382.30825993949628   -1.76215e-12   3.17841e-08 DIIS
   @RKS iter   8:  -382.30825993949770   -1.42109e-12   3.47091e-09 DIIS
  Energy and wave function converged.


  ==> Post-Iterations <==

    Orbital Energies [Eh]
    ---------------------

    Doubly Occupied:                                                      

       1Bu   -10.020225     1Ag   -10.020178     2Bu   -10.008085  
       2Ag   -10.008084     3Bu   -10.006823     3Ag   -10.006820  
       4Bu   -10.006098     4Ag   -10.005960     5Bu    -9.992315  
       5Ag    -9.992315     6Ag    -0.809548     6Bu    -0.753941  
       7Ag    -0.717918     7Bu    -0.699833     8Bu    -0.667531  
       8Ag    -0.588688     9Ag    -0.559023     9Bu    -0.531670  
      10Ag    -0.510175    11Ag    -0.457441    10Bu    -0.439314  
      11Bu    -0.410693    12Bu    -0.397923    12Ag    -0.396069  
      13Bu    -0.374059    14Bu    -0.351181    13Ag    -0.347292  
       1Au    -0.324537    15Bu    -0.311219    14Ag    -0.292842  
      15Ag    -0.287446     1Bg    -0.263505     2Au    -0.212403  
       2Bg    -0.195107     3Bg    -0.153093  

    Virtual:                                                              

       3Au     0.037406     4Au     0.090334     4Bg     0.110581  
       5Au     0.182173     5Bg     0.272523    16Ag     0.332162  
      16Bu     0.340756    17Bu     0.379389    17Ag     0.381577  
      18Ag     0.411083    18Bu     0.412041    19Bu     0.426773  
      19Ag     0.439734    20Bu     0.452734    20Ag     0.478243  
      21Ag     0.526280    21Bu     0.545930    22Ag     0.575976  
      22Bu     0.599294    23Bu     0.625114    23Ag     0.639466  
      24Ag     0.682937    24Bu     0.717036    25Ag     0.779496  
      25Bu     0.794647  

    Final Occupation by Irrep:
             Ag    Bg    Au    Bu 
    DOCC [    15,    3,    2,   15 ]

  @RKS Final Energy:  -382.30825993949770

   => Energetics <=

    Nuclear Repulsion Energy =            445.8881475904887566
    One-Electron Energy =               -1400.5441789389956284
    Two-Electron Energy =                 619.1324153173450213
    DFT Exchange-Correlation Energy =     -46.7846439083358661
    Empirical Dispersion Energy =           0.0000000000000000
    VV10 Nonlocal Energy =                  0.0000000000000000
    Total Energy =                       -382.3082599394977024

Computation Completed


Properties will be evaluated at   0.000000,   0.000000,   0.000000 [a0]

Properties computed using the SCF density matrix

  Nuclear Dipole Moment: [e a0]
     X:     0.0000      Y:     0.0000      Z:     0.0000

  Electronic Dipole Moment: [e a0]
     X:     0.0000      Y:     0.0000      Z:     0.0000

  Dipole Moment: [e a0]
     X:     0.0000      Y:     0.0000      Z:     0.0000     Total:     0.0000

  Dipole Moment: [D]
     X:     0.0000      Y:     0.0000      Z:     0.0000     Total:     0.0000


*** tstop() called on osmium at Sat May  4 00:15:56 2019
Module time:
	user time   =      10.88 seconds =       0.18 minutes
	system time =       0.10 seconds =       0.00 minutes
	total time  =         11 seconds =       0.18 minutes
Total time:
	user time   =      32.07 seconds =       0.53 minutes
	system time =       0.32 seconds =       0.01 minutes
	total time  =         33 seconds =       0.55 minutes

*** tstart() called on osmium
*** at Sat May  4 00:15:56 2019


         ------------------------------------------------------------
                                   SCF GRAD                          
                          Rob Parrish, Justin Turney,                
                       Andy Simmonett, and Alex Sokolov              
         ------------------------------------------------------------

  ==> Geometry <==

    Molecular point group: c2h
    Full point group: C2h

    Geometry (in Angstrom), charge = 0, multiplicity = 1:

       Center              X                  Y                   Z               Mass       
    ------------   -----------------  -----------------  -----------------  -----------------
         C           -1.416925437081     0.228341265881     0.000000000000    12.000000000000
         C            1.416925437081    -0.228341265881     0.000000000000    12.000000000000
         C           -0.495247101236     1.311755929150     0.000000000000    12.000000000000
         C            0.495247101236    -1.311755929150     0.000000000000    12.000000000000
         C            0.889395835798     1.091154312200     0.000000000000    12.000000000000
         C           -0.889395835798    -1.091154312200     0.000000000000    12.000000000000
         H           -0.881216508685     2.340277272732     0.000000000000     1.007825032230
         H            0.881216508685    -2.340277272732     0.000000000000     1.007825032230
         H            1.572856335176     1.950077158903     0.000000000000     1.007825032230
         H           -1.572856335176    -1.950077158903     0.000000000000     1.007825032230
         C            2.885995647338    -0.519855180808     0.000000000000    12.000000000000
         C           -2.885995647338     0.519855180808     0.000000000000    12.000000000000
         H            3.137113608371    -1.591134155498     0.000000000000     1.007825032230
         H           -3.137113608371     1.591134155498     0.000000000000     1.007825032230
         C            3.883226466336     0.381890045060     0.000000000000    12.000000000000
         C           -3.883226466336    -0.381890045060     0.000000000000    12.000000000000
         H            3.703288036471     1.463022933410     0.000000000000     1.007825032230
         H           -3.703288036471    -1.463022933410     0.000000000000     1.007825032230
         H            4.933176782375     0.067437932209     0.000000000000     1.007825032230
         H           -4.933176782375    -0.067437932209     0.000000000000     1.007825032230

  Nuclear repulsion =  445.888147590488757

  ==> Basis Set <==

  Basis Set: STO-3G
    Blend: STO-3G
    Number of shells: 40
    Number of basis function: 60
    Number of Cartesian functions: 60
    Spherical Harmonics?: true
    Max angular momentum: 1

  ==> DirectJKGrad: Integral-Direct SCF Gradients <==

    Gradient:                    1
    J tasked:                  Yes
    K tasked:                  Yes
    wK tasked:                  No
    Integrals threads:           1
    Schwarz Cutoff:          0E+00

  ==> DFT Potential <==

   => Composite Functional: B3LYP <= 

    B3LYP Hyb-GGA Exchange-Correlation Functional

    P. J. Stephens, F. J. Devlin, C. F. Chabalowski, and M. J. Frisch, J. Phys. Chem. 98, 11623 (1994)

    Deriv               =              1
    GGA                 =           TRUE
    Meta                =          FALSE

    Exchange Hybrid     =           TRUE
    MP2 Hybrid          =          FALSE

   => Exchange Functionals <=

    0.0800   Slater exchange
    0.7200         Becke 88

   => Exact (HF) Exchange <=

    0.2000               HF 

   => Correlation Functionals <=

    0.1900   Vosko, Wilk & Nusair (VWN5_RPA)
    0.8100   Lee, Yang & Parr

   => Molecular Quadrature <=

    Radial Scheme          =       TREUTLER
    Pruning Scheme         =           FLAT
    Nuclear Scheme         =       TREUTLER

    BS radius alpha        =              1
    Pruning alpha          =              1
    Radial Points          =             75
    Spherical Points       =            302
    Total Points           =         438988
    Total Blocks           =           3334
    Max Points             =            256
    Max Functions          =             56


  -Total Gradient:
     Atom            X                  Y                   Z
    ------   -----------------  -----------------  -----------------
       1        0.000268414546    -0.000108254265     0.000000000000
       2       -0.000268414546     0.000108254265     0.000000000000
       3       -0.000046722590     0.000006088573     0.000000000000
       4        0.000046722590    -0.000006088573     0.000000000000
       5       -0.000125931540    -0.000035230434    -0.000000000000
       6        0.000125931540     0.000035230434     0.000000000000
       7        0.000042949760    -0.000052665103     0.000000000000
       8       -0.000042949760     0.000052665103     0.000000000000
       9        0.000157184276    -0.000045021432     0.000000000000
      10       -0.000157184276     0.000045021432     0.000000000000
      11       -0.000072868355    -0.000153284685     0.000000000000
      12        0.000072868355     0.000153284685     0.000000000000
      13       -0.000025969409     0.000101297429     0.000000000000
      14        0.000025969409    -0.000101297429     0.000000000000
      15        0.000382974967     0.000074907546     0.000000000000
      16       -0.000382974967    -0.000074907546     0.000000000000
      17        0.000017891243     0.000001641193     0.000000000000
      18       -0.000017891243    -0.000001641193     0.000000000000
      19       -0.000151181109     0.000046885987     0.000000000000
      20        0.000151181109    -0.000046885987    -0.000000000000


*** tstop() called on osmium at Sat May  4 00:16:04 2019
Module time:
	user time   =       8.20 seconds =       0.14 minutes
	system time =       0.02 seconds =       0.00 minutes
	total time  =          8 seconds =       0.13 minutes
Total time:
	user time   =      40.27 seconds =       0.67 minutes
	system time =       0.34 seconds =       0.01 minutes
	total time  =         41 seconds =       0.68 minutes

			-----------------------------------------
			 OPTKING 2.0: for geometry optimizations 
			  - R.A. King,  Bethel University        
			-----------------------------------------

	Previous internal coordinate definitions found.
	---Fragment 1 Geometry and Gradient---
	 C          -2.6776010163        0.4315024557        0.0000000000
	 C           2.6776010163       -0.4315024557        0.0000000000
	 C          -0.9358813858        2.4788594495        0.0000000000
	 C           0.9358813858       -2.4788594495        0.0000000000
	 C           1.6807145468        2.0619828107        0.0000000000
	 C          -1.6807145468       -2.0619828107        0.0000000000
	 H          -1.6652578586        4.4224831031        0.0000000000
	 H           1.6652578586       -4.4224831031        0.0000000000
	 H           2.9722677082        3.6851117538        0.0000000000
	 H          -2.9722677082       -3.6851117538        0.0000000000
	 C           5.4537413727       -0.9823839166        0.0000000000
	 C          -5.4537413727        0.9823839166        0.0000000000
	 H           5.9282855443       -3.0068077828        0.0000000000
	 H          -5.9282855443        3.0068077828        0.0000000000
	 C           7.3382345045        0.7216675952        0.0000000000
	 C          -7.3382345045       -0.7216675952        0.0000000000
	 H           6.9982001526        2.7647126594        0.0000000000
	 H          -6.9982001526       -2.7647126594        0.0000000000
	 H           9.3223530472        0.1274392223        0.0000000000
	 H          -9.3223530472       -0.1274392223        0.0000000000
	             0.0002684145       -0.0001082543        0.0000000000
	            -0.0002684145        0.0001082543        0.0000000000
	            -0.0000467226        0.0000060886        0.0000000000
	             0.0000467226       -0.0000060886        0.0000000000
	            -0.0001259315       -0.0000352304       -0.0000000000
	             0.0001259315        0.0000352304        0.0000000000
	             0.0000429498       -0.0000526651        0.0000000000
	            -0.0000429498        0.0000526651        0.0000000000
	             0.0001571843       -0.0000450214        0.0000000000
	            -0.0001571843        0.0000450214        0.0000000000
	            -0.0000728684       -0.0001532847        0.0000000000
	             0.0000728684        0.0001532847        0.0000000000
	            -0.0000259694        0.0001012974        0.0000000000
	             0.0000259694       -0.0001012974        0.0000000000
	             0.0003829750        0.0000749075        0.0000000000
	            -0.0003829750       -0.0000749075        0.0000000000
	             0.0000178912        0.0000016412        0.0000000000
	            -0.0000178912       -0.0000016412        0.0000000000
	            -0.0001511811        0.0000468860        0.0000000000
	             0.0001511811       -0.0000468860       -0.0000000000

	---Fragment 1 Intrafragment Coordinates---
	 - Coordinate -           - BOHR/RAD -       - ANG/DEG -
	 R(1,3)           =         2.687984	       1.422420
	 R(1,6)           =         2.685377	       1.421040
	 R(1,12)          =         2.830270	       1.497714
	 R(2,4)           =         2.687984	       1.422420
	 R(2,5)           =         2.685377	       1.421040
	 R(2,11)          =         2.830270	       1.497714
	 R(3,5)           =         2.649596	       1.402106
	 R(3,7)           =         2.075973	       1.098557
	 R(4,6)           =         2.649596	       1.402106
	 R(4,8)           =         2.075973	       1.098557
	 R(5,9)           =         2.074285	       1.097664
	 R(6,10)          =         2.074285	       1.097664
	 R(11,13)         =         2.079299	       1.100318
	 R(11,15)         =         2.540690	       1.344475
	 R(12,14)         =         2.079299	       1.100318
	 R(12,16)         =         2.540690	       1.344475
	 R(15,17)         =         2.071149	       1.096005
	 R(15,19)         =         2.071191	       1.096027
	 R(16,18)         =         2.071149	       1.096005
	 R(16,20)         =         2.071191	       1.096027
	 B(1,3,5)         =         2.117714	     121.336053
	 B(1,3,7)         =         2.077679	     119.042230
	 B(1,6,4)         =         2.109120	     120.843650
	 B(1,6,10)        =         2.089137	     119.698744
	 B(1,12,14)       =         1.996938	     114.416133
	 B(1,12,16)       =         2.210545	     126.654912
	 B(2,4,6)         =         2.117714	     121.336053
	 B(2,4,8)         =         2.077679	     119.042230
	 B(2,5,3)         =         2.109120	     120.843650
	 B(2,5,9)         =         2.089137	     119.698744
	 B(2,11,13)       =         1.996938	     114.416133
	 B(2,11,15)       =         2.210545	     126.654912
	 B(3,1,6)         =         2.056352	     117.820298
	 B(3,1,12)        =         2.079816	     119.164700
	 B(3,5,9)         =         2.084929	     119.457606
	 B(4,2,5)         =         2.056352	     117.820298
	 B(4,2,11)        =         2.079816	     119.164700
	 B(4,6,10)        =         2.084929	     119.457606
	 B(5,2,11)        =         2.147017	     123.015002
	 B(5,3,7)         =         2.087793	     119.621718
	 B(6,1,12)        =         2.147017	     123.015002
	 B(6,4,8)         =         2.087793	     119.621718
	 B(11,15,17)      =         2.141031	     122.672028
	 B(11,15,19)      =         2.115444	     121.206003
	 B(12,16,18)      =         2.141031	     122.672028
	 B(12,16,20)      =         2.115444	     121.206003
	 B(13,11,15)      =         2.075702	     118.928955
	 B(14,12,16)      =         2.075702	     118.928955
	 B(17,15,19)      =         2.026711	     116.121968
	 B(18,16,20)      =         2.026711	     116.121968
	 D(1,3,5,2)       =         0.000000	       0.000000
	 D(1,3,5,9)       =         3.141593	     180.000000
	 D(1,6,4,2)       =         0.000000	       0.000000
	 D(1,6,4,8)       =         3.141593	     180.000000
	 D(1,12,16,18)    =         0.000000	       0.000000
	 D(1,12,16,20)    =         3.141593	     180.000000
	 D(2,4,6,10)      =         3.141593	     180.000000
	 D(2,5,3,7)       =         3.141593	     180.000000
	 D(2,11,15,17)    =         0.000000	       0.000000
	 D(2,11,15,19)    =         3.141593	     180.000000
	 D(3,1,6,4)       =         0.000000	       0.000000
	 D(3,1,6,10)      =         3.141593	     180.000000
	 D(3,1,12,14)     =         0.000000	       0.000000
	 D(3,1,12,16)     =         3.141593	     180.000000
	 D(3,5,2,4)       =         0.000000	       0.000000
	 D(3,5,2,11)      =         3.141593	     180.000000
	 D(4,2,5,9)       =         3.141593	     180.000000
	 D(4,2,11,13)     =         0.000000	       0.000000
	 D(4,2,11,15)     =         3.141593	     180.000000
	 D(4,6,1,12)      =         3.141593	     180.000000
	 D(5,2,4,6)       =         0.000000	       0.000000
	 D(5,2,4,8)       =         3.141593	     180.000000
	 D(5,2,11,13)     =         3.141593	     180.000000
	 D(5,2,11,15)     =         0.000000	       0.000000
	 D(5,3,1,6)       =         0.000000	       0.000000
	 D(5,3,1,12)      =         3.141593	     180.000000
	 D(6,1,3,7)       =         3.141593	     180.000000
	 D(6,1,12,14)     =         3.141593	     180.000000
	 D(6,1,12,16)     =         0.000000	       0.000000
	 D(6,4,2,11)      =         3.141593	     180.000000
	 D(7,3,1,12)      =         0.000000	       0.000000
	 D(7,3,5,9)       =         0.000000	       0.000000
	 D(8,4,2,11)      =         0.000000	       0.000000
	 D(8,4,6,10)      =         0.000000	       0.000000
	 D(9,5,2,11)      =         0.000000	       0.000000
	 D(10,6,1,12)     =         0.000000	       0.000000
	 D(13,11,15,17)   =         3.141593	     180.000000
	 D(13,11,15,19)   =         0.000000	       0.000000
	 D(14,12,16,18)   =         3.141593	     180.000000
	 D(14,12,16,20)   =         0.000000	       0.000000

	Current energy   :      -382.3082599395

	Energy change for the previous step:
		Projected    :        -0.0000465784
		Actual       :        -0.0000246103

	Performing BFGS update.
	Previous computed or guess Hessian on step 1.
	Steps to be used in Hessian update: 1
	Taking RFO optimization step.
	Going to follow RFO solution 1.
	Using RFO vector 1.
	Norm of target step-size    0.00311
	Projected energy change by RFO approximation:        -0.0000019208

	Back-transformation to cartesian coordinates...
	Successfully converged to displaced geometry.

	--- Internal Coordinate Step in ANG or DEG, aJ/ANG or AJ/DEG ---
	 ---------------------------------------------------------------------------
	   Coordinate                Previous        Force       Change         New 
	   ----------                --------       ------       ------       ------
	    1 R(1,3)          =      1.422420     0.000068     0.000026     1.422446
	    2 R(1,6)          =      1.421040     0.001403     0.000182     1.421223
	    3 R(1,12)         =      1.497714    -0.001101    -0.000229     1.497486
	    4 R(2,4)          =      1.422420     0.000068     0.000026     1.422446
	    5 R(2,5)          =      1.421040     0.001403     0.000182     1.421223
	    6 R(2,11)         =      1.497714    -0.001101    -0.000229     1.497486
	    7 R(3,5)          =      1.402106     0.000432     0.000049     1.402155
	    8 R(3,7)          =      1.098557     0.000531     0.000097     1.098655
	    9 R(4,6)          =      1.402106     0.000432     0.000049     1.402155
	   10 R(4,8)          =      1.098557     0.000531     0.000097     1.098655
	   11 R(5,9)          =      1.097664    -0.000516    -0.000074     1.097590
	   12 R(6,10)         =      1.097664    -0.000516    -0.000074     1.097590
	   13 R(11,13)        =      1.100318     0.000864     0.000143     1.100461
	   14 R(11,15)        =      1.344475    -0.002216    -0.000251     1.344225
	   15 R(12,14)        =      1.100318     0.000864     0.000143     1.100461
	   16 R(12,16)        =      1.344475    -0.002216    -0.000251     1.344225
	   17 R(15,17)        =      1.096005     0.000007     0.000002     1.096007
	   18 R(15,19)        =      1.096027     0.001306     0.000228     1.096255
	   19 R(16,18)        =      1.096005     0.000007     0.000002     1.096007
	   20 R(16,20)        =      1.096027     0.001306     0.000228     1.096255
	   21 B(1,3,5)        =    121.336053     0.000003     0.015829   121.351882
	   22 B(1,3,7)        =    119.042230    -0.000003    -0.018724   119.023506
	   23 B(1,6,4)        =    120.843650     0.000003     0.006983   120.850633
	   24 B(1,6,10)       =    119.698744     0.000011     0.064662   119.763406
	   25 B(1,12,14)      =    114.416133     0.000006     0.012082   114.428215
	   26 B(1,12,16)      =    126.654912    -0.000011    -0.036937   126.617975
	   27 B(2,4,6)        =    121.336053     0.000003     0.015829   121.351882
	   28 B(2,4,8)        =    119.042230    -0.000003    -0.018724   119.023506
	   29 B(2,5,3)        =    120.843650     0.000003     0.006983   120.850633
	   30 B(2,5,9)        =    119.698744     0.000011     0.064662   119.763406
	   31 B(2,11,13)      =    114.416133     0.000006     0.012082   114.428215
	   32 B(2,11,15)      =    126.654912    -0.000011    -0.036937   126.617975
	   33 B(3,1,6)        =    117.820298    -0.000005    -0.022812   117.797485
	   34 B(3,1,12)       =    119.164700     0.000000     0.002551   119.167251
	   35 B(3,5,9)        =    119.457606    -0.000013    -0.071645   119.385961
	   36 B(4,2,5)        =    117.820298    -0.000005    -0.022812   117.797485
	   37 B(4,2,11)       =    119.164700     0.000000     0.002551   119.167251
	   38 B(4,6,10)       =    119.457606    -0.000013    -0.071645   119.385961
	   39 B(5,2,11)       =    123.015002     0.000005     0.020262   123.035264
	   40 B(5,3,7)        =    119.621718     0.000000     0.002895   119.624612
	   41 B(6,1,12)       =    123.015002     0.000005     0.020262   123.035264
	   42 B(6,4,8)        =    119.621718     0.000000     0.002895   119.624612
	   43 B(11,15,17)     =    122.672028    -0.000002    -0.000969   122.671059
	   44 B(11,15,19)     =    121.206003     0.000001    -0.000163   121.205840
	   45 B(12,16,18)     =    122.672028    -0.000002    -0.000969   122.671059
	   46 B(12,16,20)     =    121.206003     0.000001    -0.000163   121.205840
	   47 B(13,11,15)     =    118.928955     0.000006     0.024855   118.953810
	   48 B(14,12,16)     =    118.928955     0.000006     0.024855   118.953810
	   49 B(17,15,19)     =    116.121968     0.000001     0.001133   116.123101
	   50 B(18,16,20)     =    116.121968     0.000001     0.001133   116.123101
	   51 D(1,3,5,2)      =      0.000000    -0.000000     0.000000     0.000000
	   52 D(1,3,5,9)      =    180.000000    -0.000000     0.000000   180.000000
	   53 D(1,6,4,2)      =      0.000000    -0.000000     0.000000     0.000000
	   54 D(1,6,4,8)      =    180.000000     0.000000     0.000000   180.000000
	   55 D(1,12,16,18)   =      0.000000     0.000000     0.000000     0.000000
	   56 D(1,12,16,20)   =    180.000000    -0.000000     0.000000   180.000000
	   57 D(2,4,6,10)     =    180.000000    -0.000000     0.000000   180.000000
	   58 D(2,5,3,7)      =    180.000000     0.000000     0.000000   180.000000
	   59 D(2,11,15,17)   =      0.000000     0.000000     0.000000     0.000000
	   60 D(2,11,15,19)   =    180.000000     0.000000     0.000000   180.000000
	   61 D(3,1,6,4)      =      0.000000    -0.000000     0.000000     0.000000
	   62 D(3,1,6,10)     =    180.000000    -0.000000     0.000000   180.000000
	   63 D(3,1,12,14)    =      0.000000    -0.000000     0.000000     0.000000
	   64 D(3,1,12,16)    =    180.000000    -0.000000     0.000000   180.000000
	   65 D(3,5,2,4)      =      0.000000    -0.000000     0.000000     0.000000
	   66 D(3,5,2,11)     =    180.000000    -0.000000     0.000000   180.000000
	   67 D(4,2,5,9)      =    180.000000    -0.000000     0.000000   180.000000
	   68 D(4,2,11,13)    =      0.000000    -0.000000     0.000000     0.000000
	   69 D(4,2,11,15)    =    180.000000    -0.000000     0.000000   180.000000
	   70 D(4,6,1,12)     =    180.000000    -0.000000     0.000000   180.000000
	   71 D(5,2,4,6)      =      0.000000     0.000000     0.000000     0.000000
	   72 D(5,2,4,8)      =    180.000000     0.000000     0.000000   180.000000
	   73 D(5,2,11,13)    =    180.000000    -0.000000     0.000000   180.000000
	   74 D(5,2,11,15)    =      0.000000    -0.000000     0.000000     0.000000
	   75 D(5,3,1,6)      =      0.000000     0.000000     0.000000     0.000000
	   76 D(5,3,1,12)     =    180.000000     0.000000     0.000000   180.000000
	   77 D(6,1,3,7)      =    180.000000     0.000000     0.000000   180.000000
	   78 D(6,1,12,14)    =    180.000000    -0.000000     0.000000   180.000000
	   79 D(6,1,12,16)    =      0.000000    -0.000000     0.000000     0.000000
	   80 D(6,4,2,11)     =    180.000000     0.000000     0.000000   180.000000
	   81 D(7,3,1,12)     =      0.000000     0.000000     0.000000     0.000000
	   82 D(7,3,5,9)      =      0.000000     0.000000     0.000000     0.000000
	   83 D(8,4,2,11)     =      0.000000     0.000000     0.000000     0.000000
	   84 D(8,4,6,10)     =      0.000000     0.000000     0.000000     0.000000
	   85 D(9,5,2,11)     =      0.000000    -0.000000     0.000000     0.000000
	   86 D(10,6,1,12)    =      0.000000    -0.000000     0.000000     0.000000
	   87 D(13,11,15,17)  =    180.000000    -0.000000     0.000000   180.000000
	   88 D(13,11,15,19)  =      0.000000    -0.000000     0.000000     0.000000
	   89 D(14,12,16,18)  =    180.000000     0.000000     0.000000   180.000000
	   90 D(14,12,16,20)  =      0.000000    -0.000000     0.000000     0.000000
	 ---------------------------------------------------------------------------
	Successfully symmetrized geometry.

  ==> Convergence Check <==

  Measures of convergence in internal coordinates in au.
  Criteria marked as inactive (o), active & met (*), and active & unmet ( ).
  ---------------------------------------------------------------------------------------------
   Step     Total Energy     Delta E     MAX Force     RMS Force      MAX Disp      RMS Disp   
  ---------------------------------------------------------------------------------------------
    Convergence Criteria    1.00e-06 *    3.00e-04 *             o    1.20e-03 *             o
  ---------------------------------------------------------------------------------------------
      2    -382.30825994   -2.46e-05      2.69e-04 *    7.63e-05 o    1.25e-03      3.27e-04 o  ~
  ---------------------------------------------------------------------------------------------

	Writing optimization data to binary file.
	Structure for next step:
	Cartesian Geometry (in Angstrom)
	    C    -1.4172213179   0.2285177899   0.0000000000
	    C     1.4172213179  -0.2285177899   0.0000000000
	    C    -0.4952247200   1.3116957895  -0.0000000000
	    C     0.4952247200  -1.3116957895   0.0000000000
	    C     0.8894657651   1.0910838237   0.0000000000
	    C    -0.8894657651  -1.0910838237   0.0000000000
	    H    -0.8812782525   2.3402894319   0.0000000000
	    H     0.8812782525  -2.3402894319  -0.0000000000
	    H     1.5718073218   1.9508012759   0.0000000000
	    H    -1.5718073218  -1.9508012759   0.0000000000
	    C     2.8859992285  -0.5203305012   0.0000000000
	    C    -2.8859992285   0.5203305012   0.0000000000
	    H     3.1371254058  -1.5917546358  -0.0000000000
	    H    -3.1371254058   1.5917546358   0.0000000000
	    C     3.8826735100   0.3816562732  -0.0000000000
	    C    -3.8826735100  -0.3816562732  -0.0000000000
	    H     3.7022720896   1.4627144973  -0.0000000000
	    H    -3.7022720896  -1.4627144973  -0.0000000000
	    H     4.9329701996   0.0675674587   0.0000000000
	    H    -4.9329701996  -0.0675674587   0.0000000000
			--------------------------
			 OPTKING Finished Execution 
			--------------------------

    Structure for next step:
    Molecular point group: c2h
    Full point group: C2h

    Geometry (in Angstrom), charge = 0, multiplicity = 1:

    C           -1.417221323436     0.228517790833     0.000000000000
    C            1.417221323436    -0.228517790833     0.000000000000
    C           -0.495224721905     1.311695794657     0.000000000000
    C            0.495224721905    -1.311695794657     0.000000000000
    C            0.889465768600     1.091083828026     0.000000000000
    C           -0.889465768600    -1.091083828026     0.000000000000
    H           -0.881278255919     2.340289441133     0.000000000000
    H            0.881278255919    -2.340289441133     0.000000000000
    H            1.571807327955     1.950801283552     0.000000000000
    H           -1.571807327955    -1.950801283552     0.000000000000
    C            2.885999239800    -0.520330503219     0.000000000000
    C           -2.885999239800     0.520330503219     0.000000000000
    H            3.137125418106    -1.591754642049     0.000000000000
    H           -3.137125418106     1.591754642049    -0.000000000000
    C            3.882673525228     0.381656274736     0.000000000000
    C           -3.882673525228    -0.381656274736     0.000000000000
    H            3.702272104151     1.462714502999    -0.000000000000
    H           -3.702272104151    -1.462714502999     0.000000000000
    H            4.932970219038     0.067567459002     0.000000000000
    H           -4.932970219038    -0.067567459002     0.000000000000

gradient() will perform analytic gradient computation.

*** tstart() called on osmium
*** at Sat May  4 00:16:04 2019

   => Loading Basis Set <=

    Name: STO-3G
    Role: ORBITAL
    Keyword: BASIS
    atoms 1-6, 11-12, 15-16  entry C          line    61 file /home/eric/data/opt/apps/python/psi4conda/share/psi4/basis/sto-3g.gbs 
    atoms 7-10, 13-14, 17-20 entry H          line    19 file /home/eric/data/opt/apps/python/psi4conda/share/psi4/basis/sto-3g.gbs 


         ---------------------------------------------------------
                                   SCF
               by Justin Turney, Rob Parrish, Andy Simmonett
                          and Daniel G. A. Smith
                              RKS Reference
                        1 Threads,    500 MiB Core
         ---------------------------------------------------------

  ==> Geometry <==

    Molecular point group: c2h
    Full point group: C2h

    Geometry (in Angstrom), charge = 0, multiplicity = 1:

       Center              X                  Y                   Z               Mass       
    ------------   -----------------  -----------------  -----------------  -----------------
         C           -1.417221323436     0.228517790833     0.000000000000    12.000000000000
         C            1.417221323436    -0.228517790833     0.000000000000    12.000000000000
         C           -0.495224721905     1.311695794657     0.000000000000    12.000000000000
         C            0.495224721905    -1.311695794657     0.000000000000    12.000000000000
         C            0.889465768600     1.091083828026     0.000000000000    12.000000000000
         C           -0.889465768600    -1.091083828026     0.000000000000    12.000000000000
         H           -0.881278255919     2.340289441133     0.000000000000     1.007825032230
         H            0.881278255919    -2.340289441133     0.000000000000     1.007825032230
         H            1.571807327955     1.950801283552     0.000000000000     1.007825032230
         H           -1.571807327955    -1.950801283552     0.000000000000     1.007825032230
         C            2.885999239800    -0.520330503219     0.000000000000    12.000000000000
         C           -2.885999239800     0.520330503219     0.000000000000    12.000000000000
         H            3.137125418106    -1.591754642049     0.000000000000     1.007825032230
         H           -3.137125418106     1.591754642049     0.000000000000     1.007825032230
         C            3.882673525228     0.381656274736     0.000000000000    12.000000000000
         C           -3.882673525228    -0.381656274736     0.000000000000    12.000000000000
         H            3.702272104151     1.462714502999     0.000000000000     1.007825032230
         H           -3.702272104151    -1.462714502999     0.000000000000     1.007825032230
         H            4.932970219038     0.067567459002     0.000000000000     1.007825032230
         H           -4.932970219038    -0.067567459002     0.000000000000     1.007825032230

  Running in c2h symmetry.

  Rotational constants: A =      0.15432  B =      0.02285  C =      0.01990 [cm^-1]
  Rotational constants: A =   4626.48118  B =    684.93324  C =    596.60770 [MHz]
  Nuclear repulsion =  445.898888657597126

  Charge       = 0
  Multiplicity = 1
  Electrons    = 70
  Nalpha       = 35
  Nbeta        = 35

  ==> Algorithm <==

  SCF Algorithm Type is PK.
  DIIS enabled.
  MOM disabled.
  Fractional occupation disabled.
  Guess Type is READ.
  Energy threshold   = 1.00e-08
  Density threshold  = 1.00e-08
[...]
	 H          -2.9702853718       -3.6864801511        0.0000000000
	 C           5.4537481615       -0.9832821458        0.0000000000
	 C          -5.4537481615        0.9832821458        0.0000000000
	 H           5.9283078614       -3.0079803324        0.0000000000
	 H          -5.9283078614        3.0079803324        0.0000000000
	 C           7.3371895972        0.7212258333        0.0000000000
	 C          -7.3371895972       -0.7212258333        0.0000000000
	 H           6.9962803188        2.7641298104        0.0000000000
	 H          -6.9962803188       -2.7641298104        0.0000000000
	 H           9.3219626990        0.1276839925        0.0000000000
	 H          -9.3219626990       -0.1276839925        0.0000000000
	            -0.0000178668        0.0000364591        0.0000000000
	             0.0000178668       -0.0000364591        0.0000000000
	             0.0000055536        0.0000151092        0.0000000000
	            -0.0000055536       -0.0000151092        0.0000000000
	            -0.0000125323        0.0000131681        0.0000000000
	             0.0000125323       -0.0000131681       -0.0000000000
	            -0.0000141794        0.0000081854        0.0000000000
	             0.0000141794       -0.0000081854        0.0000000000
	            -0.0000032214       -0.0000001366        0.0000000000
	             0.0000032214        0.0000001366        0.0000000000
	             0.0000493496        0.0000789517       -0.0000000000
	            -0.0000493496       -0.0000789517        0.0000000000
	            -0.0000065549       -0.0000208158        0.0000000000
	             0.0000065549        0.0000208158        0.0000000000
	            -0.0001030956       -0.0000346446        0.0000000000
	             0.0001030956        0.0000346446        0.0000000000
	             0.0000125892        0.0000081358        0.0000000000
	            -0.0000125892       -0.0000081358        0.0000000000
	             0.0000157184       -0.0000203216        0.0000000000
	            -0.0000157184        0.0000203216        0.0000000000

	---Fragment 1 Intrafragment Coordinates---
	 - Coordinate -           - BOHR/RAD -       - ANG/DEG -
	 R(1,3)           =         2.688033	       1.422446
	 R(1,6)           =         2.685722	       1.421223
	 R(1,12)          =         2.829838	       1.497486
	 R(2,4)           =         2.688033	       1.422446
	 R(2,5)           =         2.685722	       1.421223
	 R(2,11)          =         2.829838	       1.497486
	 R(3,5)           =         2.649688	       1.402155
	 R(3,7)           =         2.076157	       1.098655
	 R(4,6)           =         2.649688	       1.402155
	 R(4,8)           =         2.076157	       1.098655
	 R(5,9)           =         2.074145	       1.097590
	 R(6,10)          =         2.074145	       1.097590
	 R(11,13)         =         2.079570	       1.100461
	 R(11,15)         =         2.540216	       1.344225
	 R(12,14)         =         2.079570	       1.100461
	 R(12,16)         =         2.540216	       1.344225
	 R(15,17)         =         2.071153	       1.096007
	 R(15,19)         =         2.071622	       1.096255
	 R(16,18)         =         2.071153	       1.096007
	 R(16,20)         =         2.071622	       1.096255
	 B(1,3,5)         =         2.117990	     121.351882
	 B(1,3,7)         =         2.077352	     119.023506
	 B(1,6,4)         =         2.109241	     120.850633
	 B(1,6,10)        =         2.090266	     119.763406
	 B(1,12,14)       =         1.997149	     114.428215
	 B(1,12,16)       =         2.209901	     126.617975
	 B(2,4,6)         =         2.117990	     121.351882
	 B(2,4,8)         =         2.077352	     119.023506
	 B(2,5,3)         =         2.109241	     120.850633
	 B(2,5,9)         =         2.090266	     119.763406
	 B(2,11,13)       =         1.997149	     114.428215
	 B(2,11,15)       =         2.209901	     126.617975
	 B(3,1,6)         =         2.055954	     117.797485
	 B(3,1,12)        =         2.079861	     119.167251
	 B(3,5,9)         =         2.083678	     119.385961
	 B(4,2,5)         =         2.055954	     117.797485
	 B(4,2,11)        =         2.079861	     119.167251
	 B(4,6,10)        =         2.083678	     119.385961
	 B(5,2,11)        =         2.147370	     123.035264
	 B(5,3,7)         =         2.087843	     119.624612
	 B(6,1,12)        =         2.147370	     123.035264
	 B(6,4,8)         =         2.087843	     119.624612
	 B(11,15,17)      =         2.141014	     122.671059
	 B(11,15,19)      =         2.115441	     121.205840
	 B(12,16,18)      =         2.141014	     122.671059
	 B(12,16,20)      =         2.115441	     121.205840
	 B(13,11,15)      =         2.076136	     118.953810
	 B(14,12,16)      =         2.076136	     118.953810
	 B(17,15,19)      =         2.026730	     116.123101
	 B(18,16,20)      =         2.026730	     116.123101
	 D(1,3,5,2)       =         0.000000	       0.000000
	 D(1,3,5,9)       =         3.141593	     180.000000
	 D(1,6,4,2)       =         0.000000	       0.000000
	 D(1,6,4,8)       =         3.141593	     180.000000
	 D(1,12,16,18)    =         0.000000	       0.000000
	 D(1,12,16,20)    =         3.141593	     180.000000
	 D(2,4,6,10)      =         3.141593	     180.000000
	 D(2,5,3,7)       =         3.141593	     180.000000
	 D(2,11,15,17)    =         0.000000	       0.000000
	 D(2,11,15,19)    =         3.141593	     180.000000
	 D(3,1,6,4)       =         0.000000	       0.000000
	 D(3,1,6,10)      =         3.141593	     180.000000
	 D(3,1,12,14)     =         0.000000	       0.000000
	 D(3,1,12,16)     =         3.141593	     180.000000
	 D(3,5,2,4)       =         0.000000	       0.000000
	 D(3,5,2,11)      =         3.141593	     180.000000
	 D(4,2,5,9)       =         3.141593	     180.000000
	 D(4,2,11,13)     =        -0.000000	      -0.000000
	 D(4,2,11,15)     =         3.141593	     180.000000
	 D(4,6,1,12)      =         3.141593	     180.000000
	 D(5,2,4,6)       =         0.000000	       0.000000
	 D(5,2,4,8)       =         3.141593	     180.000000
	 D(5,2,11,13)     =         3.141593	     180.000000
	 D(5,2,11,15)     =         0.000000	       0.000000
	 D(5,3,1,6)       =         0.000000	       0.000000
	 D(5,3,1,12)      =         3.141593	     180.000000
	 D(6,1,3,7)       =         3.141593	     180.000000
	 D(6,1,12,14)     =         3.141593	     180.000000
	 D(6,1,12,16)     =         0.000000	       0.000000
	 D(6,4,2,11)      =         3.141593	     180.000000
	 D(7,3,1,12)      =         0.000000	       0.000000
	 D(7,3,5,9)       =         0.000000	       0.000000
	 D(8,4,2,11)      =         0.000000	       0.000000
	 D(8,4,6,10)      =         0.000000	       0.000000
	 D(9,5,2,11)      =         0.000000	       0.000000
	 D(10,6,1,12)     =         0.000000	       0.000000
	 D(13,11,15,17)   =         3.141593	     180.000000
	 D(13,11,15,19)   =         0.000000	       0.000000
	 D(14,12,16,18)   =         3.141593	     180.000000
	 D(14,12,16,20)   =         0.000000	       0.000000

	Current energy   :      -382.3082607119

	Energy change for the previous step:
		Projected    :        -0.0000019208
		Actual       :        -0.0000007724

	Performing BFGS update.
	Previous computed or guess Hessian on step 1.
	Steps to be used in Hessian update: 2 1
	Taking RFO optimization step.
	Going to follow RFO solution 1.
	Using RFO vector 1.
	Norm of target step-size    0.00054
	Projected energy change by RFO approximation:        -0.0000000762

	Back-transformation to cartesian coordinates...
	Successfully converged to displaced geometry.

	--- Internal Coordinate Step in ANG or DEG, aJ/ANG or AJ/DEG ---
	 ---------------------------------------------------------------------------
	   Coordinate                Previous        Force       Change         New 
	   ----------                --------       ------       ------       ------
	    1 R(1,3)          =      1.422446     0.000062     0.000008     1.422454
	    2 R(1,6)          =      1.421223    -0.000243    -0.000025     1.421198
	    3 R(1,12)         =      1.497486     0.000280     0.000044     1.497530
	    4 R(2,4)          =      1.422446     0.000062     0.000008     1.422454
	    5 R(2,5)          =      1.421223    -0.000243    -0.000025     1.421198
	    6 R(2,11)         =      1.497486     0.000280     0.000044     1.497530
	    7 R(3,5)          =      1.402155     0.000065     0.000012     1.402166
	    8 R(3,7)          =      1.098655    -0.000104    -0.000015     1.098640
	    9 R(4,6)          =      1.402155     0.000065     0.000012     1.402166
	   10 R(4,8)          =      1.098655    -0.000104    -0.000015     1.098640
	   11 R(5,9)          =      1.097590     0.000017    -0.000002     1.097588
	   12 R(6,10)         =      1.097590     0.000017    -0.000002     1.097588
	   13 R(11,13)        =      1.100461    -0.000152    -0.000020     1.100441
	   14 R(11,15)        =      1.344225     0.000709     0.000067     1.344291
	   15 R(12,14)        =      1.100461    -0.000152    -0.000020     1.100441
	   16 R(12,16)        =      1.344225     0.000709     0.000067     1.344291
	   17 R(15,17)        =      1.096007    -0.000053    -0.000009     1.095998
	   18 R(15,19)        =      1.096255    -0.000171    -0.000020     1.096235
	   19 R(16,18)        =      1.096007    -0.000053    -0.000009     1.095998
	   20 R(16,20)        =      1.096255    -0.000171    -0.000020     1.096235
	   21 B(1,3,5)        =    121.351882     0.000001     0.004486   121.356368
	   22 B(1,3,7)        =    119.023506     0.000000     0.001354   119.024859
	   23 B(1,6,4)        =    120.850633    -0.000000    -0.000439   120.850194
	   24 B(1,6,10)       =    119.763406    -0.000000     0.000727   119.764133
	   25 B(1,12,14)      =    114.428215     0.000002     0.007141   114.435356
	   26 B(1,12,16)      =    126.617975    -0.000001    -0.005907   126.612067
	   27 B(2,4,6)        =    121.351882     0.000001     0.004486   121.356368
	   28 B(2,4,8)        =    119.023506     0.000000     0.001354   119.024859
	   29 B(2,5,3)        =    120.850633    -0.000000    -0.000439   120.850194
	   30 B(2,5,9)        =    119.763406    -0.000000     0.000727   119.764133
	   31 B(2,11,13)      =    114.428215     0.000002     0.007141   114.435356
	   32 B(2,11,15)      =    126.617975    -0.000001    -0.005907   126.612067
	   33 B(3,1,6)        =    117.797485    -0.000001    -0.004048   117.793438
	   34 B(3,1,12)       =    119.167251     0.000001     0.003755   119.171007
	   35 B(3,5,9)        =    119.385961     0.000000    -0.000288   119.385673
	   36 B(4,2,5)        =    117.797485    -0.000001    -0.004048   117.793438
	   37 B(4,2,11)       =    119.167251     0.000001     0.003755   119.171007
	   38 B(4,6,10)       =    119.385961     0.000000    -0.000288   119.385673
	   39 B(5,2,11)       =    123.035264    -0.000000     0.000292   123.035556
	   40 B(5,3,7)        =    119.624612    -0.000002    -0.005840   119.618773
	   41 B(6,1,12)       =    123.035264    -0.000000     0.000292   123.035556
	   42 B(6,4,8)        =    119.624612    -0.000002    -0.005840   119.618773
	   43 B(11,15,17)     =    122.671059    -0.000002    -0.010378   122.660681
	   44 B(11,15,19)     =    121.205840     0.000002     0.010169   121.216009
	   45 B(12,16,18)     =    122.671059    -0.000002    -0.010378   122.660681
	   46 B(12,16,20)     =    121.205840     0.000002     0.010169   121.216009
	   47 B(13,11,15)     =    118.953810    -0.000000    -0.001234   118.952577
	   48 B(14,12,16)     =    118.953810    -0.000000    -0.001234   118.952577
	   49 B(17,15,19)     =    116.123101    -0.000000     0.000209   116.123310
	   50 B(18,16,20)     =    116.123101    -0.000000     0.000209   116.123310
	   51 D(1,3,5,2)      =      0.000000    -0.000000     0.000000     0.000000
	   52 D(1,3,5,9)      =    180.000000     0.000000     0.000000   180.000000
	   53 D(1,6,4,2)      =      0.000000     0.000000     0.000000     0.000000
	   54 D(1,6,4,8)      =    180.000000    -0.000000     0.000000   180.000000
	   55 D(1,12,16,18)   =      0.000000     0.000000     0.000000     0.000000
	   56 D(1,12,16,20)   =    180.000000    -0.000000     0.000000   180.000000
	   57 D(2,4,6,10)     =    180.000000     0.000000     0.000000   180.000000
	   58 D(2,5,3,7)      =    180.000000    -0.000000     0.000000   180.000000
	   59 D(2,11,15,17)   =      0.000000    -0.000000     0.000000     0.000000
	   60 D(2,11,15,19)   =    180.000000     0.000000     0.000000   180.000000
	   61 D(3,1,6,4)      =      0.000000    -0.000000     0.000000     0.000000
	   62 D(3,1,6,10)     =    180.000000    -0.000000     0.000000   180.000000
	   63 D(3,1,12,14)    =      0.000000     0.000000     0.000000     0.000000
	   64 D(3,1,12,16)    =    180.000000    -0.000000     0.000000   180.000000
	   65 D(3,5,2,4)      =      0.000000     0.000000     0.000000     0.000000
	   66 D(3,5,2,11)     =    180.000000     0.000000     0.000000   180.000000
	   67 D(4,2,5,9)      =    180.000000    -0.000000     0.000000   180.000000
	   68 D(4,2,11,13)    =      0.000000    -0.000000     0.000000     0.000000
	   69 D(4,2,11,15)    =    180.000000    -0.000000     0.000000   180.000000
	   70 D(4,6,1,12)     =    180.000000    -0.000000     0.000000   180.000000
	   71 D(5,2,4,6)      =      0.000000    -0.000000     0.000000     0.000000
	   72 D(5,2,4,8)      =    180.000000    -0.000000     0.000000   180.000000
	   73 D(5,2,11,13)    =    180.000000     0.000000     0.000000   180.000000
	   74 D(5,2,11,15)    =      0.000000     0.000000     0.000000     0.000000
	   75 D(5,3,1,6)      =      0.000000     0.000000     0.000000     0.000000
	   76 D(5,3,1,12)     =    180.000000     0.000000     0.000000   180.000000
	   77 D(6,1,3,7)      =    180.000000    -0.000000     0.000000   180.000000
	   78 D(6,1,12,14)    =    180.000000     0.000000     0.000000   180.000000
	   79 D(6,1,12,16)    =      0.000000    -0.000000     0.000000     0.000000
	   80 D(6,4,2,11)     =    180.000000    -0.000000     0.000000   180.000000
	   81 D(7,3,1,12)     =      0.000000    -0.000000     0.000000     0.000000
	   82 D(7,3,5,9)      =      0.000000     0.000000     0.000000     0.000000
	   83 D(8,4,2,11)     =      0.000000     0.000000     0.000000     0.000000
	   84 D(8,4,6,10)     =      0.000000    -0.000000     0.000000     0.000000
	   85 D(9,5,2,11)     =      0.000000    -0.000000     0.000000     0.000000
	   86 D(10,6,1,12)    =      0.000000    -0.000000     0.000000     0.000000
	   87 D(13,11,15,17)  =    180.000000    -0.000000     0.000000   180.000000
	   88 D(13,11,15,19)  =      0.000000     0.000000     0.000000     0.000000
	   89 D(14,12,16,18)  =    180.000000     0.000000     0.000000   180.000000
	   90 D(14,12,16,20)  =      0.000000    -0.000000     0.000000     0.000000
	 ---------------------------------------------------------------------------
	Successfully symmetrized geometry.

  ==> Convergence Check <==

  Measures of convergence in internal coordinates in au.
  Criteria marked as inactive (o), active & met (*), and active & unmet ( ).
  ---------------------------------------------------------------------------------------------
   Step     Total Energy     Delta E     MAX Force     RMS Force      MAX Disp      RMS Disp   
  ---------------------------------------------------------------------------------------------
    Convergence Criteria    1.00e-06 *    3.00e-04 *             o    1.20e-03 *             o
  ---------------------------------------------------------------------------------------------
      3    -382.30826071   -7.72e-07 *    8.60e-05 *    1.79e-05 o    1.81e-04 *    5.72e-05 o  ~
  ---------------------------------------------------------------------------------------------


  **** Optimization is complete! (in 3 steps) ****

  ==> Optimization Summary <==

  Measures of convergence in internal coordinates in au.
  --------------------------------------------------------------------------------------------------------------- ~
   Step         Total Energy             Delta E       MAX Force       RMS Force        MAX Disp        RMS Disp  ~
  --------------------------------------------------------------------------------------------------------------- ~
      1    -382.308235329169   -382.308235329169      0.00077259      0.00033475      0.00481522      0.00162644  ~
      2    -382.308259939498     -0.000024610328      0.00026892      0.00007633      0.00125045      0.00032743  ~
      3    -382.308260711861     -0.000000772363      0.00008600      0.00001786      0.00018113      0.00005724  ~
  --------------------------------------------------------------------------------------------------------------- ~

	Writing optimization data to binary file.
	Final energy is   -382.3082607118610
	Final (previous) structure:
	Cartesian Geometry (in Angstrom)
	    C    -1.4172213179   0.2285177899   0.0000000000
	    C     1.4172213179  -0.2285177899   0.0000000000
	    C    -0.4952247200   1.3116957895   0.0000000000
	    C     0.4952247200  -1.3116957895   0.0000000000
	    C     0.8894657651   1.0910838237   0.0000000000
	    C    -0.8894657651  -1.0910838237   0.0000000000
	    H    -0.8812782525   2.3402894319   0.0000000000
	    H     0.8812782525  -2.3402894319   0.0000000000
	    H     1.5718073218   1.9508012759   0.0000000000
	    H    -1.5718073218  -1.9508012759   0.0000000000
	    C     2.8859992285  -0.5203305012   0.0000000000
	    C    -2.8859992285   0.5203305012   0.0000000000
	    H     3.1371254058  -1.5917546358   0.0000000000
	    H    -3.1371254058   1.5917546358   0.0000000000
	    C     3.8826735100   0.3816562732   0.0000000000
	    C    -3.8826735100  -0.3816562732   0.0000000000
	    H     3.7022720896   1.4627144973   0.0000000000
	    H    -3.7022720896  -1.4627144973   0.0000000000
	    H     4.9329701996   0.0675674587   0.0000000000
	    H    -4.9329701996  -0.0675674587   0.0000000000
	Saving final (previous) structure.
			--------------------------
			 OPTKING Finished Execution 
			--------------------------

    Final optimized geometry and variables:
    Molecular point group: c2h
    Full point group: C2h

    Geometry (in Angstrom), charge = 0, multiplicity = 1:

    C           -1.417221323436     0.228517790833     0.000000000000
    C            1.417221323436    -0.228517790833     0.000000000000
    C           -0.495224721905     1.311695794657     0.000000000000
    C            0.495224721905    -1.311695794657     0.000000000000
    C            0.889465768600     1.091083828026     0.000000000000
    C           -0.889465768600    -1.091083828026     0.000000000000
    H           -0.881278255919     2.340289441133     0.000000000000
    H            0.881278255919    -2.340289441133     0.000000000000
    H            1.571807327955     1.950801283552     0.000000000000
    H           -1.571807327955    -1.950801283552     0.000000000000
    C            2.885999239800    -0.520330503219     0.000000000000
    C           -2.885999239800     0.520330503219     0.000000000000
    H            3.137125418106    -1.591754642049     0.000000000000
    H           -3.137125418106     1.591754642049    -0.000000000000
    C            3.882673525228     0.381656274736     0.000000000000
    C           -3.882673525228    -0.381656274736     0.000000000000
    H            3.702272104151     1.462714502999    -0.000000000000
    H           -3.702272104151    -1.462714502999     0.000000000000
    H            4.932970219038     0.067567459002     0.000000000000
    H           -4.932970219038    -0.067567459002     0.000000000000

	Removing binary optimization data file.
	Cleaning optimization helper files.

    Psi4 stopped on: Saturday, 04 May 2019 12:16AM
    Psi4 wall time for execution: 0:00:59.09

*** Psi4 exiting successfully. Buy a developer a beer!
