
    -----------------------------------------------------------------------
          Psi4: An Open-Source Ab Initio Electronic Structure Package
                               Psi4 1.3.1 release

                         Git: Rev {HEAD} 2ce1c29 


    R. M. Parrish, L. A. Burns, D. G. A. Smith, A. C. Simmonett,
    A. E. DePrince III, E. G. Hohenstein, U. Bozkaya, A. Yu. Sokolov,
    R. Di Remigio, R. M. Richard, J. F. Gonthier, A. M. James,
    H. R. McAlexander, A. Kumar, M. Saitow, X. Wang, B. P. Pritchard,
    P. Verma, H. F. Schaefer III, K. Patkowski, R. A. King, E. F. Valeev,
    F. A. Evangelista, J. M. Turney, T. D. Crawford, and C. D. Sherrill,
    J. Chem. Theory Comput. 13(7) pp 3185--3197 (2017).
    (doi: 10.1021/acs.jctc.7b00174)


                         Additional Contributions by
    P. Kraus, H. Kruse, M. H. Lechner, M. C. Schieber, R. A. Shaw,
    A. Alenaizan, R. Galvelis, Z. L. Glick, S. Lehtola, and J. P. Misiewicz

    -----------------------------------------------------------------------


    Psi4 started on: Saturday, 07 March 2020 11:32PM

    Process ID: 1136774
    Host:       osmium
    PSIDATADIR: /home/eric/.pyenv/versions/miniconda3-4.3.30/envs/psi4-1.3.1/share/psi4
    Memory:     500.0 MiB
    Threads:    1
    
  ==> Input File <==

--------------------------------------------------------------------------
molecule dvb {
    0 1
    C    -1.4152533224   0.2302217854   0.0000000000
    C     1.4152533224  -0.2302217854   0.0000000000
    C    -0.4951331558   1.3144608674   0.0000000000
    C     0.4951331558  -1.3144608674   0.0000000000
    C     0.8894090436   1.0909493743   0.0000000000
    C    -0.8894090436  -1.0909493743   0.0000000000
    H    -0.8795511985   2.3437343748   0.0000000000
    H     0.8795511985  -2.3437343748   0.0000000000
    H     1.5779041557   1.9450061275   0.0000000000
    H    -1.5779041557  -1.9450061275   0.0000000000
    C     2.8845844962  -0.5210893778   0.0000000000
    C    -2.8845844962   0.5210893778   0.0000000000
    H     3.1403356810  -1.5919605685   0.0000000000
    H    -3.1403356810   1.5919605685   0.0000000000
    C     3.8800428103   0.3822535424   0.0000000000
    C    -3.8800428103  -0.3822535424   0.0000000000
    H     3.6946765858   1.4624389570   0.0000000000
    H    -3.6946765858  -1.4624389570   0.0000000000
    H     4.9316453546   0.0711049543   0.0000000000
    H    -4.9316453546  -0.0711049543   0.0000000000
}

set {
    basis sto-3g
    fd_project true
}

frequencies('scf', dertype='gradient')
--------------------------------------------------------------------------
gradient() will perform analytic gradient computation.

*** tstart() called on osmium
*** at Sat Mar  7 23:32:49 2020

   => Loading Basis Set <=

    Name: STO-3G
    Role: ORBITAL
    Keyword: BASIS
    atoms 1-6, 11-12, 15-16  entry C          line    61 file /home/eric/.pyenv/versions/miniconda3-4.3.30/envs/psi4-1.3.1/share/psi4/basis/sto-3g.gbs 
    atoms 7-10, 13-14, 17-20 entry H          line    19 file /home/eric/.pyenv/versions/miniconda3-4.3.30/envs/psi4-1.3.1/share/psi4/basis/sto-3g.gbs 


         ---------------------------------------------------------
                                   SCF
               by Justin Turney, Rob Parrish, Andy Simmonett
                          and Daniel G. A. Smith
                              RHF Reference
                        1 Threads,    500 MiB Core
         ---------------------------------------------------------

  ==> Geometry <==

    Molecular point group: c2h
    Full point group: C2h

    Geometry (in Angstrom), charge = 0, multiplicity = 1:

       Center              X                  Y                   Z               Mass       
    ------------   -----------------  -----------------  -----------------  -----------------
         C           -1.415253322400     0.230221785400     0.000000000000    12.000000000000
         C            1.415253322400    -0.230221785400     0.000000000000    12.000000000000
         C           -0.495133155800     1.314460867400     0.000000000000    12.000000000000
         C            0.495133155800    -1.314460867400     0.000000000000    12.000000000000
         C            0.889409043600     1.090949374300     0.000000000000    12.000000000000
         C           -0.889409043600    -1.090949374300     0.000000000000    12.000000000000
         H           -0.879551198500     2.343734374800     0.000000000000     1.007825032230
         H            0.879551198500    -2.343734374800     0.000000000000     1.007825032230
         H            1.577904155700     1.945006127500     0.000000000000     1.007825032230
         H           -1.577904155700    -1.945006127500     0.000000000000     1.007825032230
         C            2.884584496200    -0.521089377800     0.000000000000    12.000000000000
         C           -2.884584496200     0.521089377800     0.000000000000    12.000000000000
         H            3.140335681000    -1.591960568500     0.000000000000     1.007825032230
         H           -3.140335681000     1.591960568500     0.000000000000     1.007825032230
         C            3.880042810300     0.382253542400     0.000000000000    12.000000000000
         C           -3.880042810300    -0.382253542400     0.000000000000    12.000000000000
         H            3.694676585800     1.462438957000     0.000000000000     1.007825032230
         H           -3.694676585800    -1.462438957000     0.000000000000     1.007825032230
         H            4.931645354600     0.071104954300     0.000000000000     1.007825032230
         H           -4.931645354600    -0.071104954300     0.000000000000     1.007825032230

  Running in c2h symmetry.

  Rotational constants: A =      0.15403  B =      0.02287  C =      0.01992 [cm^-1]
  Rotational constants: A =   4617.84335  B =    685.76183  C =    597.09209 [MHz]
  Nuclear repulsion =  445.936979867057005

  Charge       = 0
  Multiplicity = 1
  Electrons    = 70
  Nalpha       = 35
  Nbeta        = 35

  ==> Algorithm <==

  SCF Algorithm Type is DF.
  DIIS enabled.
  MOM disabled.
  Fractional occupation disabled.
  Guess Type is SAD.
  Energy threshold   = 1.00e-08
  Density threshold  = 1.00e-08
  Integral threshold = 0.00e+00

  ==> Primary Basis <==

  Basis Set: STO-3G
    Blend: STO-3G
    Number of shells: 40
    Number of basis function: 60
    Number of Cartesian functions: 60
    Spherical Harmonics?: true
    Max angular momentum: 1

   => Loading Basis Set <=

    Name: (STO-3G AUX)
    Role: JKFIT
    Keyword: DF_BASIS_SCF
    atoms 1-6, 11-12, 15-16  entry C          line   203 file /home/eric/.pyenv/versions/miniconda3-4.3.30/envs/psi4-1.3.1/share/psi4/basis/def2-svp-jkfit.gbs 
    atoms 7-10, 13-14, 17-20 entry H          line    23 file /home/eric/.pyenv/versions/miniconda3-4.3.30/envs/psi4-1.3.1/share/psi4/basis/def2-svp-jkfit.gbs 

  ==> Pre-Iterations <==

   -------------------------------------------------------
    Irrep   Nso     Nmo     Nalpha   Nbeta   Ndocc  Nsocc
   -------------------------------------------------------
     Ag        25      25       0       0       0       0
     Bg         5       5       0       0       0       0
     Au         5       5       0       0       0       0
     Bu        25      25       0       0       0       0
   -------------------------------------------------------
    Total      60      60      35      35      35       0
   -------------------------------------------------------

  ==> Integral Setup <==

  DFHelper Memory: AOs need 0.031 GiB; user supplied 0.366 GiB. Using in-core AOs.

  ==> MemDFJK: Density-Fitted J/K Matrices <==

    J tasked:                   Yes
    K tasked:                   Yes
    wK tasked:                   No
    OpenMP threads:               1
    Memory [MiB]:               375
    Algorithm:                 Core
    Schwarz Cutoff:           1E-12
    Mask sparsity (%):       4.1111
    Fitting Condition:        1E-10

   => Auxiliary Basis Set <=

  Basis Set: (STO-3G AUX)
    Blend: DEF2-SVP-JKFIT
    Number of shells: 310
    Number of basis function: 930
    Number of Cartesian functions: 1090
    Spherical Harmonics?: true
    Max angular momentum: 4

  Minimum eigenvalue in the overlap matrix is 1.8147106803E-01.
  Using Symmetric Orthogonalization.

  SCF Guess: Superposition of Atomic Densities via on-the-fly atomic UHF.

  ==> Iterations <==

                           Total Energy        Delta E     RMS |[F,P]|

   @DF-RHF iter SAD:  -372.47056553675020   -3.72471e+02   0.00000e+00 
   @DF-RHF iter   1:  -379.75143611479035   -7.28087e+00   3.88904e-03 DIIS
   @DF-RHF iter   2:  -379.76852818134381   -1.70921e-02   1.09122e-03 DIIS
   @DF-RHF iter   3:  -379.76985290610929   -1.32472e-03   4.96086e-04 DIIS
   @DF-RHF iter   4:  -379.77009942203381   -2.46516e-04   7.34173e-05 DIIS
   @DF-RHF iter   5:  -379.77011073650391   -1.13145e-05   1.71715e-05 DIIS
   @DF-RHF iter   6:  -379.77011147767382   -7.41170e-07   4.55112e-06 DIIS
   @DF-RHF iter   7:  -379.77011151282181   -3.51480e-08   8.19717e-07 DIIS
   @DF-RHF iter   8:  -379.77011151393856   -1.11675e-09   2.91674e-07 DIIS
   @DF-RHF iter   9:  -379.77011151405350   -1.14937e-10   9.94172e-08 DIIS
   @DF-RHF iter  10:  -379.77011151407146   -1.79625e-11   1.86867e-08 DIIS
   @DF-RHF iter  11:  -379.77011151407282   -1.36424e-12   4.99327e-09 DIIS
  Energy and wave function converged.


  ==> Post-Iterations <==

    Orbital Energies [Eh]
    ---------------------

    Doubly Occupied:                                                      

       1Bu   -11.040746     1Ag   -11.040684     2Bu   -11.031748  
       2Ag   -11.031747     3Bu   -11.029111     3Ag   -11.028980  
       4Bu   -11.028767     4Ag   -11.028743     5Bu   -11.017634  
       5Ag   -11.017633     6Ag    -1.090317     6Bu    -1.020272  
       7Ag    -0.974940     7Bu    -0.950318     8Bu    -0.909651  
       8Ag    -0.799896     9Ag    -0.762837     9Bu    -0.727642  
      10Ag    -0.696780    11Ag    -0.628047    10Bu    -0.605675  
      11Bu    -0.572947    12Bu    -0.553601    12Ag    -0.553162  
      13Bu    -0.525353    14Bu    -0.496696    13Ag    -0.492528  
       1Au    -0.463721    15Bu    -0.446434    14Ag    -0.421659  
      15Ag    -0.415628     1Bg    -0.376953     2Au    -0.315119  
       2Bg    -0.278351     3Bg    -0.222179  

    Virtual:                                                              

       3Au     0.199016     4Au     0.268538     4Bg     0.308849  
       5Au     0.397102     5Bg     0.521790    16Ag     0.565048  
      16Bu     0.575601    17Ag     0.621585    17Bu     0.625837  
      18Ag     0.658247    18Bu     0.659407    19Bu     0.677207  
      19Ag     0.694199    20Bu     0.706717    20Ag     0.740152  
      21Ag     0.802255    21Bu     0.825687    22Ag     0.860640  
      22Bu     0.887794    23Bu     0.921040    23Ag     0.939977  
      24Ag     0.990323    24Bu     1.027295    25Ag     1.107747  
      25Bu     1.124962  

    Final Occupation by Irrep:
             Ag    Bg    Au    Bu 
    DOCC [    15,    3,    2,   15 ]

  @DF-RHF Final Energy:  -379.77011151407282

   => Energetics <=

    Nuclear Repulsion Energy =            445.9369798670570049
    One-Electron Energy =               -1400.2211867666192120
    Two-Electron Energy =                 574.5140953854893269
    Total Energy =                       -379.7701115140728234

Computation Completed


Properties will be evaluated at   0.000000,   0.000000,   0.000000 [a0]

Properties computed using the SCF density matrix

  Nuclear Dipole Moment: [e a0]
     X:     0.0000      Y:     0.0000      Z:     0.0000

  Electronic Dipole Moment: [e a0]
     X:     0.0000      Y:     0.0000      Z:     0.0000

  Dipole Moment: [e a0]
     X:     0.0000      Y:     0.0000      Z:     0.0000     Total:     0.0000

  Dipole Moment: [D]
     X:     0.0000      Y:     0.0000      Z:     0.0000     Total:     0.0000


*** tstop() called on osmium at Sat Mar  7 23:32:51 2020
Module time:
	user time   =       2.19 seconds =       0.04 minutes
	system time =       0.06 seconds =       0.00 minutes
	total time  =          2 seconds =       0.03 minutes
Total time:
	user time   =       2.19 seconds =       0.04 minutes
	system time =       0.06 seconds =       0.00 minutes
	total time  =          2 seconds =       0.03 minutes

*** tstart() called on osmium
*** at Sat Mar  7 23:32:51 2020


         ------------------------------------------------------------
                                   SCF GRAD                          
                          Rob Parrish, Justin Turney,                
                       Andy Simmonett, and Alex Sokolov              
         ------------------------------------------------------------

  ==> Geometry <==

    Molecular point group: c2h
    Full point group: C2h

    Geometry (in Angstrom), charge = 0, multiplicity = 1:

       Center              X                  Y                   Z               Mass       
    ------------   -----------------  -----------------  -----------------  -----------------
         C           -1.415253322400     0.230221785400     0.000000000000    12.000000000000
         C            1.415253322400    -0.230221785400     0.000000000000    12.000000000000
         C           -0.495133155800     1.314460867400     0.000000000000    12.000000000000
         C            0.495133155800    -1.314460867400     0.000000000000    12.000000000000
         C            0.889409043600     1.090949374300     0.000000000000    12.000000000000
         C           -0.889409043600    -1.090949374300     0.000000000000    12.000000000000
         H           -0.879551198500     2.343734374800     0.000000000000     1.007825032230
         H            0.879551198500    -2.343734374800     0.000000000000     1.007825032230
         H            1.577904155700     1.945006127500     0.000000000000     1.007825032230
         H           -1.577904155700    -1.945006127500     0.000000000000     1.007825032230
         C            2.884584496200    -0.521089377800     0.000000000000    12.000000000000
         C           -2.884584496200     0.521089377800     0.000000000000    12.000000000000
         H            3.140335681000    -1.591960568500     0.000000000000     1.007825032230
         H           -3.140335681000     1.591960568500     0.000000000000     1.007825032230
         C            3.880042810300     0.382253542400     0.000000000000    12.000000000000
         C           -3.880042810300    -0.382253542400     0.000000000000    12.000000000000
         H            3.694676585800     1.462438957000     0.000000000000     1.007825032230
         H           -3.694676585800    -1.462438957000     0.000000000000     1.007825032230
         H            4.931645354600     0.071104954300     0.000000000000     1.007825032230
         H           -4.931645354600    -0.071104954300     0.000000000000     1.007825032230

  Nuclear repulsion =  445.936979867057005

  ==> Basis Set <==

  Basis Set: STO-3G
    Blend: STO-3G
    Number of shells: 40
    Number of basis function: 60
    Number of Cartesian functions: 60
    Spherical Harmonics?: true
    Max angular momentum: 1

  ==> DFJKGrad: Density-Fitted SCF Gradients <==

    Gradient:                    1
    J tasked:                  Yes
    K tasked:                  Yes
    wK tasked:                  No
    OpenMP threads:              1
    Integrals threads:           1
    Memory [MiB]:              375
    Schwarz Cutoff:          0E+00
    Fitting Condition:       1E-10

   => Auxiliary Basis Set <=

  Basis Set: (STO-3G AUX)
    Blend: DEF2-SVP-JKFIT
    Number of shells: 310
    Number of basis function: 930
    Number of Cartesian functions: 1090
    Spherical Harmonics?: true
    Max angular momentum: 4


  -Total Gradient:
     Atom            X                  Y                   Z
    ------   -----------------  -----------------  -----------------
       1       -0.024735687465     0.003903907535     0.000000000000
       2        0.024735687465    -0.003903907535     0.000000000000
       3       -0.002952882256     0.014282188916     0.000000000000
       4        0.002952882256    -0.014282188916     0.000000000000
       5        0.005586680786     0.013581256167     0.000000000000
       6       -0.005586680786    -0.013581256167     0.000000000000
       7       -0.005023848985     0.013071794367     0.000000000000
       8        0.005023848985    -0.013071794367     0.000000000000
       9        0.009852697239     0.009824442972     0.000000000000
      10       -0.009852697239    -0.009824442972     0.000000000000
      11       -0.032893251057    -0.017480388124     0.000000000000
      12        0.032893251057     0.017480388124     0.000000000000
      13        0.003237900541    -0.014105519756     0.000000000000
      14       -0.003237900541     0.014105519756     0.000000000000
      15        0.023997672423     0.021039107963     0.000000000000
      16       -0.023997672423    -0.021039107963     0.000000000000
      17       -0.003373054176     0.013514001800     0.000000000000
      18        0.003373054176    -0.013514001800     0.000000000000
      19        0.013258896514    -0.003904067065     0.000000000000
      20       -0.013258896514     0.003904067065     0.000000000000


*** tstop() called on osmium at Sat Mar  7 23:32:54 2020
Module time:
	user time   =       2.58 seconds =       0.04 minutes
	system time =       0.01 seconds =       0.00 minutes
	total time  =          3 seconds =       0.05 minutes
Total time:
	user time   =       4.78 seconds =       0.08 minutes
	system time =       0.07 seconds =       0.00 minutes
	total time  =          5 seconds =       0.08 minutes

  Based on options and gradient (rms=1.22E-02), recommend projecting translations and not projecting rotations.
hessian() will perform frequency computation by finite difference of analytic gradients.

         ----------------------------------------------------------
                                   FINDIF
                     R. A. King and Jonathon Misiewicz
         ---------------------------------------------------------

  Using finite-differences of gradients to determine vibrational frequencies and 
  normal modes.  Resulting frequencies are only valid at stationary points.
    Generating geometries for use with 3-point formula.
    Displacement size will be 5.00e-03.
    Number of atoms is 20.
    Number of irreps is 4.
    Number of SALCs is 54.
    Translations projected? 1. Rotations projected? 1.
    Index of SALCs per irrep:
     1 :  0  1  2  3  4  5  6  7  8  9  10  11  12  13  14  15  16  17  18 
     2 :  19  20  21  22  23  24  25  26 
     3 :  27  28  29  30  31  32  33  34  35 
     4 :  36  37  38  39  40  41  42  43  44  45  46  47  48  49  50  51  52  53 
    Number of SALCs per irrep:
     Irrep 1: 19
     Irrep 2: 8
     Irrep 3: 9
     Irrep 4: 18
    Number of geometries (including reference) is 74.
    Number of displacements per irrep:
      Irrep 1: 38
      Irrep 2: 8
      Irrep 3: 9
      Irrep 4: 18

  //>>>>>>>>>>>>>>>>>>>>>>>>>>>>>>>>>>>//
  //    Loading displacement 1 of 74   //
  //<<<<<<<<<<<<<<<<<<<<<<<<<<<<<<<<<<<//
gradient() will perform analytic gradient computation.

*** tstart() called on osmium
*** at Sat Mar  7 23:32:54 2020

   => Loading Basis Set <=

    Name: STO-3G
    Role: ORBITAL
    Keyword: BASIS
    atoms 1-6, 11-12, 15-16  entry C          line    61 file /home/eric/.pyenv/versions/miniconda3-4.3.30/envs/psi4-1.3.1/share/psi4/basis/sto-3g.gbs 
    atoms 7-10, 13-14, 17-20 entry H          line    19 file /home/eric/.pyenv/versions/miniconda3-4.3.30/envs/psi4-1.3.1/share/psi4/basis/sto-3g.gbs 


         ---------------------------------------------------------
                                   SCF
               by Justin Turney, Rob Parrish, Andy Simmonett
                          and Daniel G. A. Smith
                              RHF Reference
                        1 Threads,    500 MiB Core
         ---------------------------------------------------------

  ==> Geometry <==

    Molecular point group: c2h
    Full point group: C2h

    Geometry (in Angstrom), charge = 0, multiplicity = 1:

       Center              X                  Y                   Z               Mass       
    ------------   -----------------  -----------------  -----------------  -----------------
         C           -1.415253322400     0.230221785400     0.000000000000    12.000000000000
         C            1.415253322400    -0.230221785400     0.000000000000    12.000000000000
         C           -0.495133155800     1.314460867400     0.000000000000    12.000000000000
         C            0.495133155800    -1.314460867400     0.000000000000    12.000000000000
         C            0.889409043600     1.090949374300     0.000000000000    12.000000000000
         C           -0.889409043600    -1.090949374300     0.000000000000    12.000000000000
         H           -0.879551198500     2.343734374800     0.000000000000     1.007825032230
         H            0.879551198500    -2.343734374800     0.000000000000     1.007825032230
         H            1.577904155700     1.945006127500     0.000000000000     1.007825032230
         H           -1.577904155700    -1.945006127500     0.000000000000     1.007825032230
         C            2.884584496200    -0.521089377800     0.000000000000    12.000000000000
         C           -2.884584496200     0.521089377800     0.000000000000    12.000000000000
         H            3.140335681000    -1.591960568500     0.000000000000     1.007825032230
         H           -3.140335681000     1.591960568500     0.000000000000     1.007825032230
         C            3.880042810300     0.382253542400     0.000000000000    12.000000000000
         C           -3.880042810300    -0.382253542400     0.000000000000    12.000000000000
         H            3.694676585800     1.462438957000     0.000000000000     1.007825032230
         H           -3.694676585800    -1.462438957000     0.000000000000     1.007825032230
         H            4.931645354600     0.071104954300     0.000000000000     1.007825032230
         H           -4.931645354600    -0.071104954300     0.000000000000     1.007825032230

  Running in c2h symmetry.

  Rotational constants: A =      0.15403  B =      0.02287  C =      0.01992 [cm^-1]
  Rotational constants: A =   4617.84335  B =    685.76183  C =    597.09209 [MHz]
  Nuclear repulsion =  445.936979867057005

  Charge       = 0
  Multiplicity = 1
  Electrons    = 70
  Nalpha       = 35
  Nbeta        = 35

  ==> Algorithm <==

  SCF Algorithm Type is DF.
  DIIS enabled.
  MOM disabled.
  Fractional occupation disabled.
  Guess Type is SAD.
  Energy threshold   = 1.00e-08
  Density threshold  = 1.00e-08
  Integral threshold = 0.00e+00

  ==> Primary Basis <==

  Basis Set: STO-3G
    Blend: STO-3G
    Number of shells: 40
    Number of basis function: 60
    Number of Cartesian functions: 60
    Spherical Harmonics?: true
    Max angular momentum: 1

   => Loading Basis Set <=

    Name: (STO-3G AUX)
    Role: JKFIT
    Keyword: DF_BASIS_SCF
    atoms 1-6, 11-12, 15-16  entry C          line   203 file /home/eric/.pyenv/versions/miniconda3-4.3.30/envs/psi4-1.3.1/share/psi4/basis/def2-svp-jkfit.gbs 
    atoms 7-10, 13-14, 17-20 entry H          line    23 file /home/eric/.pyenv/versions/miniconda3-4.3.30/envs/psi4-1.3.1/share/psi4/basis/def2-svp-jkfit.gbs 

  ==> Pre-Iterations <==

   -------------------------------------------------------
    Irrep   Nso     Nmo     Nalpha   Nbeta   Ndocc  Nsocc
   -------------------------------------------------------
     Ag        25      25       0       0       0       0
     Bg         5       5       0       0       0       0
     Au         5       5       0       0       0       0
     Bu        25      25       0       0       0       0
   -------------------------------------------------------
    Total      60      60      35      35      35       0
   -------------------------------------------------------

  ==> Integral Setup <==

  DFHelper Memory: AOs need 0.031 GiB; user supplied 0.366 GiB. Using in-core AOs.

  ==> MemDFJK: Density-Fitted J/K Matrices <==

    J tasked:                   Yes
    K tasked:                   Yes
    wK tasked:                   No
    OpenMP threads:               1
    Memory [MiB]:               375
    Algorithm:                 Core
    Schwarz Cutoff:           1E-12
    Mask sparsity (%):       4.1111
    Fitting Condition:        1E-10

   => Auxiliary Basis Set <=

  Basis Set: (STO-3G AUX)
    Blend: DEF2-SVP-JKFIT
    Number of shells: 310
    Number of basis function: 930
    Number of Cartesian functions: 1090
    Spherical Harmonics?: true
    Max angular momentum: 4

  Minimum eigenvalue in the overlap matrix is 1.8147106803E-01.
  Using Symmetric Orthogonalization.

  SCF Guess: Superposition of Atomic Densities via on-the-fly atomic UHF.

  ==> Iterations <==

                           Total Energy        Delta E     RMS |[F,P]|

   @DF-RHF iter SAD:  -372.47056553816617   -3.72471e+02   0.00000e+00 
   @DF-RHF iter   1:  -379.75143611622212   -7.28087e+00   3.88904e-03 DIIS
   @DF-RHF iter   2:  -379.76852818277581   -1.70921e-02   1.09122e-03 DIIS
   @DF-RHF iter   3:  -379.76985290754124   -1.32472e-03   4.96086e-04 DIIS
   @DF-RHF iter   4:  -379.77009942346518   -2.46516e-04   7.34173e-05 DIIS
   @DF-RHF iter   5:  -379.77011073793540   -1.13145e-05   1.71715e-05 DIIS
   @DF-RHF iter   6:  -379.77011147910571   -7.41170e-07   4.55112e-06 DIIS
   @DF-RHF iter   7:  -379.77011151425341   -3.51477e-08   8.19717e-07 DIIS
   @DF-RHF iter   8:  -379.77011151537090   -1.11748e-09   2.91674e-07 DIIS
   @DF-RHF iter   9:  -379.77011151548567   -1.14767e-10   9.94172e-08 DIIS
   @DF-RHF iter  10:  -379.77011151550334   -1.76783e-11   1.86867e-08 DIIS
   @DF-RHF iter  11:  -379.77011151550403   -6.82121e-13   4.99327e-09 DIIS
  Energy and wave function converged.


  ==> Post-Iterations <==

    Orbital Energies [Eh]
    ---------------------

    Doubly Occupied:                                                      

       1Bu   -11.040746     1Ag   -11.040684     2Bu   -11.031748  
       2Ag   -11.031747     3Bu   -11.029111     3Ag   -11.028980  
       4Bu   -11.028767     4Ag   -11.028743     5Bu   -11.017634  
       5Ag   -11.017633     6Ag    -1.090317     6Bu    -1.020272  
       7Ag    -0.974940     7Bu    -0.950318     8Bu    -0.909651  
       8Ag    -0.799896     9Ag    -0.762837     9Bu    -0.727642  
      10Ag    -0.696780    11Ag    -0.628047    10Bu    -0.605675  
      11Bu    -0.572947    12Bu    -0.553601    12Ag    -0.553162  
      13Bu    -0.525353    14Bu    -0.496696    13Ag    -0.492528  
       1Au    -0.463721    15Bu    -0.446434    14Ag    -0.421659  
      15Ag    -0.415628     1Bg    -0.376953     2Au    -0.315119  
       2Bg    -0.278351     3Bg    -0.222179  

    Virtual:                                                              

       3Au     0.199016     4Au     0.268538     4Bg     0.308849  
       5Au     0.397102     5Bg     0.521790    16Ag     0.565048  
      16Bu     0.575601    17Ag     0.621585    17Bu     0.625837  
      18Ag     0.658247    18Bu     0.659407    19Bu     0.677207  
      19Ag     0.694199    20Bu     0.706717    20Ag     0.740152  
      21Ag     0.802255    21Bu     0.825687    22Ag     0.860640  
      22Bu     0.887794    23Bu     0.921040    23Ag     0.939977  
      24Ag     0.990323    24Bu     1.027295    25Ag     1.107747  
      25Bu     1.124962  

    Final Occupation by Irrep:
             Ag    Bg    Au    Bu 
    DOCC [    15,    3,    2,   15 ]

  @DF-RHF Final Energy:  -379.77011151550403

   => Energetics <=

    Nuclear Repulsion Energy =            445.9369798670570049
    One-Electron Energy =               -1400.2211867670334868
    Two-Electron Energy =                 574.5140953844723981
    Total Energy =                       -379.7701115155040270

Computation Completed


Properties will be evaluated at   0.000000,   0.000000,   0.000000 [a0]

Properties computed using the SCF density matrix

  Nuclear Dipole Moment: [e a0]
     X:     0.0000      Y:     0.0000      Z:     0.0000

  Electronic Dipole Moment: [e a0]
     X:     0.0000      Y:     0.0000      Z:     0.0000

  Dipole Moment: [e a0]
     X:     0.0000      Y:     0.0000      Z:     0.0000     Total:     0.0000

  Dipole Moment: [D]
     X:     0.0000      Y:     0.0000      Z:     0.0000     Total:     0.0000


*** tstop() called on osmium at Sat Mar  7 23:32:57 2020
Module time:
	user time   =       2.18 seconds =       0.04 minutes
	system time =       0.02 seconds =       0.00 minutes
	total time  =          3 seconds =       0.05 minutes
Total time:
	user time   =       7.18 seconds =       0.12 minutes
	system time =       0.09 seconds =       0.00 minutes
	total time  =          8 seconds =       0.13 minutes

*** tstart() called on osmium
*** at Sat Mar  7 23:32:57 2020


         ------------------------------------------------------------
                                   SCF GRAD                          
                          Rob Parrish, Justin Turney,                
                       Andy Simmonett, and Alex Sokolov              
         ------------------------------------------------------------

  ==> Geometry <==

    Molecular point group: c2h
    Full point group: C2h

    Geometry (in Angstrom), charge = 0, multiplicity = 1:

       Center              X                  Y                   Z               Mass       
    ------------   -----------------  -----------------  -----------------  -----------------
         C           -1.415253322400     0.230221785400     0.000000000000    12.000000000000
         C            1.415253322400    -0.230221785400     0.000000000000    12.000000000000
         C           -0.495133155800     1.314460867400     0.000000000000    12.000000000000
         C            0.495133155800    -1.314460867400     0.000000000000    12.000000000000
         C            0.889409043600     1.090949374300     0.000000000000    12.000000000000
         C           -0.889409043600    -1.090949374300     0.000000000000    12.000000000000
         H           -0.879551198500     2.343734374800     0.000000000000     1.007825032230
         H            0.879551198500    -2.343734374800     0.000000000000     1.007825032230
         H            1.577904155700     1.945006127500     0.000000000000     1.007825032230
         H           -1.577904155700    -1.945006127500     0.000000000000     1.007825032230
         C            2.884584496200    -0.521089377800     0.000000000000    12.000000000000
         C           -2.884584496200     0.521089377800     0.000000000000    12.000000000000
         H            3.140335681000    -1.591960568500     0.000000000000     1.007825032230
         H           -3.140335681000     1.591960568500     0.000000000000     1.007825032230
         C            3.880042810300     0.382253542400     0.000000000000    12.000000000000
         C           -3.880042810300    -0.382253542400     0.000000000000    12.000000000000
         H            3.694676585800     1.462438957000     0.000000000000     1.007825032230
         H           -3.694676585800    -1.462438957000     0.000000000000     1.007825032230
         H            4.931645354600     0.071104954300     0.000000000000     1.007825032230
         H           -4.931645354600    -0.071104954300     0.000000000000     1.007825032230

  Nuclear repulsion =  445.936979867057005

  ==> Basis Set <==

  Basis Set: STO-3G
    Blend: STO-3G
    Number of shells: 40
    Number of basis function: 60
    Number of Cartesian functions: 60
    Spherical Harmonics?: true
    Max angular momentum: 1

  ==> DFJKGrad: Density-Fitted SCF Gradients <==

    Gradient:                    1
    J tasked:                  Yes
    K tasked:                  Yes
    wK tasked:                  No
    OpenMP threads:              1
    Integrals threads:           1
    Memory [MiB]:              375
    Schwarz Cutoff:          0E+00
    Fitting Condition:       1E-10

   => Auxiliary Basis Set <=

  Basis Set: (STO-3G AUX)
    Blend: DEF2-SVP-JKFIT
    Number of shells: 310
    Number of basis function: 930
    Number of Cartesian functions: 1090
    Spherical Harmonics?: true
    Max angular momentum: 4


  -Total Gradient:
     Atom            X                  Y                   Z
    ------   -----------------  -----------------  -----------------
       1       -0.024735513893     0.003904014783     0.000000000000
       2        0.024735513893    -0.003904014783     0.000000000000
       3       -0.002952842665     0.014282165235     0.000000000000
       4        0.002952842665    -0.014282165235     0.000000000000
       5        0.005586630375     0.013581259013     0.000000000000
       6       -0.005586630375    -0.013581259013     0.000000000000
       7       -0.005023784929     0.013071642124     0.000000000000
       8        0.005023784929    -0.013071642124     0.000000000000
       9        0.009852669735     0.009824374674     0.000000000000
      10       -0.009852669735    -0.009824374674     0.000000000000
      11       -0.032893269869    -0.017480423946     0.000000000000
      12        0.032893269869     0.017480423946     0.000000000000
      13        0.003237900336    -0.014105408630     0.000000000000
      14       -0.003237900336     0.014105408630     0.000000000000
      15        0.023997641134     0.021039081587     0.000000000000
      16       -0.023997641134    -0.021039081587     0.000000000000
      17       -0.003373032739     0.013513941949     0.000000000000
      18        0.003373032739    -0.013513941949     0.000000000000
      19        0.013258848167    -0.003904043578     0.000000000000
      20       -0.013258848167     0.003904043578     0.000000000000


*** tstop() called on osmium at Sat Mar  7 23:32:59 2020
Module time:
	user time   =       2.59 seconds =       0.04 minutes
	system time =       0.02 seconds =       0.00 minutes
	total time  =          2 seconds =       0.03 minutes
Total time:
	user time   =       9.77 seconds =       0.16 minutes
	system time =       0.11 seconds =       0.00 minutes
	total time  =         10 seconds =       0.17 minutes

  //>>>>>>>>>>>>>>>>>>>>>>>>>>>>>>>>>>>//
  //    Loading displacement 2 of 74   //
  //<<<<<<<<<<<<<<<<<<<<<<<<<<<<<<<<<<<//
gradient() will perform analytic gradient computation.

*** tstart() called on osmium
*** at Sat Mar  7 23:32:59 2020

   => Loading Basis Set <=

    Name: STO-3G
    Role: ORBITAL
    Keyword: BASIS
    atoms 1-6, 11-12, 15-16  entry C          line    61 file /home/eric/.pyenv/versions/miniconda3-4.3.30/envs/psi4-1.3.1/share/psi4/basis/sto-3g.gbs 
    atoms 7-10, 13-14, 17-20 entry H          line    19 file /home/eric/.pyenv/versions/miniconda3-4.3.30/envs/psi4-1.3.1/share/psi4/basis/sto-3g.gbs 


         ---------------------------------------------------------
                                   SCF
               by Justin Turney, Rob Parrish, Andy Simmonett
                          and Daniel G. A. Smith
                              RHF Reference
                        1 Threads,    500 MiB Core
         ---------------------------------------------------------

  ==> Geometry <==

    Molecular point group: c2h
    Full point group: C2h

    Geometry (in Angstrom), charge = 0, multiplicity = 1:

       Center              X                  Y                   Z               Mass       
    ------------   -----------------  -----------------  -----------------  -----------------
         C           -1.415793005628     0.230226778935     0.000000000000    12.000000000000
         C            1.415793005628    -0.230226778935     0.000000000000    12.000000000000
         C           -0.495128517898     1.314462614412     0.000000000000    12.000000000000
         C            0.495128517898    -1.314462614412     0.000000000000    12.000000000000
         C            0.889412892871     1.090946236137     0.000000000000    12.000000000000
         C           -0.889412892871    -1.090946236137     0.000000000000    12.000000000000
         H           -0.879542928942     2.343737478180     0.000000000000     1.007825032230
         H            0.879542928942    -2.343737478180     0.000000000000     1.007825032230
         H            1.577911018398     1.945000560073     0.000000000000     1.007825032230
         H           -1.577911018398    -1.945000560073     0.000000000000     1.007825032230
         C            2.884582657605    -0.521099555676     0.000000000000    12.000000000000
         C           -2.884582657605     0.521099555676     0.000000000000    12.000000000000
         H            3.140330063977    -1.591971648760     0.000000000000     1.007825032230
         H           -3.140330063977     1.591971648760     0.000000000000     1.007825032230
         C            3.880044159031     0.382239852181     0.000000000000    12.000000000000
         C           -3.880044159031    -0.382239852181     0.000000000000    12.000000000000
         H            3.694681745823     1.462425920821     0.000000000000     1.007825032230
         H           -3.694681745823    -1.462425920821     0.000000000000     1.007825032230
         H            4.931645605484     0.071087553640     0.000000000000     1.007825032230
         H           -4.931645605484    -0.071087553640     0.000000000000     1.007825032230

  Running in c2h symmetry.

  Rotational constants: A =      0.15403  B =      0.02287  C =      0.01992 [cm^-1]
  Rotational constants: A =   4617.84215  B =    685.72769  C =    597.06619 [MHz]
  Nuclear repulsion =  445.928891554728750

  Charge       = 0
  Multiplicity = 1
  Electrons    = 70
  Nalpha       = 35
  Nbeta        = 35

  ==> Algorithm <==

  SCF Algorithm Type is DF.
  DIIS enabled.
  MOM disabled.
  Fractional occupation disabled.
  Guess Type is SAD.
  Energy threshold   = 1.00e-08
  Density threshold  = 1.00e-08
  Integral threshold = 0.00e+00

  ==> Primary Basis <==

  Basis Set: STO-3G
    Blend: STO-3G
    Number of shells: 40
    Number of basis function: 60
    Number of Cartesian functions: 60
    Spherical Harmonics?: true
    Max angular momentum: 1

   => Loading Basis Set <=

    Name: (STO-3G AUX)
    Role: JKFIT
    Keyword: DF_BASIS_SCF
    atoms 1-6, 11-12, 15-16  entry C          line   203 file /home/eric/.pyenv/versions/miniconda3-4.3.30/envs/psi4-1.3.1/share/psi4/basis/def2-svp-jkfit.gbs 
    atoms 7-10, 13-14, 17-20 entry H          line    23 file /home/eric/.pyenv/versions/miniconda3-4.3.30/envs/psi4-1.3.1/share/psi4/basis/def2-svp-jkfit.gbs 

  ==> Pre-Iterations <==

   -------------------------------------------------------
    Irrep   Nso     Nmo     Nalpha   Nbeta   Ndocc  Nsocc
   -------------------------------------------------------
     Ag        25      25       0       0       0       0
     Bg         5       5       0       0       0       0
     Au         5       5       0       0       0       0
     Bu        25      25       0       0       0       0
   -------------------------------------------------------
    Total      60      60      35      35      35       0
   -------------------------------------------------------

  ==> Integral Setup <==

  DFHelper Memory: AOs need 0.031 GiB; user supplied 0.366 GiB. Using in-core AOs.

  ==> MemDFJK: Density-Fitted J/K Matrices <==

    J tasked:                   Yes
    K tasked:                   Yes
    wK tasked:                   No
    OpenMP threads:               1
    Memory [MiB]:               375
    Algorithm:                 Core
    Schwarz Cutoff:           1E-12
    Mask sparsity (%):       4.1111
    Fitting Condition:        1E-10

   => Auxiliary Basis Set <=

  Basis Set: (STO-3G AUX)
    Blend: DEF2-SVP-JKFIT
    Number of shells: 310
    Number of basis function: 930
    Number of Cartesian functions: 1090
    Spherical Harmonics?: true
    Max angular momentum: 4

  Minimum eigenvalue in the overlap matrix is 1.8155240780E-01.
  Using Symmetric Orthogonalization.

  SCF Guess: Superposition of Atomic Densities via on-the-fly atomic UHF.

  ==> Iterations <==

                           Total Energy        Delta E     RMS |[F,P]|

   @DF-RHF iter SAD:  -372.47024095650136   -3.72470e+02   0.00000e+00 
   @DF-RHF iter   1:  -379.75137827981229   -7.28114e+00   3.88924e-03 DIIS
   @DF-RHF iter   2:  -379.76847513313663   -1.70969e-02   1.09152e-03 DIIS
   @DF-RHF iter   3:  -379.76980114480966   -1.32601e-03   4.96288e-04 DIIS
   @DF-RHF iter   4:  -379.77004799675234   -2.46852e-04   7.34996e-05 DIIS
   @DF-RHF iter   5:  -379.77005935408698   -1.13573e-05   1.71981e-05 DIIS
   @DF-RHF iter   6:  -379.77006009824743   -7.44160e-07   4.55612e-06 DIIS
   @DF-RHF iter   7:  -379.77006013347858   -3.52312e-08   8.20496e-07 DIIS
   @DF-RHF iter   8:  -379.77006013459686   -1.11828e-09   2.92061e-07 DIIS
   @DF-RHF iter   9:  -379.77006013471174   -1.14881e-10   9.95309e-08 DIIS
   @DF-RHF iter  10:  -379.77006013473004   -1.83036e-11   1.86993e-08 DIIS
   @DF-RHF iter  11:  -379.77006013473067   -6.25278e-13   5.00535e-09 DIIS
  Energy and wave function converged.


  ==> Post-Iterations <==

    Orbital Energies [Eh]
    ---------------------

    Doubly Occupied:                                                      

       1Bu   -11.040740     1Ag   -11.040678     2Bu   -11.031774  
       2Ag   -11.031774     3Bu   -11.029087     3Ag   -11.028957  
       4Bu   -11.028742     4Ag   -11.028719     5Bu   -11.017661  
       5Ag   -11.017661     6Ag    -1.090230     6Bu    -1.020335  
       7Ag    -0.974974     7Bu    -0.950247     8Bu    -0.909607  
       8Ag    -0.799954     9Ag    -0.762801     9Bu    -0.727692  
      10Ag    -0.696723    11Ag    -0.628044    10Bu    -0.605732  
      11Bu    -0.572927    12Bu    -0.553591    12Ag    -0.553183  
      13Bu    -0.525276    14Bu    -0.496652    13Ag    -0.492548  
       1Au    -0.463659    15Bu    -0.446496    14Ag    -0.421677  
      15Ag    -0.415603     1Bg    -0.377018     2Au    -0.315123  
       2Bg    -0.278320     3Bg    -0.222049  

    Virtual:                                                              

       3Au     0.198852     4Au     0.268590     4Bg     0.308802  
       5Au     0.397161     5Bg     0.521750    16Ag     0.565232  
      16Bu     0.575556    17Ag     0.621548    17Bu     0.626077  
      18Ag     0.658177    18Bu     0.659390    19Bu     0.677308  
      19Ag     0.694224    20Bu     0.706678    20Ag     0.740055  
      21Ag     0.802168    21Bu     0.825483    22Ag     0.860609  
      22Bu     0.887782    23Bu     0.921054    23Ag     0.940056  
      24Ag     0.990390    24Bu     1.027259    25Ag     1.107609  
      25Bu     1.124852  

    Final Occupation by Irrep:
             Ag    Bg    Au    Bu 
    DOCC [    15,    3,    2,   15 ]

  @DF-RHF Final Energy:  -379.77006013473067

   => Energetics <=

    Nuclear Repulsion Energy =            445.9288915547287502
    One-Electron Energy =               -1400.2053906017094960
    Two-Electron Energy =                 574.5064389122500188
    Total Energy =                       -379.7700601347306701

Computation Completed


Properties will be evaluated at   0.000000,   0.000000,   0.000000 [a0]

Properties computed using the SCF density matrix

  Nuclear Dipole Moment: [e a0]
     X:     0.0000      Y:     0.0000      Z:     0.0000

  Electronic Dipole Moment: [e a0]
     X:     0.0000      Y:     0.0000      Z:     0.0000

  Dipole Moment: [e a0]
     X:     0.0000      Y:     0.0000      Z:     0.0000     Total:     0.0000

  Dipole Moment: [D]
     X:     0.0000      Y:     0.0000      Z:     0.0000     Total:     0.0000


*** tstop() called on osmium at Sat Mar  7 23:33:01 2020
Module time:
	user time   =       2.16 seconds =       0.04 minutes
	system time =       0.01 seconds =       0.00 minutes
	total time  =          2 seconds =       0.03 minutes
Total time:
	user time   =      11.94 seconds =       0.20 minutes
	system time =       0.12 seconds =       0.00 minutes
	total time  =         12 seconds =       0.20 minutes

*** tstart() called on osmium
*** at Sat Mar  7 23:33:01 2020


         ------------------------------------------------------------
                                   SCF GRAD                          
                          Rob Parrish, Justin Turney,                
                       Andy Simmonett, and Alex Sokolov              
         ------------------------------------------------------------

  ==> Geometry <==

    Molecular point group: c2h
    Full point group: C2h

    Geometry (in Angstrom), charge = 0, multiplicity = 1:

       Center              X                  Y                   Z               Mass       
    ------------   -----------------  -----------------  -----------------  -----------------
         C           -1.415793005628     0.230226778935     0.000000000000    12.000000000000
         C            1.415793005628    -0.230226778935     0.000000000000    12.000000000000
         C           -0.495128517898     1.314462614412     0.000000000000    12.000000000000
         C            0.495128517898    -1.314462614412     0.000000000000    12.000000000000
         C            0.889412892871     1.090946236137     0.000000000000    12.000000000000
         C           -0.889412892871    -1.090946236137     0.000000000000    12.000000000000
         H           -0.879542928942     2.343737478180     0.000000000000     1.007825032230
         H            0.879542928942    -2.343737478180     0.000000000000     1.007825032230
         H            1.577911018398     1.945000560073     0.000000000000     1.007825032230
         H           -1.577911018398    -1.945000560073     0.000000000000     1.007825032230
         C            2.884582657605    -0.521099555676     0.000000000000    12.000000000000
         C           -2.884582657605     0.521099555676     0.000000000000    12.000000000000
         H            3.140330063977    -1.591971648760     0.000000000000     1.007825032230
         H           -3.140330063977     1.591971648760     0.000000000000     1.007825032230
         C            3.880044159031     0.382239852181     0.000000000000    12.000000000000
         C           -3.880044159031    -0.382239852181     0.000000000000    12.000000000000
         H            3.694681745823     1.462425920821     0.000000000000     1.007825032230
         H           -3.694681745823    -1.462425920821     0.000000000000     1.007825032230
         H            4.931645605484     0.071087553640     0.000000000000     1.007825032230
         H           -4.931645605484    -0.071087553640     0.000000000000     1.007825032230

  Nuclear repulsion =  445.928891554728750

  ==> Basis Set <==

  Basis Set: STO-3G
    Blend: STO-3G
    Number of shells: 40
    Number of basis function: 60
    Number of Cartesian functions: 60
    Spherical Harmonics?: true
    Max angular momentum: 1

  ==> DFJKGrad: Density-Fitted SCF Gradients <==

    Gradient:                    1
    J tasked:                  Yes
    K tasked:                  Yes
    wK tasked:                  No
    OpenMP threads:              1
    Integrals threads:           1
    Memory [MiB]:              375
    Schwarz Cutoff:          0E+00
    Fitting Condition:       1E-10

   => Auxiliary Basis Set <=

  Basis Set: (STO-3G AUX)
    Blend: DEF2-SVP-JKFIT
    Number of shells: 310
    Number of basis function: 930
    Number of Cartesian functions: 1090
    Spherical Harmonics?: true
    Max angular momentum: 4


  -Total Gradient:
     Atom            X                  Y                   Z
    ------   -----------------  -----------------  -----------------
       1       -0.025570780904     0.003896975484     0.000000000000
       2        0.025570780904    -0.003896975484     0.000000000000
       3       -0.002717719781     0.014473153048     0.000000000000
       4        0.002717719781    -0.014473153048     0.000000000000
       5        0.005449794055     0.013702027890     0.000000000000
       6       -0.005449794055    -0.013702027890     0.000000000000
       7       -0.005043087679     0.013056200191     0.000000000000
       8        0.005043087679    -0.013056200191     0.000000000000
       9        0.009873690646     0.009796638152     0.000000000000
      10       -0.009873690646    -0.009796638152     0.000000000000
      11       -0.033188543437    -0.017415353078     0.000000000000
      12        0.033188543437     0.017415353078     0.000000000000
      13        0.003231777020    -0.014110709230     0.000000000000
      14       -0.003231777020     0.014110709230     0.000000000000
      15        0.023950564946     0.021027167761     0.000000000000
      16       -0.023950564946    -0.021027167761     0.000000000000
      17       -0.003371103809     0.013514609324     0.000000000000
      18        0.003371103809    -0.013514609324     0.000000000000
      19        0.013257749272    -0.003905431404     0.000000000000
      20       -0.013257749272     0.003905431404     0.000000000000


*** tstop() called on osmium at Sat Mar  7 23:33:04 2020
Module time:
	user time   =       2.56 seconds =       0.04 minutes
	system time =       0.02 seconds =       0.00 minutes
	total time  =          3 seconds =       0.05 minutes
Total time:
	user time   =      14.50 seconds =       0.24 minutes
	system time =       0.14 seconds =       0.00 minutes
	total time  =         15 seconds =       0.25 minutes

  //>>>>>>>>>>>>>>>>>>>>>>>>>>>>>>>>>>>//
  //    Loading displacement 3 of 74   //
  //<<<<<<<<<<<<<<<<<<<<<<<<<<<<<<<<<<<//
gradient() will perform analytic gradient computation.

*** tstart() called on osmium
*** at Sat Mar  7 23:33:04 2020

   => Loading Basis Set <=

    Name: STO-3G
    Role: ORBITAL
    Keyword: BASIS
    atoms 1-6, 11-12, 15-16  entry C          line    61 file /home/eric/.pyenv/versions/miniconda3-4.3.30/envs/psi4-1.3.1/share/psi4/basis/sto-3g.gbs 
    atoms 7-10, 13-14, 17-20 entry H          line    19 file /home/eric/.pyenv/versions/miniconda3-4.3.30/envs/psi4-1.3.1/share/psi4/basis/sto-3g.gbs 


         ---------------------------------------------------------
                                   SCF
               by Justin Turney, Rob Parrish, Andy Simmonett
                          and Daniel G. A. Smith
                              RHF Reference
                        1 Threads,    500 MiB Core
         ---------------------------------------------------------

  ==> Geometry <==

    Molecular point group: c2h
    Full point group: C2h

    Geometry (in Angstrom), charge = 0, multiplicity = 1:

       Center              X                  Y                   Z               Mass       
    ------------   -----------------  -----------------  -----------------  -----------------
         C           -1.414713639172     0.230216791865     0.000000000000    12.000000000000
         C            1.414713639172    -0.230216791865     0.000000000000    12.000000000000
         C           -0.495137793702     1.314459120388     0.000000000000    12.000000000000
         C            0.495137793702    -1.314459120388     0.000000000000    12.000000000000
         C            0.889405194329     1.090952512463     0.000000000000    12.000000000000
         C           -0.889405194329    -1.090952512463     0.000000000000    12.000000000000
         H           -0.879559468058     2.343731271420     0.000000000000     1.007825032230
         H            0.879559468058    -2.343731271420     0.000000000000     1.007825032230
         H            1.577897293002     1.945011694927     0.000000000000     1.007825032230
         H           -1.577897293002    -1.945011694927     0.000000000000     1.007825032230
         C            2.884586334795    -0.521079199924     0.000000000000    12.000000000000
         C           -2.884586334795     0.521079199924     0.000000000000    12.000000000000
         H            3.140341298023    -1.591949488240     0.000000000000     1.007825032230
         H           -3.140341298023     1.591949488240     0.000000000000     1.007825032230
         C            3.880041461569     0.382267232619     0.000000000000    12.000000000000
         C           -3.880041461569    -0.382267232619     0.000000000000    12.000000000000
         H            3.694671425777     1.462451993179     0.000000000000     1.007825032230
         H           -3.694671425777    -1.462451993179     0.000000000000     1.007825032230
         H            4.931645103716     0.071122354960     0.000000000000     1.007825032230
         H           -4.931645103716    -0.071122354960     0.000000000000     1.007825032230

  Running in c2h symmetry.

  Rotational constants: A =      0.15403  B =      0.02288  C =      0.01992 [cm^-1]
  Rotational constants: A =   4617.84456  B =    685.79597  C =    597.11799 [MHz]
  Nuclear repulsion =  445.945078558427838

  Charge       = 0
  Multiplicity = 1
  Electrons    = 70
  Nalpha       = 35
  Nbeta        = 35

  ==> Algorithm <==

  SCF Algorithm Type is DF.
  DIIS enabled.
  MOM disabled.
  Fractional occupation disabled.
  Guess Type is SAD.
  Energy threshold   = 1.00e-08
  Density threshold  = 1.00e-08
  Integral threshold = 0.00e+00

  ==> Primary Basis <==

  Basis Set: STO-3G
    Blend: STO-3G
    Number of shells: 40
    Number of basis function: 60
    Number of Cartesian functions: 60
    Spherical Harmonics?: true
    Max angular momentum: 1

   => Loading Basis Set <=

    Name: (STO-3G AUX)
    Role: JKFIT
    Keyword: DF_BASIS_SCF
    atoms 1-6, 11-12, 15-16  entry C          line   203 file /home/eric/.pyenv/versions/miniconda3-4.3.30/envs/psi4-1.3.1/share/psi4/basis/def2-svp-jkfit.gbs 
    atoms 7-10, 13-14, 17-20 entry H          line    23 file /home/eric/.pyenv/versions/miniconda3-4.3.30/envs/psi4-1.3.1/share/psi4/basis/def2-svp-jkfit.gbs 

  ==> Pre-Iterations <==

   -------------------------------------------------------
    Irrep   Nso     Nmo     Nalpha   Nbeta   Ndocc  Nsocc
   -------------------------------------------------------
     Ag        25      25       0       0       0       0
     Bg         5       5       0       0       0       0
     Au         5       5       0       0       0       0
     Bu        25      25       0       0       0       0
   -------------------------------------------------------
    Total      60      60      35      35      35       0
   -------------------------------------------------------

  ==> Integral Setup <==

  DFHelper Memory: AOs need 0.031 GiB; user supplied 0.366 GiB. Using in-core AOs.

  ==> MemDFJK: Density-Fitted J/K Matrices <==

    J tasked:                   Yes
    K tasked:                   Yes
    wK tasked:                   No
    OpenMP threads:               1
    Memory [MiB]:               375
    Algorithm:                 Core
    Schwarz Cutoff:           1E-12
    Mask sparsity (%):       4.1111
    Fitting Condition:        1E-10

   => Auxiliary Basis Set <=

  Basis Set: (STO-3G AUX)
    Blend: DEF2-SVP-JKFIT
    Number of shells: 310
    Number of basis function: 930
    Number of Cartesian functions: 1090
    Spherical Harmonics?: true
    Max angular momentum: 4

  Minimum eigenvalue in the overlap matrix is 1.8138961380E-01.
  Using Symmetric Orthogonalization.

  SCF Guess: Superposition of Atomic Densities via on-the-fly atomic UHF.

  ==> Iterations <==

                           Total Energy        Delta E     RMS |[F,P]|

   @DF-RHF iter SAD:  -372.47089215281505   -3.72471e+02   0.00000e+00 
   @DF-RHF iter   1:  -379.75149225117616   -7.28060e+00   3.88884e-03 DIIS
   @DF-RHF iter   2:  -379.76857952953088   -1.70873e-02   1.09092e-03 DIIS
   @DF-RHF iter   3:  -379.76990296762546   -1.32344e-03   4.95883e-04 DIIS
   @DF-RHF iter   4:  -379.77014914743421   -2.46180e-04   7.33352e-05 DIIS
   @DF-RHF iter   5:  -379.77016041922764   -1.12718e-05   1.71451e-05 DIIS
   @DF-RHF iter   6:  -379.77016115741787   -7.38190e-07   4.54613e-06 DIIS
   @DF-RHF iter   7:  -379.77016119248350   -3.50656e-08   8.18936e-07 DIIS
   @DF-RHF iter   8:  -379.77016119359956   -1.11606e-09   2.91283e-07 DIIS
   @DF-RHF iter   9:  -379.77016119371314   -1.13573e-10   9.93020e-08 DIIS
   @DF-RHF iter  10:  -379.77016119373161   -1.84741e-11   1.86739e-08 DIIS
   @DF-RHF iter  11:  -379.77016119373246   -8.52651e-13   4.98127e-09 DIIS
  Energy and wave function converged.


  ==> Post-Iterations <==

    Orbital Energies [Eh]
    ---------------------

    Doubly Occupied:                                                      

       1Bu   -11.040753     1Ag   -11.040690     2Bu   -11.031722  
       2Ag   -11.031721     3Bu   -11.029134     3Ag   -11.029004  
       4Bu   -11.028791     4Ag   -11.028768     5Bu   -11.017606  
       5Ag   -11.017606     6Ag    -1.090403     6Bu    -1.020209  
       7Ag    -0.974906     7Bu    -0.950390     8Bu    -0.909694  
       8Ag    -0.799837     9Ag    -0.762872     9Bu    -0.727592  
      10Ag    -0.696837    11Ag    -0.628050    10Bu    -0.605619  
      11Bu    -0.572967    12Bu    -0.553611    12Ag    -0.553141  
      13Bu    -0.525429    14Bu    -0.496738    13Ag    -0.492509  
       1Au    -0.463783    15Bu    -0.446371    14Ag    -0.421649  
      15Ag    -0.415646     1Bg    -0.376887     2Au    -0.315115  
       2Bg    -0.278383     3Bg    -0.222309  

    Virtual:                                                              

       3Au     0.199180     4Au     0.268487     4Bg     0.308895  
       5Au     0.397043     5Bg     0.521831    16Ag     0.564864  
      16Bu     0.575645    17Ag     0.621623    17Bu     0.625597  
      18Ag     0.658318    18Bu     0.659424    19Bu     0.677108  
      19Ag     0.694173    20Bu     0.706756    20Ag     0.740249  
      21Ag     0.802343    21Bu     0.825891    22Ag     0.860671  
      22Bu     0.887806    23Bu     0.921027    23Ag     0.939899  
      24Ag     0.990257    24Bu     1.027331    25Ag     1.107886  
      25Bu     1.125073  

    Final Occupation by Irrep:
             Ag    Bg    Au    Bu 
    DOCC [    15,    3,    2,   15 ]

  @DF-RHF Final Energy:  -379.77016119373246

   => Energetics <=

    Nuclear Repulsion Energy =            445.9450785584278378
    One-Electron Energy =               -1400.2369995670833305
    Two-Electron Energy =                 574.5217598149230298
    Total Energy =                       -379.7701611937324060

Computation Completed


Properties will be evaluated at   0.000000,   0.000000,   0.000000 [a0]

Properties computed using the SCF density matrix

  Nuclear Dipole Moment: [e a0]
     X:     0.0000      Y:     0.0000      Z:     0.0000

  Electronic Dipole Moment: [e a0]
     X:     0.0000      Y:     0.0000      Z:     0.0000

  Dipole Moment: [e a0]
     X:     0.0000      Y:     0.0000      Z:     0.0000     Total:     0.0000

  Dipole Moment: [D]
     X:     0.0000      Y:     0.0000      Z:     0.0000     Total:     0.0000


*** tstop() called on osmium at Sat Mar  7 23:33:06 2020
Module time:
	user time   =       2.17 seconds =       0.04 minutes
	system time =       0.01 seconds =       0.00 minutes
	total time  =          2 seconds =       0.03 minutes
Total time:
	user time   =      16.68 seconds =       0.28 minutes
	system time =       0.15 seconds =       0.00 minutes
	total time  =         17 seconds =       0.28 minutes

*** tstart() called on osmium
*** at Sat Mar  7 23:33:06 2020


         ------------------------------------------------------------
                                   SCF GRAD                          
                          Rob Parrish, Justin Turney,                
                       Andy Simmonett, and Alex Sokolov              
         ------------------------------------------------------------

  ==> Geometry <==

    Molecular point group: c2h
    Full point group: C2h

    Geometry (in Angstrom), charge = 0, multiplicity = 1:

       Center              X                  Y                   Z               Mass       
    ------------   -----------------  -----------------  -----------------  -----------------
         C           -1.414713639172     0.230216791865     0.000000000000    12.000000000000
         C            1.414713639172    -0.230216791865     0.000000000000    12.000000000000
         C           -0.495137793702     1.314459120388     0.000000000000    12.000000000000
         C            0.495137793702    -1.314459120388     0.000000000000    12.000000000000
         C            0.889405194329     1.090952512463     0.000000000000    12.000000000000
         C           -0.889405194329    -1.090952512463     0.000000000000    12.000000000000
         H           -0.879559468058     2.343731271420     0.000000000000     1.007825032230
         H            0.879559468058    -2.343731271420     0.000000000000     1.007825032230
         H            1.577897293002     1.945011694927     0.000000000000     1.007825032230
         H           -1.577897293002    -1.945011694927     0.000000000000     1.007825032230
         C            2.884586334795    -0.521079199924     0.000000000000    12.000000000000
         C           -2.884586334795     0.521079199924     0.000000000000    12.000000000000
         H            3.140341298023    -1.591949488240     0.000000000000     1.007825032230
         H           -3.140341298023     1.591949488240     0.000000000000     1.007825032230
         C            3.880041461569     0.382267232619     0.000000000000    12.000000000000
         C           -3.880041461569    -0.382267232619     0.000000000000    12.000000000000
         H            3.694671425777     1.462451993179     0.000000000000     1.007825032230
         H           -3.694671425777    -1.462451993179     0.000000000000     1.007825032230
         H            4.931645103716     0.071122354960     0.000000000000     1.007825032230
         H           -4.931645103716    -0.071122354960     0.000000000000     1.007825032230

  Nuclear repulsion =  445.945078558427838

  ==> Basis Set <==

  Basis Set: STO-3G
    Blend: STO-3G
    Number of shells: 40
    Number of basis function: 60
    Number of Cartesian functions: 60
    Spherical Harmonics?: true
    Max angular momentum: 1

  ==> DFJKGrad: Density-Fitted SCF Gradients <==

    Gradient:                    1
    J tasked:                  Yes
    K tasked:                  Yes
    wK tasked:                  No
    OpenMP threads:              1
    Integrals threads:           1
    Memory [MiB]:              375
    Schwarz Cutoff:          0E+00
    Fitting Condition:       1E-10

   => Auxiliary Basis Set <=

  Basis Set: (STO-3G AUX)
    Blend: DEF2-SVP-JKFIT
    Number of shells: 310
    Number of basis function: 930
    Number of Cartesian functions: 1090
    Spherical Harmonics?: true
    Max angular momentum: 4


  -Total Gradient:
     Atom            X                  Y                   Z
    ------   -----------------  -----------------  -----------------
       1       -0.023901020792     0.003911467655     0.000000000000
       2        0.023901020792    -0.003911467655     0.000000000000
       3       -0.003188505446     0.014090854255     0.000000000000
       4        0.003188505446    -0.014090854255     0.000000000000
       5        0.005723439720     0.013460482380     0.000000000000
       6       -0.005723439720    -0.013460482380     0.000000000000
       7       -0.005004586931     0.013087400882     0.000000000000
       8        0.005004586931    -0.013087400882     0.000000000000
       9        0.009831850815     0.009852365518     0.000000000000
      10       -0.009831850815    -0.009852365518     0.000000000000
      11       -0.032598678375    -0.017545295871     0.000000000000
      12        0.032598678375     0.017545295871     0.000000000000
      13        0.003244026839    -0.014100377739     0.000000000000
      14       -0.003244026839     0.014100377739     0.000000000000
      15        0.024044756446     0.021051042569     0.000000000000
      16       -0.024044756446    -0.021051042569     0.000000000000
      17       -0.003375051249     0.013513528807     0.000000000000
      18        0.003375051249    -0.013513528807     0.000000000000
      19        0.013260110967    -0.003902726138     0.000000000000
      20       -0.013260110967     0.003902726138     0.000000000000


*** tstop() called on osmium at Sat Mar  7 23:33:09 2020
Module time:
	user time   =       2.56 seconds =       0.04 minutes
	system time =       0.02 seconds =       0.00 minutes
	total time  =          3 seconds =       0.05 minutes
Total time:
	user time   =      19.24 seconds =       0.32 minutes
	system time =       0.17 seconds =       0.00 minutes
	total time  =         20 seconds =       0.33 minutes

  //>>>>>>>>>>>>>>>>>>>>>>>>>>>>>>>>>>>//
  //    Loading displacement 4 of 74   //
  //<<<<<<<<<<<<<<<<<<<<<<<<<<<<<<<<<<<//
gradient() will perform analytic gradient computation.

*** tstart() called on osmium
*** at Sat Mar  7 23:33:09 2020

   => Loading Basis Set <=

    Name: STO-3G
    Role: ORBITAL
    Keyword: BASIS
    atoms 1-6, 11-12, 15-16  entry C          line    61 file /home/eric/.pyenv/versions/miniconda3-4.3.30/envs/psi4-1.3.1/share/psi4/basis/sto-3g.gbs 
    atoms 7-10, 13-14, 17-20 entry H          line    19 file /home/eric/.pyenv/versions/miniconda3-4.3.30/envs/psi4-1.3.1/share/psi4/basis/sto-3g.gbs 


         ---------------------------------------------------------
                                   SCF
               by Justin Turney, Rob Parrish, Andy Simmonett
                          and Daniel G. A. Smith
                              RHF Reference
                        1 Threads,    500 MiB Core
         ---------------------------------------------------------

  ==> Geometry <==

    Molecular point group: c2h
    Full point group: C2h

    Geometry (in Angstrom), charge = 0, multiplicity = 1:

       Center              X                  Y                   Z               Mass       
    ------------   -----------------  -----------------  -----------------  -----------------
         C           -1.415253322400     0.229697281074     0.000000000000    12.000000000000
         C            1.415253322400    -0.229697281074     0.000000000000    12.000000000000
         C           -0.495103775762     1.314471934318     0.000000000000    12.000000000000
         C            0.495103775762    -1.314471934318     0.000000000000    12.000000000000
         C            0.889433427844     1.090929494764     0.000000000000    12.000000000000
         C           -0.889433427844    -1.090929494764     0.000000000000    12.000000000000
         H           -0.879498812760     2.343754033999     0.000000000000     1.007825032230
         H            0.879498812760    -2.343754033999     0.000000000000     1.007825032230
         H            1.577947629306     1.944970859136     0.000000000000     1.007825032230
         H           -1.577947629306    -1.944970859136     0.000000000000     1.007825032230
         C            2.884572849124    -0.521153852296     0.000000000000    12.000000000000
         C           -2.884572849124     0.521153852296     0.000000000000    12.000000000000
         H            3.140300098456    -1.592030759393     0.000000000000     1.007825032230
         H           -3.140300098456     1.592030759393     0.000000000000     1.007825032230
         C            3.880051354201     0.382166818019     0.000000000000    12.000000000000
         C           -3.880051354201    -0.382166818019     0.000000000000    12.000000000000
         H            3.694709273355     1.462356375813     0.000000000000     1.007825032230
         H           -3.694709273355    -1.462356375813     0.000000000000     1.007825032230
         H            4.931646943895     0.070994725132     0.000000000000     1.007825032230
         H           -4.931646943895    -0.070994725132     0.000000000000     1.007825032230

  Running in c2h symmetry.

  Rotational constants: A =      0.15404  B =      0.02287  C =      0.01992 [cm^-1]
  Rotational constants: A =   4618.10979  B =    685.76134  C =    597.09618 [MHz]
  Nuclear repulsion =  445.939130003136086

  Charge       = 0
  Multiplicity = 1
  Electrons    = 70
  Nalpha       = 35
  Nbeta        = 35

  ==> Algorithm <==

  SCF Algorithm Type is DF.
  DIIS enabled.
  MOM disabled.
  Fractional occupation disabled.
  Guess Type is SAD.
  Energy threshold   = 1.00e-08
  Density threshold  = 1.00e-08
  Integral threshold = 0.00e+00

  ==> Primary Basis <==

  Basis Set: STO-3G
    Blend: STO-3G
    Number of shells: 40
    Number of basis function: 60
    Number of Cartesian functions: 60
    Spherical Harmonics?: true
    Max angular momentum: 1

   => Loading Basis Set <=

    Name: (STO-3G AUX)
    Role: JKFIT
    Keyword: DF_BASIS_SCF
    atoms 1-6, 11-12, 15-16  entry C          line   203 file /home/eric/.pyenv/versions/miniconda3-4.3.30/envs/psi4-1.3.1/share/psi4/basis/def2-svp-jkfit.gbs 
    atoms 7-10, 13-14, 17-20 entry H          line    23 file /home/eric/.pyenv/versions/miniconda3-4.3.30/envs/psi4-1.3.1/share/psi4/basis/def2-svp-jkfit.gbs 

  ==> Pre-Iterations <==

   -------------------------------------------------------
    Irrep   Nso     Nmo     Nalpha   Nbeta   Ndocc  Nsocc
   -------------------------------------------------------
     Ag        25      25       0       0       0       0
     Bg         5       5       0       0       0       0
     Au         5       5       0       0       0       0
     Bu        25      25       0       0       0       0
   -------------------------------------------------------
    Total      60      60      35      35      35       0
   -------------------------------------------------------

  ==> Integral Setup <==

  DFHelper Memory: AOs need 0.031 GiB; user supplied 0.366 GiB. Using in-core AOs.

  ==> MemDFJK: Density-Fitted J/K Matrices <==

    J tasked:                   Yes
    K tasked:                   Yes
    wK tasked:                   No
    OpenMP threads:               1
    Memory [MiB]:               375
    Algorithm:                 Core
    Schwarz Cutoff:           1E-12
    Mask sparsity (%):       4.1111
    Fitting Condition:        1E-10

   => Auxiliary Basis Set <=

  Basis Set: (STO-3G AUX)
    Blend: DEF2-SVP-JKFIT
    Number of shells: 310
    Number of basis function: 930
    Number of Cartesian functions: 1090
    Spherical Harmonics?: true
    Max angular momentum: 4

  Minimum eigenvalue in the overlap matrix is 1.8145425972E-01.
  Using Symmetric Orthogonalization.

  SCF Guess: Superposition of Atomic Densities via on-the-fly atomic UHF.

  ==> Iterations <==

                           Total Energy        Delta E     RMS |[F,P]|

   @DF-RHF iter SAD:  -372.47058091823686   -3.72471e+02   0.00000e+00 
   @DF-RHF iter   1:  -379.75144310070561   -7.28086e+00   3.88907e-03 DIIS
   @DF-RHF iter   2:  -379.76853492322385   -1.70918e-02   1.09135e-03 DIIS
   @DF-RHF iter   3:  -379.76985964185991   -1.32472e-03   4.96081e-04 DIIS
   @DF-RHF iter   4:  -379.77010616147618   -2.46520e-04   7.34093e-05 DIIS
   @DF-RHF iter   5:  -379.77011746821785   -1.13067e-05   1.71646e-05 DIIS
   @DF-RHF iter   6:  -379.77011820873827   -7.40520e-07   4.55224e-06 DIIS
   @DF-RHF iter   7:  -379.77011824387125   -3.51330e-08   8.20823e-07 DIIS
   @DF-RHF iter   8:  -379.77011824499129   -1.12004e-09   2.92864e-07 DIIS
   @DF-RHF iter   9:  -379.77011824510737   -1.16074e-10   9.98856e-08 DIIS
   @DF-RHF iter  10:  -379.77011824512590   -1.85310e-11   1.87638e-08 DIIS
   @DF-RHF iter  11:  -379.77011824512635   -4.54747e-13   4.98181e-09 DIIS
  Energy and wave function converged.


  ==> Post-Iterations <==

    Orbital Energies [Eh]
    ---------------------

    Doubly Occupied:                                                      

       1Bu   -11.040744     1Ag   -11.040681     2Bu   -11.031742  
       2Ag   -11.031742     3Bu   -11.029111     3Ag   -11.028981  
       4Bu   -11.028764     4Ag   -11.028740     5Bu   -11.017620  
       5Ag   -11.017620     6Ag    -1.090327     6Bu    -1.020267  
       7Ag    -0.974936     7Bu    -0.950305     8Bu    -0.909668  
       8Ag    -0.799830     9Ag    -0.762907     9Bu    -0.727627  
      10Ag    -0.696755    11Ag    -0.628052    10Bu    -0.605658  
      11Bu    -0.572942    12Bu    -0.553664    12Ag    -0.553153  
      13Bu    -0.525333    14Bu    -0.496633    13Ag    -0.492546  
       1Au    -0.463727    15Bu    -0.446468    14Ag    -0.421504  
      15Ag    -0.415763     1Bg    -0.376939     2Au    -0.315115  
       2Bg    -0.278355     3Bg    -0.222192  

    Virtual:                                                              

       3Au     0.199062     4Au     0.268520     4Bg     0.308861  
       5Au     0.397090     5Bg     0.521794    16Ag     0.565067  
      16Bu     0.575681    17Ag     0.621538    17Bu     0.625669  
      18Ag     0.658255    18Bu     0.659446    19Bu     0.677243  
      19Ag     0.694211    20Bu     0.706655    20Ag     0.740129  
      21Ag     0.802264    21Bu     0.825830    22Ag     0.860702  
      22Bu     0.887655    23Bu     0.921142    23Ag     0.939981  
      24Ag     0.990264    24Bu     1.027249    25Ag     1.107781  
      25Bu     1.124994  

    Final Occupation by Irrep:
             Ag    Bg    Au    Bu 
    DOCC [    15,    3,    2,   15 ]

  @DF-RHF Final Energy:  -379.77011824512635

   => Energetics <=

    Nuclear Repulsion Energy =            445.9391300031360856
    One-Electron Energy =               -1400.2256738409596437
    Two-Electron Energy =                 574.5164255926971464
    Total Energy =                       -379.7701182451263549

Computation Completed


Properties will be evaluated at   0.000000,   0.000000,   0.000000 [a0]

Properties computed using the SCF density matrix

  Nuclear Dipole Moment: [e a0]
     X:     0.0000      Y:     0.0000      Z:     0.0000

  Electronic Dipole Moment: [e a0]
     X:     0.0000      Y:     0.0000      Z:     0.0000

  Dipole Moment: [e a0]
     X:     0.0000      Y:     0.0000      Z:     0.0000     Total:     0.0000

  Dipole Moment: [D]
     X:     0.0000      Y:     0.0000      Z:     0.0000     Total:     0.0000


*** tstop() called on osmium at Sat Mar  7 23:33:11 2020
Module time:
	user time   =       2.20 seconds =       0.04 minutes
	system time =       0.01 seconds =       0.00 minutes
	total time  =          2 seconds =       0.03 minutes
Total time:
	user time   =      21.45 seconds =       0.36 minutes
	system time =       0.18 seconds =       0.00 minutes
	total time  =         22 seconds =       0.37 minutes

*** tstart() called on osmium
*** at Sat Mar  7 23:33:11 2020


         ------------------------------------------------------------
                                   SCF GRAD                          
                          Rob Parrish, Justin Turney,                
                       Andy Simmonett, and Alex Sokolov              
         ------------------------------------------------------------

  ==> Geometry <==

    Molecular point group: c2h
    Full point group: C2h

    Geometry (in Angstrom), charge = 0, multiplicity = 1:

       Center              X                  Y                   Z               Mass       
    ------------   -----------------  -----------------  -----------------  -----------------
         C           -1.415253322400     0.229697281074     0.000000000000    12.000000000000
         C            1.415253322400    -0.229697281074     0.000000000000    12.000000000000
         C           -0.495103775762     1.314471934318     0.000000000000    12.000000000000
         C            0.495103775762    -1.314471934318     0.000000000000    12.000000000000
         C            0.889433427844     1.090929494764     0.000000000000    12.000000000000
         C           -0.889433427844    -1.090929494764     0.000000000000    12.000000000000
         H           -0.879498812760     2.343754033999     0.000000000000     1.007825032230
         H            0.879498812760    -2.343754033999     0.000000000000     1.007825032230
         H            1.577947629306     1.944970859136     0.000000000000     1.007825032230
         H           -1.577947629306    -1.944970859136     0.000000000000     1.007825032230
         C            2.884572849124    -0.521153852296     0.000000000000    12.000000000000
         C           -2.884572849124     0.521153852296     0.000000000000    12.000000000000
         H            3.140300098456    -1.592030759393     0.000000000000     1.007825032230
         H           -3.140300098456     1.592030759393     0.000000000000     1.007825032230
         C            3.880051354201     0.382166818019     0.000000000000    12.000000000000
         C           -3.880051354201    -0.382166818019     0.000000000000    12.000000000000
         H            3.694709273355     1.462356375813     0.000000000000     1.007825032230
         H           -3.694709273355    -1.462356375813     0.000000000000     1.007825032230
         H            4.931646943895     0.070994725132     0.000000000000     1.007825032230
         H           -4.931646943895    -0.070994725132     0.000000000000     1.007825032230

  Nuclear repulsion =  445.939130003136086

  ==> Basis Set <==

  Basis Set: STO-3G
    Blend: STO-3G
    Number of shells: 40
    Number of basis function: 60
    Number of Cartesian functions: 60
    Spherical Harmonics?: true
    Max angular momentum: 1

  ==> DFJKGrad: Density-Fitted SCF Gradients <==

    Gradient:                    1
    J tasked:                  Yes
    K tasked:                  Yes
    wK tasked:                  No
    OpenMP threads:              1
    Integrals threads:           1
    Memory [MiB]:              375
    Schwarz Cutoff:          0E+00
    Fitting Condition:       1E-10

   => Auxiliary Basis Set <=

  Basis Set: (STO-3G AUX)
    Blend: DEF2-SVP-JKFIT
    Number of shells: 310
    Number of basis function: 930
    Number of Cartesian functions: 1090
    Spherical Harmonics?: true
    Max angular momentum: 4


  -Total Gradient:
     Atom            X                  Y                   Z
    ------   -----------------  -----------------  -----------------
       1       -0.024750299550     0.002954800979     0.000000000000
       2        0.024750299550    -0.002954800979     0.000000000000
       3       -0.002776701576     0.014628203153     0.000000000000
       4        0.002776701576    -0.014628203153     0.000000000000
       5        0.005690771835     0.013138137087     0.000000000000
       6       -0.005690771835    -0.013138137087     0.000000000000
       7       -0.004997832922     0.013088340583     0.000000000000
       8        0.004997832922    -0.013088340583     0.000000000000
       9        0.009866109357     0.009807784623     0.000000000000
      10       -0.009866109357    -0.009807784623     0.000000000000
      11       -0.032862782331    -0.017631243559     0.000000000000
      12        0.032862782331     0.017631243559     0.000000000000
      13        0.003275427738    -0.014107355050     0.000000000000
      14       -0.003275427738     0.014107355050     0.000000000000
[...]
     19   H                0.02  0.00  0.00   -0.02 -0.04 -0.00   -0.04 -0.07  0.00   
     20   H               -0.02 -0.00 -0.00   -0.02 -0.04  0.00    0.04  0.07 -0.00   

  Vibration                       43                  44                  45          
  Freq [cm^-1]                1636.4862           1714.7033           1726.9331       
  Irrep                           Bu                  Ag                  Bu          
  Reduced mass [u]              2.1969              1.4031              1.3170        
  Force const [mDyne/A]         3.4664              2.4305              2.3142        
  Turning point v=0 [a0]        0.1830              0.2237              0.2301        
  RMS dev v=0 [a0 u^1/2]        0.1918              0.1874              0.1867        
  Char temp [K]               2354.5392           2467.0762           2484.6723       
  ----------------------------------------------------------------------------------
      1   C               -0.00  0.14 -0.00   -0.03  0.03 -0.00    0.02  0.04 -0.00   
      2   C               -0.00  0.14  0.00    0.03 -0.03  0.00    0.02  0.04  0.00   
      3   C                0.10 -0.06 -0.00   -0.04 -0.02 -0.00    0.04  0.01 -0.00   
      4   C                0.10 -0.06  0.00    0.04  0.02  0.00    0.04  0.01  0.00   
      5   C               -0.13  0.01  0.00    0.01  0.03 -0.00   -0.02 -0.03  0.00   
      6   C               -0.13  0.01 -0.00   -0.01 -0.03 -0.00   -0.02 -0.03 -0.00   
      7   H               -0.27 -0.23 -0.00    0.12  0.04 -0.00   -0.17 -0.07 -0.00   
      8   H               -0.27 -0.23 -0.00   -0.12 -0.04 -0.00   -0.17 -0.07 -0.00   
      9   H                0.35 -0.41  0.00    0.06 -0.01  0.00   -0.07  0.01  0.00   
     10   H                0.35 -0.41 -0.00   -0.06  0.01 -0.00   -0.07  0.01 -0.00   
     11   C                0.07 -0.01 -0.00   -0.11 -0.03 -0.00   -0.09 -0.03 -0.00   
     12   C                0.07 -0.01  0.00    0.11  0.03  0.00   -0.09 -0.03  0.00   
     13   H                0.01 -0.02 -0.00    0.28  0.06 -0.00    0.31  0.06 -0.00   
     14   H                0.01 -0.02  0.00   -0.28 -0.06  0.00    0.31  0.06  0.00   
     15   C               -0.04 -0.01 -0.00    0.01 -0.02 -0.00   -0.00 -0.03 -0.00   
     16   C               -0.04 -0.01 -0.00   -0.01  0.02 -0.00   -0.00 -0.03 -0.00   
     17   H               -0.06 -0.02 -0.00    0.36  0.05 -0.00    0.37  0.05 -0.00   
     18   H               -0.06 -0.02 -0.00   -0.36 -0.05 -0.00    0.37  0.05 -0.00   
     19   H               -0.09 -0.15  0.00    0.17  0.46  0.00    0.15  0.43  0.00   
     20   H               -0.09 -0.15 -0.00   -0.17 -0.46 -0.00    0.15  0.43 -0.00   

  Vibration                       46                  47                  48          
  Freq [cm^-1]                1787.0580           1807.2473           1874.2273       
  Irrep                           Bu                  Ag                  Ag          
  Reduced mass [u]              2.1540              3.5324              4.5297        
  Force const [mDyne/A]         4.0530              6.7976              9.3749        
  Turning point v=0 [a0]        0.1769              0.1373              0.1191        
  RMS dev v=0 [a0 u^1/2]        0.1835              0.1825              0.1792        
  Char temp [K]               2571.1786           2600.2265           2696.5958       
  ----------------------------------------------------------------------------------
      1   C                0.14 -0.03  0.00    0.03  0.23 -0.00   -0.18  0.04  0.00   
      2   C                0.14 -0.03 -0.00   -0.03 -0.23  0.00    0.18 -0.04  0.00   
      3   C               -0.10 -0.07  0.00   -0.10 -0.14 -0.00    0.25  0.02  0.00   
      4   C               -0.10 -0.07 -0.00    0.10  0.14  0.00   -0.25 -0.02 -0.00   
      5   C               -0.07  0.10 -0.00   -0.05  0.16  0.00   -0.23  0.10  0.00   
      6   C               -0.07  0.10  0.00    0.05 -0.16 -0.00    0.23 -0.10  0.00   
      7   H                0.44  0.12  0.00    0.33 -0.00 -0.00   -0.34 -0.22 -0.00   
      8   H                0.44  0.12  0.00   -0.33  0.00 -0.00    0.34  0.22  0.00   
      9   H                0.37 -0.23 -0.00    0.33 -0.11 -0.00    0.26 -0.32  0.00   
     10   H                0.37 -0.23  0.00   -0.33  0.11 -0.00   -0.26  0.32 -0.00   
     11   C               -0.03  0.02  0.00    0.00  0.02 -0.00   -0.03  0.02 -0.00   
     12   C               -0.03  0.02 -0.00   -0.00 -0.02  0.00    0.03 -0.02  0.00   
     13   H               -0.01  0.03  0.00   -0.18 -0.03 -0.00    0.01  0.03  0.00   
     14   H               -0.01  0.03 -0.00    0.18  0.03  0.00   -0.01 -0.03  0.00   
     15   C               -0.02 -0.03  0.00    0.04  0.03 -0.00   -0.01 -0.01 -0.00   
     16   C               -0.02 -0.03  0.00   -0.04 -0.03 -0.00    0.01  0.01 -0.00   
     17   H                0.14  0.00  0.00   -0.27 -0.02 -0.00    0.04 -0.01 -0.00   
     18   H                0.14  0.00  0.00    0.27  0.02 -0.00   -0.04  0.01 -0.00   
     19   H                0.04  0.18 -0.00   -0.04 -0.23  0.00    0.01  0.07  0.00   
     20   H                0.04  0.18  0.00    0.04  0.23 -0.00   -0.01 -0.07  0.00   

  Vibration                       49                  50                  51          
  Freq [cm^-1]                1942.5199           1944.9577           3519.8241       
  Irrep                           Ag                  Bu                  Bu          
  Reduced mass [u]              2.9404              2.9545              1.0639        
  Force const [mDyne/A]         6.5372              6.5850              7.7657        
  Turning point v=0 [a0]        0.1452              0.1447              0.1793        
  RMS dev v=0 [a0 u^1/2]        0.1760              0.1759              0.1308        
  Char temp [K]               2794.8536           2798.3611           5064.2433       
  ----------------------------------------------------------------------------------
      1   C                0.04  0.05  0.00   -0.05 -0.02 -0.00   -0.00 -0.00  0.00   
      2   C               -0.04 -0.05 -0.00   -0.05 -0.02  0.00   -0.00 -0.00 -0.00   
      3   C               -0.00 -0.02 -0.00   -0.01  0.01  0.00    0.00 -0.00 -0.00   
      4   C                0.00  0.02 -0.00   -0.01  0.01  0.00    0.00 -0.00 -0.00   
      5   C               -0.01  0.02  0.00    0.02 -0.01  0.00    0.00  0.00 -0.00   
      6   C                0.01 -0.02 -0.00    0.02 -0.01 -0.00    0.00  0.00  0.00   
      7   H                0.03 -0.02 -0.00   -0.00  0.02  0.00   -0.01  0.02  0.00   
      8   H               -0.03  0.02  0.00   -0.00  0.02 -0.00   -0.01  0.02  0.00   
      9   H                0.00  0.02 -0.00   -0.06  0.06 -0.00   -0.02 -0.03  0.00   
     10   H               -0.00 -0.02 -0.00   -0.06  0.06  0.00   -0.02 -0.03 -0.00   
     11   C                0.18  0.11 -0.00    0.19  0.11 -0.00    0.01 -0.01  0.00   
     12   C               -0.18 -0.11  0.00    0.19  0.11  0.00    0.01 -0.01 -0.00   
     13   H               -0.30  0.02 -0.00   -0.29  0.02  0.00   -0.05  0.21 -0.00   
     14   H                0.30 -0.02  0.00   -0.29  0.02  0.00   -0.05  0.21  0.00   
     15   C               -0.15 -0.12 -0.00   -0.15 -0.12 -0.00   -0.04 -0.03 -0.00   
     16   C                0.15  0.12 -0.00   -0.15 -0.12 -0.00   -0.04 -0.03  0.00   
     17   H                0.43 -0.05 -0.00    0.43 -0.05 -0.00   -0.08  0.45  0.00   
     18   H               -0.43  0.05 -0.00    0.43 -0.05 -0.00   -0.08  0.45 -0.00   
     19   H               -0.04  0.37 -0.00   -0.05  0.36  0.00    0.46 -0.14 -0.00   
     20   H                0.04 -0.37 -0.00   -0.05  0.36 -0.00    0.46 -0.14  0.00   

  Vibration                       52                  53                  54          
  Freq [cm^-1]                3521.1425           3565.5418           3565.9634       
  Irrep                           Ag                  Bu                  Ag          
  Reduced mass [u]              1.0638              1.0994              1.0996        
  Force const [mDyne/A]         7.7710              8.2351              8.2381        
  Turning point v=0 [a0]        0.1793              0.1753              0.1752        
  RMS dev v=0 [a0 u^1/2]        0.1308              0.1299              0.1299        
  Char temp [K]               5066.1401           5130.0208           5130.6273       
  ----------------------------------------------------------------------------------
      1   C                0.00  0.00  0.00   -0.00  0.00 -0.00    0.00 -0.00  0.00   
      2   C               -0.00 -0.00  0.00   -0.00  0.00 -0.00   -0.00  0.00  0.00   
      3   C                0.00 -0.00  0.00    0.00 -0.00 -0.00   -0.00  0.00 -0.00   
      4   C               -0.00  0.00  0.00    0.00 -0.00 -0.00    0.00 -0.00  0.00   
      5   C                0.00  0.00  0.00   -0.00 -0.00  0.00   -0.00 -0.00  0.00   
      6   C               -0.00 -0.00  0.00   -0.00 -0.00  0.00    0.00  0.00 -0.00   
      7   H               -0.00  0.00  0.00   -0.00  0.00 -0.00    0.00 -0.01 -0.00   
      8   H                0.00 -0.00 -0.00   -0.00  0.00  0.00   -0.00  0.01 -0.00   
      9   H               -0.02 -0.02  0.00    0.01  0.01  0.00    0.01  0.01  0.00   
     10   H                0.02  0.02  0.00    0.01  0.01 -0.00   -0.01 -0.01  0.00   
     11   C                0.01 -0.01  0.00    0.01 -0.06  0.00    0.01 -0.06 -0.00   
     12   C               -0.01  0.01 -0.00    0.01 -0.06 -0.00   -0.01  0.06 -0.00   
     13   H               -0.05  0.21 -0.00   -0.15  0.65 -0.00   -0.15  0.65  0.00   
     14   H                0.05 -0.21 -0.00   -0.15  0.65 -0.00    0.15 -0.65 -0.00   
     15   C               -0.04 -0.03 -0.00    0.01  0.02  0.00    0.01  0.02  0.00   
     16   C                0.04  0.03  0.00    0.01  0.02  0.00   -0.01 -0.02  0.00   
     17   H               -0.08  0.46 -0.00    0.03 -0.16 -0.00    0.03 -0.16 -0.00   
     18   H                0.08 -0.46 -0.00    0.03 -0.16  0.00   -0.03  0.16 -0.00   
     19   H                0.46 -0.14 -0.00   -0.13  0.04 -0.00   -0.13  0.04  0.00   
     20   H               -0.46  0.14  0.00   -0.13  0.04  0.00    0.13 -0.04  0.00   

  Vibration                       55                  56                  57          
  Freq [cm^-1]                3575.5260           3582.3371           3602.8536       
  Irrep                           Bu                  Ag                  Bu          
  Reduced mass [u]              1.0930              1.0946              1.0994        
  Force const [mDyne/A]         8.2329              8.2762              8.4078        
  Turning point v=0 [a0]        0.1755              0.1752              0.1743        
  RMS dev v=0 [a0 u^1/2]        0.1298              0.1296              0.1293        
  Char temp [K]               5144.3858           5154.1855           5183.7041       
  ----------------------------------------------------------------------------------
      1   C                0.00  0.00  0.00    0.00  0.00  0.00    0.00  0.00 -0.00   
      2   C                0.00  0.00  0.00   -0.00 -0.00  0.00    0.00  0.00 -0.00   
      3   C                0.02 -0.05 -0.00    0.02 -0.06 -0.00    0.01 -0.02 -0.00   
      4   C                0.02 -0.05 -0.00   -0.02  0.06 -0.00    0.01 -0.02  0.00   
      5   C                0.01  0.02  0.00    0.01  0.02 -0.00   -0.04 -0.04 -0.00   
      6   C                0.01  0.02  0.00   -0.01 -0.02 -0.00   -0.04 -0.04  0.00   
      7   H               -0.22  0.60  0.00   -0.23  0.62 -0.00   -0.10  0.27 -0.00   
      8   H               -0.22  0.60  0.00    0.23 -0.62 -0.00   -0.10  0.27  0.00   
      9   H               -0.18 -0.23  0.00   -0.16 -0.19  0.00    0.40  0.50 -0.00   
     10   H               -0.18 -0.23  0.00    0.16  0.19 -0.00    0.40  0.50  0.00   
     11   C               -0.00  0.00 -0.00    0.00 -0.00  0.00    0.00 -0.00  0.00   
     12   C               -0.00  0.00  0.00   -0.00  0.00 -0.00    0.00 -0.00  0.00   
     13   H                0.00 -0.01  0.00   -0.00  0.01 -0.00    0.00 -0.00 -0.00   
     14   H                0.00 -0.01 -0.00    0.00 -0.01  0.00    0.00 -0.00 -0.00   
     15   C                0.00  0.00 -0.00    0.00  0.00 -0.00   -0.00  0.00 -0.00   
     16   C                0.00  0.00  0.00   -0.00 -0.00  0.00   -0.00  0.00 -0.00   
     17   H                0.00 -0.02  0.00    0.00 -0.01  0.00   -0.00  0.00  0.00   
     18   H                0.00 -0.02  0.00   -0.00  0.01 -0.00   -0.00  0.00  0.00   
     19   H               -0.03  0.01  0.00   -0.01  0.00  0.00    0.03 -0.01 -0.00   
     20   H               -0.03  0.01  0.00    0.01 -0.00  0.00    0.03 -0.01  0.00   

  Vibration                       58                  59                  60          
  Freq [cm^-1]                3605.8119           3680.4280           3680.4335       
  Irrep                           Ag                  Bu                  Ag          
  Reduced mass [u]              1.0997              1.1198              1.1197        
  Force const [mDyne/A]         8.4239              8.9369              8.9363        
  Turning point v=0 [a0]        0.1743              0.1709              0.1709        
  RMS dev v=0 [a0 u^1/2]        0.1292              0.1279              0.1279        
  Char temp [K]               5187.9605           5295.3164           5295.3243       
  ----------------------------------------------------------------------------------
      1   C                0.00 -0.00  0.00   -0.00 -0.00  0.00    0.00  0.00  0.00   
      2   C               -0.00  0.00 -0.00   -0.00 -0.00  0.00   -0.00 -0.00 -0.00   
      3   C                0.01 -0.02 -0.00    0.00 -0.00 -0.00    0.00 -0.00  0.00   
      4   C               -0.01  0.02  0.00    0.00 -0.00  0.00   -0.00  0.00 -0.00   
      5   C               -0.04 -0.05  0.00   -0.00 -0.00  0.00   -0.00 -0.00 -0.00   
      6   C                0.04  0.05 -0.00   -0.00 -0.00 -0.00    0.00  0.00  0.00   
      7   H               -0.09  0.23 -0.00   -0.00  0.00  0.00   -0.00  0.00  0.00   
      8   H                0.09 -0.23 -0.00   -0.00  0.00 -0.00    0.00 -0.00 -0.00   
      9   H                0.42  0.51 -0.00    0.02  0.02  0.00    0.02  0.02 -0.00   
     10   H               -0.42 -0.51 -0.00    0.02  0.02  0.00   -0.02 -0.02 -0.00   
     11   C                0.00  0.00  0.00    0.00 -0.00 -0.00    0.00 -0.00  0.00   
     12   C               -0.00 -0.00 -0.00    0.00 -0.00 -0.00   -0.00  0.00  0.00   
     13   H                0.00 -0.00 -0.00   -0.00  0.03  0.00   -0.00  0.03 -0.00   
     14   H               -0.00  0.00  0.00   -0.00  0.03  0.00    0.00 -0.03 -0.00   
     15   C               -0.00  0.00 -0.00    0.05 -0.05  0.00    0.05 -0.05 -0.00   
     16   C                0.00 -0.00  0.00    0.05 -0.05  0.00   -0.05  0.05 -0.00   
     17   H               -0.00  0.00 -0.00   -0.09  0.50 -0.00   -0.09  0.50  0.00   
     18   H                0.00 -0.00 -0.00   -0.09  0.50  0.00    0.09 -0.50 -0.00   
     19   H                0.04 -0.01 -0.00   -0.47  0.14  0.00   -0.47  0.14 -0.00   
     20   H               -0.04  0.01  0.00   -0.47  0.14  0.00    0.47 -0.14 -0.00   

  ==> Thermochemistry Components <==

  Entropy, S
    Electronic S            0.000 [cal/(mol K)]        0.000 [J/(mol K)]       0.00000000 [mEh/K] (multiplicity = 1)
    Translational S        40.502 [cal/(mol K)]      169.460 [J/(mol K)]       0.06454379 [mEh/K] (mol. weight = 130.0783 [u], P = 101325.00 [Pa])
    Rotational S           28.143 [cal/(mol K)]      117.751 [J/(mol K)]       0.04484891 [mEh/K] (symmetry no. = 2)
    Vibrational S          14.370 [cal/(mol K)]       60.124 [J/(mol K)]       0.02290021 [mEh/K]
  Total S                  83.015 [cal/(mol K)]      347.335 [J/(mol K)]       0.13229291 [mEh/K]
  Correction S              0.000 [cal/(mol K)]        0.000 [J/(mol K)]       0.00000000 [mEh/K]

  Constant volume heat capacity, Cv
    Electronic Cv           0.000 [cal/(mol K)]        0.000 [J/(mol K)]       0.00000000 [mEh/K]
    Translational Cv        2.981 [cal/(mol K)]       12.472 [J/(mol K)]       0.00475022 [mEh/K]
    Rotational Cv           2.981 [cal/(mol K)]       12.472 [J/(mol K)]       0.00475022 [mEh/K]
    Vibrational Cv         22.921 [cal/(mol K)]       95.901 [J/(mol K)]       0.03652659 [mEh/K]
  Total Cv                 28.882 [cal/(mol K)]      120.844 [J/(mol K)]       0.04602702 [mEh/K]
  Correction Cv             0.000 [cal/(mol K)]        0.000 [J/(mol K)]       0.00000000 [mEh/K]

  Constant pressure heat capacity, Cp
    Electronic Cp           0.000 [cal/(mol K)]        0.000 [J/(mol K)]       0.00000000 [mEh/K]
    Translational Cp        4.968 [cal/(mol K)]       20.786 [J/(mol K)]       0.00791703 [mEh/K]
    Rotational Cp           2.981 [cal/(mol K)]       12.472 [J/(mol K)]       0.00475022 [mEh/K]
    Vibrational Cp         22.921 [cal/(mol K)]       95.901 [J/(mol K)]       0.03652659 [mEh/K]
  Total Cp                 30.870 [cal/(mol K)]      129.158 [J/(mol K)]       0.04919383 [mEh/K]
  Correction Cp             0.000 [cal/(mol K)]        0.000 [J/(mol K)]       0.00000000 [mEh/K]

  ==> Thermochemistry Energy Analysis <==

  Raw electronic energy, E0
  Total E0, Electronic energy at well bottom at 0 [K]                 -379.77011152 [Eh]

  Zero-point energy, ZPE_vib = Sum_i nu_i / 2
    Electronic ZPE          0.000 [kcal/mol]        0.000 [kJ/mol]       0.00000000 [Eh]
    Translational ZPE       0.000 [kcal/mol]        0.000 [kJ/mol]       0.00000000 [Eh]
    Rotational ZPE          0.000 [kcal/mol]        0.000 [kJ/mol]       0.00000000 [Eh]
    Vibrational ZPE       120.283 [kcal/mol]      503.263 [kJ/mol]       0.19168284 [Eh]       42069.520 [cm^-1]
  Correction ZPE          120.283 [kcal/mol]      503.263 [kJ/mol]       0.19168284 [Eh]       42069.520 [cm^-1]
  Total ZPE, Electronic energy at 0 [K]                               -379.57842868 [Eh]

  Thermal Energy, E (includes ZPE)
    Electronic E            0.000 [kcal/mol]        0.000 [kJ/mol]       0.00000000 [Eh]
    Translational E         0.889 [kcal/mol]        3.718 [kJ/mol]       0.00141628 [Eh]
    Rotational E            0.889 [kcal/mol]        3.718 [kJ/mol]       0.00141628 [Eh]
    Vibrational E         123.028 [kcal/mol]      514.751 [kJ/mol]       0.19605825 [Eh]
  Correction E            124.806 [kcal/mol]      522.188 [kJ/mol]       0.19889080 [Eh]
  Total E, Electronic energy at  298.15 [K]                           -379.57122071 [Eh]

  Enthalpy, H_trans = E_trans + k_B * T
    Electronic H            0.000 [kcal/mol]        0.000 [kJ/mol]       0.00000000 [Eh]
    Translational H         1.481 [kcal/mol]        6.197 [kJ/mol]       0.00236046 [Eh]
    Rotational H            0.889 [kcal/mol]        3.718 [kJ/mol]       0.00141628 [Eh]
    Vibrational H         123.028 [kcal/mol]      514.751 [kJ/mol]       0.19605825 [Eh]
  Correction H            125.398 [kcal/mol]      524.667 [kJ/mol]       0.19983499 [Eh]
  Total H, Enthalpy at  298.15 [K]                                    -379.57027653 [Eh]

  Gibbs free energy, G = H - T * S
    Electronic G            0.000 [kcal/mol]        0.000 [kJ/mol]       0.00000000 [Eh]
    Translational G       -10.594 [kcal/mol]      -44.327 [kJ/mol]      -0.01688327 [Eh]
    Rotational G           -7.502 [kcal/mol]      -31.389 [kJ/mol]      -0.01195543 [Eh]
    Vibrational G         118.744 [kcal/mol]      496.825 [kJ/mol]       0.18923055 [Eh]
  Correction G            100.647 [kcal/mol]      421.109 [kJ/mol]       0.16039185 [Eh]
  Total G, Free enthalpy at  298.15 [K]                               -379.60971966 [Eh]

    Psi4 stopped on: Saturday, 07 March 2020 11:38PM
    Psi4 wall time for execution: 0:06:05.65

*** Psi4 exiting successfully. Buy a developer a beer!
