cp: cannot stat ‘/ihome/kjordan/shu8/projects/code_tests/cclib/cfour_tests/cclib/data/CFOUR/GENBAS’: No such file or directory
 --invoking executable--
/ihome/kjordan/shu8/software/source/cfour/cfour-public-gnu-mkl2017/bin/xjoda


   *************************************************************************
         <<<     CCCCCC     CCCCCC   |||     CCCCCC     CCCCCC   >>>
       <<<      CCC        CCC       |||    CCC        CCC         >>>
      <<<      CCC        CCC        |||   CCC        CCC            >>>
    <<<        CCC        CCC        |||   CCC        CCC              >>>
      <<<      CCC        CCC        |||   CCC        CCC            >>>
       <<<      CCC        CCC       |||    CCC        CCC         >>>
         <<<     CCCCCC     CCCCCC   |||     CCCCCC     CCCCCC   >>>
   *************************************************************************

     ****************************************************************
     * CFOUR Coupled-Cluster techniques for Computational Chemistry *
     ****************************************************************


   Department of Chemistry                Institut fuer Physikalische Chemie
   University of Florida                  Universitaet Mainz
   Gainesville, FL 32611, USA             D-55099 Mainz, Germany

   Department of Chemistry                Fakultaet fuer Chemie und Biowiss.
   Johns Hopkins University               Karlsruher Institut fuer Technologie
   Baltimore, MD 21218, USA               D-76131 Karlsruhe, Germany

   Department of Chemistry                Department of Physical Chemistry
   Southern Methodist University          Eotvos Lorand University
   Dallas, TX 75275, USA                  H-1053 Budapest, Hungary


                       Version 2.1

                     smp-n17.sam.pitt.edu                              
                     Fri Jul 23 10:50:59 EDT 2021                      
                     integer*8 version is running

********************************************************************************
*                          Input from ZMAT file                                *
********************************************************************************
DVB                                                                             
C     -1.4152533224    0.2302217854    0.0000000000                             
C      1.4152533224   -0.2302217854    0.0000000000                             
C     -0.4951331558    1.3144608674    0.0000000000                             
C      0.4951331558   -1.3144608674    0.0000000000                             
C      0.8894090436    1.0909493743    0.0000000000                             
C     -0.8894090436   -1.0909493743    0.0000000000                             
H     -0.8795511985    2.3437343748    0.0000000000                             
H      0.8795511985   -2.3437343748    0.0000000000                             
H      1.5779041557    1.9450061275    0.0000000000                             
H     -1.5779041557   -1.9450061275    0.0000000000                             
C      2.8845844962   -0.5210893778    0.0000000000                             
C     -2.8845844962    0.5210893778    0.0000000000                             
H      3.1403356810   -1.5919605685    0.0000000000                             
H     -3.1403356810    1.5919605685    0.0000000000                             
C      3.8800428103    0.3822535424    0.0000000000                             
C     -3.8800428103   -0.3822535424    0.0000000000                             
H      3.6946765858    1.4624389570    0.0000000000                             
H     -3.6946765858   -1.4624389570    0.0000000000                             
H      4.9316453546    0.0711049543    0.0000000000                             
H     -4.9316453546   -0.0711049543    0.0000000000                             
                                                                                
*CFOUR(BASIS=STO-3G                                                             
CALC_LEVEL=SCF                                                                  
REFERENCE=RHF                                                                   
COORDINATES=CARTESIAN                                                           
VIBRATION=ANALYTIC                                                              
CHARGE=0                                                                        
MULTIPLICITY=1)                                                                 
                                                                                
********************************************************************************
    -------------------------------------------------------------------
                    CFOUR Control Parameters 
    -------------------------------------------------------------------
        External           Internal           Value            Units
          Name               Name
    -------------------------------------------------------------------
       ABCDTYPE             IABCDT         STANDARD    [  0]    ***   
       ANHARMONIC           IANHAR         OFF         [  0]    ***   
       ANH_ALGORIT          IANALG         STANDARD    [  0]    ***   
       ANH_DERIVAT          IANDER         SECOND      [  1]    ***   
       ANH_MODE             ANHMOD         VIBRATION   [  0]    ***   
       ANH_STEPSIZ          ICUBST             50000          x 10-6  
       ANH_SYMMETR          IANHSM         ABELIAN     [  0]    ***   
       AO_LADDERS           IAOLAD         SINGLEPASS  [  1]    ***   
       AV_SCF               IAVSCF         OFF         [  0]    ***   
       BASIS                IBASIS         STO-3G      [  2]    ***   
       BOTHVECTORS          BOTHVC         OFF         [  0]    ***   
       BOX_POTENT           IPIAB          OFF         [  0]    ***   
       BREIT                IBREIT         OFF         [  0]    ***   
       BRUCK_CONV           IBRTOL          10D-  4             ***   
       BRUECKNER            IBRKNR         OFF         [  0]    ***   
       BUFFERSIZE           IBUFFS              4096            ***   
       CACHE_RECS           ICHREC             10               ***   
       CALCLEVEL            ICLLVL         SCF         [  0]    ***   
       CCORBOPT             ICCORB         OFF         [  0]  x 0.01  
       CC_CONV              ICCCNV          10D-  7             ***   
       CC_EXPORDER          ICCEOR              0               ***   
       CC_EXTRAPOL          ICCEXT         DIIS        [  1]    ***   
       CC_GUESS             ICCGES         MP2         [  0]    ***   
       CC_MAXCYC            ICCCYC              0              cycles 
       CC_PROGRAM           ICCPRO         VCC         [  0]    ***   
       CHARGE               ICHRGE              0               ***   
       CHOLESKY             ICHOLE         OFF         [  0]    ***   
       CIS_CONV             ICISTL              5               ***   
       COMM_SIZE            IPSIZE            ***               ***   
       CONSTANT             ICONST         OLD         [  1]    ***   
       CONTINUUM            ICONTU         NONE        [  0]    ***   
       CONTRACTION          ICNTYP         GENERAL     [  1]    ***   
       COORDINATES          ICOORD         CARTESIAN   [  1]    ***   
       CPHF_CONVER          ICPHFT          10D- 16             ***   
       CPHF_MAXCYC          ICPHFC             64              cycles 
       CUBIC                ICUBIC         OFF         [  0]    ***   
       CURVILINEAR          ICURVY         OFF         [  0]    ***   
       DBOC                 IDBOC          OFF         [  0]    ***   
       DCT                  IDCT           OFF         [  0]    ***   
       DERIV_LEV            IDRLVL         SECOND      [  2]    ***   
       DEVMEM_SIZE          IDVMEM          50000000           MByte  
       DIAG_MRCC            IEOMST          10D-  0             ***   
       DIFF_TYPE            IDIFTY         RELAXED     [  0]    ***   
       DIRECT               IDIRCT         OFF         [  0]    ***   
       DROPMO               IDRPMO      NONE         
       ECP                  IECP           OFF         [  0]    ***   
       EIGENVECTOR          IVEC                1               ***   
       EL_ANHARM            IELANH         OFF         [  0]    ***   
       EOMFOLLOW            IEOMSR         ENERGY      [  0]    ***   
       EOMIP                IEOMIP         OFF         [  0]    ***   
       EOMLEVEL             HBARFM         SAME        [  0]    ***   
       EOM_MRCC             IMRCCE         NEW         [  1]    ***   
       EOM_NONIT            EOMNON         OFF         [  0]    ***   
       EOM_NSING            IEOMSI          10D-  0             ***   
       EOM_NSTATES          IMRCCD         DAVIDSON    [  0]    ***   
       EOM_NTRIP            IEOMTR          10D-  0             ***   
       EOM_ORDER            IEXORD         ENERGY      [  0]    ***   
       EOM_PROPSTA          IEOMST              0               ***   
       ESTATE_CONV          IEXTOL          10D-  5             ***   
       ESTATE_DIAG          IEXDIG         ITERATIVE   [  0]    ***   
       ESTATE_LOCK          IESLOC         ON          [  1]    ***   
       ESTATE_MAXC          IEXMXC             40               ***   
       ESTATE_PROP          IEXPRP         OFF         [  0]    ***   
       EVAL_HESS            IRECAL              0            # of cyc.
       EXCITATION           IEXCIT              0               ***   
       EXCITE               IEXCIT         NONE        [  0]    ***   
       EXTERN_POT           IEXPOT         OFF         [  0]    ***   
       FCGRADNEW            IFCGNW         OFF         [  0]    ***   
       FC_FIELD             IFINFC              0             x 10-6  
       FD_CALTYPE           IFDCAL         GRADONLY    [  0]    ***   
       FD_PROJECT           IFDPRJ         OFF         [  1]    ***   
       FD_STEPSIZE          IDISFD              0            10-4 bohr
       FD_USEGROUP          IFDGRP         FULL        [  0]    ***   
       FILE_RECSIZ          IFLREC              4096           words  
       FINITE_PERT          IFIPER              0             x 10-6  
       FIXGEOM              IFIXGM         OFF         [  0]    ***   
       FOCK                 IFOCK          AO          [  1]    ***   
       FREQ_ALGORI          IVIALG         STANDARD    [  0]    ***   
       FROZEN_CORE          IFROCO         OFF         [  0]    ***   
       GAMMA_ABCD           IGABCD         STORE       [  0]    ***   
       GAMMA_ABCI           IGABCI         STORE       [  0]    ***   
       GENBAS_1             IGNBS1              0               ***   
       GENBAS_2             IGNBS2              0               ***   
       GENBAS_3             IGNBS3              0               ***   
       GENBAS_4             IGNBS4              0               ***   
       GEO_CONV             ICONTL              5              H/bohr 
       GEO_MAXCYC           IOPTCY             50               ***   
       GEO_MAXSTEP          IMXSTP            300            millibohr
       GEO_METHOD           INR            SINGLE_POINT[  5]    ***   
       GIAO                 IGIAO          OFF         [  1]    ***   
       GIMIC                IGIMIC         OFF         [  0]    ***   
       GRID                 IGRID          OFF         [  0]    ***   
       GRID_ALGO            IGALGO         SERIAL      [  0]    ***   
       GUESS                IGUESS         MOREAD      [  0]    ***   
       HBAR                 IHBAR          OFF         [  0]    ***   
       HESS_TYPE            IHESTP         SCF         [  0]    ***   
       HF2_FILE             IHF2Fl         USE         [  1]    ***   
       HFSTABILITY          ISTABL         OFF         [  0]    ***   
       INCORE               INCORE         OFF         [  0]    ***   
       INPUT_MRCC           IMRCC          ON          [  1]    ***   
       INTEGRALS            INTTYP         VMOL        [  1]    ***   
       JODA_PRINT           IJPRNT              0               ***   
       KEYWORD_OUT          IDMPKW         NO          [  0]    ***   
       LINDEP_TOL           ILINDP              8               ***   
       LINEQ_CONV           IZTACN          10D-  7           cycles  
       LINEQ_EXPOR          ILMAXD              5               ***   
       LINEQ_MAXCY          ILMAXC            100               ***   
       LINEQ_TYPE           ILTYPE         DIIS        [  1]    ***   
       LOCK_ORBOCC          ILOCOC         OFF         [  0]    ***   
       MEMORY_SIZE          IMEMSZ         100000000           words  
       MEM_UNIT             IMEMU          INTEGERWORDS[  0]    ***   
       MRCC                 IMRCCC         OFF         [  0]    ***   
       MULTIPLICTY          IMULTP              1               ***   
       NACOUPLING           IVCOUP         OFF         [  0]    ***   
       NEGEVAL              IDIE           ABORT       [  0]    ***   
       NEWNORM              INEWNO         OFF         [  0]    ***   
       NON-HF               INONHF         OFF         [  0]    ***   
       NTOP_TAMP            ITOPT2             15               ***   
       NUC_MODEL            INUCMO         POINT       [  0]    ***   
       OCCUPATION           IOCCU   ESTIMATED BY SCF 
       OPEN-SHELL           IOPEN          SPIN-ORBITAL[  0]    ***   
       OPTVIB               IOPTVB         OFF         [  0]    ***   
       ORBITALS             IORBTP         STANDARD    [  0]    ***   
       PARALLEL             IPARAL         ON          [  1]    ***   
       PARA_INT             IPINTS         ON          [  1]    ***   
       PARA_PRINT           IPPRIN              0               ***   
       PERT_ORB             IPTORB         STANDARD    [  0]    ***   
       POINTS               IGRDFD              0               ***   
       PRINT                IPRNT               0               ***   
       PROPS                IPROPS         OFF         [  0]    ***   
       PROP_INTEGR          IINTYP         INTERNAL    [  0]    ***   
       PSI                  IPSI           OFF         [  0]    ***   
       QC_ALG               IQCALG         FLM         [  0]    ***   
       QC_LINALG            IQCLIN         TRIDIAG     [  2]    ***   
       QC_MAXCYC            IQCMAX          10D-100           cycles  
       QC_MAXSCFCY          IQCMSC          10D- 15           cycles  
       QC_RTRUST            IQCRTR          10D-  0           x 10-3  
       QC_SKIPSCF           IQCSKI         OFF         [  0]    ***   
       QC_START             IQCSTA          10D-  1             ***   
       QRHFGUESS            IQGUES         OFF         [  0]    ***   
       QUARTIC              IQUART         OFF         [  0]    ***   
       RAMAN_INT            IRAMIN         OFF         [  0]    ***   
       RAMAN_ORB            IRAMRE         UNRELAXED   [  0]    ***   
       RDO                  IRDOFM         OFF         [  0]    ***   
       REDUCE_REPR          REDREP         Ir          [  0]    ***   
       REFERENCE            IREFNC         RHF         [  0]    ***   
       RELATIVIST           IRELAT         OFF         [  0]    ***   
       RELAX_DENS           IRDENS         OFF         [  0]    ***   
       RESET_FLAGS          IRESET         OFF         [  0]    ***   
       RESTART_CC           ICCRES         OFF         [  0]    ***   
       ROT_EVEC             ROTVEC              0               ***   
       SAVE_INTS            ISVINT         OFF         [  0]    ***   
       SCALE_ON             ISTCRT              0               ***   
       SCF_CONV             ISCFCV          10D-  7             ***   
       SCF_DAMPING          IDAMP               0             x 10-3  
       SCF_EXPORDE          IRPPOR              6               ***   
       SCF_EXPSTAR          IRPPLS              8               ***   
       SCF_EXTRAPO          IRPP           ON          [  1]    ***   
       SCF_MAXCYC           ISCFCY            150              cycles 
       SCF_NOSTOP           ISCFST         OFF         [  0]    ***   
       SCF_PRINT            ISCFPR              0               ***   
       SCF_PROG             ISCFPR         SCF         [  0]    ***   
       SD_FIELD             IFINSD              0             x 10-6  
       SOPERT               IPERSO         OFF         [  0]    ***   
       SPHERICAL            IDFGHI         ON          [  1]    ***   
       SPINORBIT            ISOCAL         OFF         [  0]    ***   
       SPINROTATIO          ISRCON         OFF         [  0]    ***   
       SPIN_FLIP            ISPFLP         OFF         [  0]    ***   
       SPIN_ORBIT           ISPORB         OFF         [  0]    ***   
       SPIN_SCAL            ISCSMP         OFF         [  0]    ***   
       STEEPSCALE           ISTPSC              1000          x 10-3  
       SUBGROUP             ISUBGP         DEFAULT     [  0]    ***   
       SUBGRPAXIS           ISBXYZ         X           [  0]    ***   
       SYMMETRY             ISYM           ON          [  0]    ***   
       SYM_CHECK            ISYMCK         OVERRIDE    [  1]    ***   
       T3_EXTRAPOL          IT3EXT         OFF         [  0]    ***   
       T4_EXTRAPOL          IT4EXP         OFF         [  0]    ***   
       TAMP_SUM             IEVERY              0               ***   
       TESTSUITE            ITESTS         OFF         [  0]    ***   
       THERMOCH             ITHERM         ON          [  1]    ***   
       TOL_CHOLESK          ITOLCH          10D-  4             ***   
       TRANGRAD             IRESRM         OFF         [  0]    ***   
       TRANS_INV            ITRAIN         USE         [  0]    ***   
       TREAT_PERT           ITREAT         SIMULTANEOUS[  0]    ***   
       TRIP_ALGORI          ITRALG         NORMAL      [  0]    ***   
       UIJ_THRESHO          IUIJTH              1               ***   
       UNITS                IUNITS         ANGSTROM    [  0]    ***   
       UNOS                 IUNOS          OFF         [  0]    ***   
       UPDATE_HESS          IHUPDT         ON          [  1]    ***   
       VIBPHASE             ISETPH         STANDARD    [  0]    ***   
       VIBRATION            IVIB           ANALYTIC    [  1]    ***   
       VIB_ALGORIT          IGEALG         STANDARD    [  0]    ***   
       VNATORB              IVNORB         OFF         [  0]    ***   
       VTRAN                IVTRAN         FULL/PARTIAL[  0]    ***   
       XFIELD               IXEFLD              0             x 10-6  
       XFORM_TOL            IXFTOL          10D- 11             ***   
       YFIELD               IYEFLD              0             x 10-6  
       ZFIELD               IZEFLD              0             x 10-6  
       ZSCALE_EXP           IZEXPS         OFF         [  0]    ***   
    -------------------------------------------------------------------
  @GETXYZ-I,    20 atoms read from ZMAT.
   Rotational constants (in cm-1): 
          0.0199168511             0.0228745556             0.1540346947
   Rotational constants (in MHz): 
        597.0922573598           685.7620215298          4617.8446202006
********************************************************************************
   The full molecular point group is C2h .
   The largest Abelian subgroup of the full molecular point group is C2h .
   The computational point group is C2h .
********************************************************************************


 ----------------------------------------------------------------
         Coordinates used in calculation (QCOMP) 
 ----------------------------------------------------------------
 Z-matrix   Atomic            Coordinates (in bohr)
  Symbol    Number           X              Y              Z
 ----------------------------------------------------------------
     C         6        -2.67238813     0.44749770     0.00000000
     C         6         2.67238813    -0.44749770     0.00000000
     C         6        -0.92409633     2.48829903     0.00000000
     C         6         0.92409633    -2.48829903     0.00000000
     C         6         1.69031582     2.05375189     0.00000000
     C         6        -1.69031582    -2.05375189     0.00000000
     H         1        -1.64148166     4.43670411     0.00000000
     H         1         1.64148166    -4.43670411     0.00000000
     H         1         2.99888006     3.66161326     0.00000000
     H         1        -2.99888006    -3.66161326     0.00000000
     C         6         5.44643416    -1.01007373     0.00000000
     C         6        -5.44643416     1.01007373     0.00000000
     H         1         5.92031114    -3.03595467     0.00000000
     H         1        -5.92031114     3.03595467     0.00000000
     C         6         7.33550206     0.68822447     0.00000000
     C         6        -7.33550206    -0.68822447     0.00000000
     H         1         6.99471389     2.73108756     0.00000000
     H         1        -6.99471389    -2.73108756     0.00000000
     H         1         9.31998542     0.09099696     0.00000000
     H         1        -9.31998542    -0.09099696     0.00000000
 ----------------------------------------------------------------

   Interatomic distance matrix (Angstroms) 

                 C             C             C             C             C    
                [ 1]        [ 2]        [ 3]        [ 4]        [ 5]
  C    [ 1]     0.00000
  C    [ 2]     2.86771     0.00000
  C    [ 3]     1.42204     2.45675     0.00000
  C    [ 4]     2.45675     1.42204     2.80925     0.00000
  C    [ 5]     2.46015     1.42197     1.40247     2.43751     0.00000
  C    [ 6]     1.42197     2.46015     2.43751     1.40247     2.81512
  H    [ 7]     2.18035     3.44839     1.09872     3.90796     2.16765
  H    [ 8]     3.44839     2.18035     3.90796     1.09872     3.43470
  H    [ 9]     3.44956     2.18130     2.16681     3.43461     1.09701
  H    [10]     2.18130     3.44956     3.43461     2.16681     3.91212
  C    [11]     4.36498     1.49784     3.84600     2.51772     2.56503
  C    [12]     1.49784     4.36498     2.51772     3.84600     3.81678
  H    [13]     4.90650     2.19778     4.65445     2.65972     3.50210
  H    [14]     2.19778     4.90650     2.65972     4.65445     4.06077
  C    [15]     5.29748     2.53975     4.47339     3.78635     3.07346
  C    [16]     2.53975     5.29748     3.78635     4.47339     4.99179
  H    [17]     5.25640     2.83917     4.19242     4.23654     2.82976
  H    [18]     2.83917     5.25640     4.23654     4.19242     5.24725
  H    [19]     6.34889     3.52928     5.56739     4.64784     4.16890
  H    [20]     3.52928     6.34889     4.64784     5.56739     5.93591

                 C             H             H             H             H    
                [ 6]        [ 7]        [ 8]        [ 9]        [10]
  C    [ 6]     0.00000
  H    [ 7]     3.43470     0.00000
  H    [ 8]     2.16765     5.00668     0.00000
  H    [ 9]     3.91212     2.48959     4.34523     0.00000
  H    [10]     1.09701     4.34523     2.48959     5.00912     0.00000
  C    [11]     3.81678     4.73032     2.70965     2.79089     4.68416
  C    [12]     2.56503     2.70965     4.73032     4.68416     2.79089
  H    [13]     4.06077     5.62576     2.38250     3.86670     4.73143
  H    [14]     3.50210     2.38250     5.62576     4.73143     3.86670
  C    [15]     4.99179     5.14793     4.05388     2.78245     5.93341
  C    [16]     3.07346     4.05388     5.14793     5.93341     2.78245
  H    [17]     5.24725     4.65835     4.73412     2.17108     6.27780
  H    [18]     2.82976     4.73412     4.65835     6.27780     2.17108
  H    [19]     5.93591     6.23978     4.71709     3.84176     6.81461
  H    [20]     4.16890     4.71709     6.23978     6.81461     3.84176

                 C             C             H             H             C    
                [11]        [12]        [13]        [14]        [15]
  C    [11]     0.00000
  C    [12]     5.86255     0.00000
  H    [13]     1.10099     6.38472     0.00000
  H    [14]     6.38472     1.10099     7.04161     0.00000
  C    [15]     1.34423     6.76605     2.10824     7.12384     0.00000
  C    [16]     6.76605     1.34423     7.12384     2.10824     7.79766
  H    [17]     2.14258     6.64626     3.10430     6.83624     1.09598
  H    [18]     6.64626     2.14258     6.83624     3.10430     7.79611
  H    [19]     2.13100     7.82917     2.44430     8.21401     1.09667
  H    [20]     7.82917     2.13100     8.21401     2.44430     8.82334

                 C             H             H             H             H    
                [16]        [17]        [18]        [19]        [20]
  C    [16]     0.00000
  H    [17]     7.79611     0.00000
  H    [18]     1.09598     7.94717     0.00000
  H    [19]     8.82334     1.86169     8.76158     0.00000
  H    [20]     1.09667     8.76158     1.86169     9.86432     0.00000
 rotcon2
   Rotational constants (in cm-1): 
          0.1540346947             0.0228745556             0.0199168511
   Rotational constants (in MHz): 
       4617.8446202006           685.7620215298           597.0922573598
  GENBAS file not present.   Using default GENBAS. 
 --invoking executable--
/ihome/kjordan/shu8/software/source/cfour/cfour-public-gnu-mkl2017/bin/set_genbas
--executable set_genbas finished with status     0 in        0.01 seconds (walltime).
  ECPDATA file not present.   Using default ECPDATA. 
  There are   60 basis functions.
 @CHECKOUT-I, Total execution time (CPU/WALL):        0.17/       0.19 seconds.
--executable xjoda finished with status     0 in        0.20 seconds (walltime).
 --invoking executable--
/ihome/kjordan/shu8/software/source/cfour/cfour-public-gnu-mkl2017/bin/xvmol
 SERIAL VERSION OF MOLECULE STARTED
********************************************************************************
                    INPUT FROM MOL FILE
********************************************************************************
INTGRL        1    0    1    0    0    0    0    0    0                         
         *** CFOUR Program System (Release V0.1) ***                            
DVB                                                                             
   10    2 Z  XY      0.10E-08              0    0                              
   9999.00      3.00                                                            
          6.00000000    1    2    1    1                                        
C #1  -2.672388130301991   0.447497702207649   0.000000000000000                
    6    2                                                                      
   71.616837300000000       0.15432899999999999        0.0000000000000000       
   13.045096300000001       0.53532809999999997        0.0000000000000000       
   3.5305122000000000       0.44463449999999999        0.0000000000000000       
   2.9412493999999998        0.0000000000000000       -9.9967200000000006E-002  
  0.68348310000000001        0.0000000000000000       0.39951280000000000       
  0.22228990000000001        0.0000000000000000       0.70011550000000000       
    3    1                                                                      
   2.9412493999999998       0.15591630000000001                                 
  0.68348310000000001       0.60768370000000005                                 
  0.22228990000000001       0.39195740000000001                                 
          6.00000000    1    2    1    1                                        
C #2  -0.924096325580836   2.488299025763687   0.000000000000000                
    6    2                                                                      
   71.616837300000000       0.15432899999999999        0.0000000000000000       
   13.045096300000001       0.53532809999999997        0.0000000000000000       
   3.5305122000000000       0.44463449999999999        0.0000000000000000       
   2.9412493999999998        0.0000000000000000       -9.9967200000000006E-002  
  0.68348310000000001        0.0000000000000000       0.39951280000000000       
  0.22228990000000001        0.0000000000000000       0.70011550000000000       
    3    1                                                                      
   2.9412493999999998       0.15591630000000001                                 
  0.68348310000000001       0.60768370000000005                                 
  0.22228990000000001       0.39195740000000001                                 
          6.00000000    1    2    1    1                                        
C #3   1.690315822065242   2.053751887204707   0.000000000000000                
    6    2                                                                      
   71.616837300000000       0.15432899999999999        0.0000000000000000       
   13.045096300000001       0.53532809999999997        0.0000000000000000       
   3.5305122000000000       0.44463449999999999        0.0000000000000000       
   2.9412493999999998        0.0000000000000000       -9.9967200000000006E-002  
  0.68348310000000001        0.0000000000000000       0.39951280000000000       
  0.22228990000000001        0.0000000000000000       0.70011550000000000       
    3    1                                                                      
   2.9412493999999998       0.15591630000000001                                 
  0.68348310000000001       0.60768370000000005                                 
  0.22228990000000001       0.39195740000000001                                 
          1.00000000    1    1    1                                             
H #4  -1.641481662073812   4.436704105033953   0.000000000000000                
    3    1                                                                      
   3.4252509000000000       0.15432899999999999                                 
  0.62391370000000002       0.53532809999999997                                 
  0.16885539999999999       0.44463449999999999                                 
          1.00000000    1    1    1                                             
H #5   2.998880059731860   3.661613256120146   0.000000000000000                
    3    1                                                                      
   3.4252509000000000       0.15432899999999999                                 
  0.62391370000000002       0.53532809999999997                                 
  0.16885539999999999       0.44463449999999999                                 
          6.00000000    1    2    1    1                                        
C #6   5.446434164927560  -1.010073731531766   0.000000000000000                
    6    2                                                                      
   71.616837300000000       0.15432899999999999        0.0000000000000000       
   13.045096300000001       0.53532809999999997        0.0000000000000000       
   3.5305122000000000       0.44463449999999999        0.0000000000000000       
   2.9412493999999998        0.0000000000000000       -9.9967200000000006E-002  
  0.68348310000000001        0.0000000000000000       0.39951280000000000       
  0.22228990000000001        0.0000000000000000       0.70011550000000000       
    3    1                                                                      
   2.9412493999999998       0.15591630000000001                                 
  0.68348310000000001       0.60768370000000005                                 
  0.22228990000000001       0.39195740000000001                                 
          1.00000000    1    1    1                                             
H #7   5.920311137072457  -3.035954666539687   0.000000000000000                
    3    1                                                                      
   3.4252509000000000       0.15432899999999999                                 
  0.62391370000000002       0.53532809999999997                                 
  0.16885539999999999       0.44463449999999999                                 
          6.00000000    1    2    1    1                                        
C #8   7.335502063406305   0.688224471072172   0.000000000000000                
    6    2                                                                      
   71.616837300000000       0.15432899999999999        0.0000000000000000       
   13.045096300000001       0.53532809999999997        0.0000000000000000       
   3.5305122000000000       0.44463449999999999        0.0000000000000000       
   2.9412493999999998        0.0000000000000000       -9.9967200000000006E-002  
  0.68348310000000001        0.0000000000000000       0.39951280000000000       
  0.22228990000000001        0.0000000000000000       0.70011550000000000       
    3    1                                                                      
   2.9412493999999998       0.15591630000000001                                 
  0.68348310000000001       0.60768370000000005                                 
  0.22228990000000001       0.39195740000000001                                 
          1.00000000    1    1    1                                             
H #9   6.994713889404575   2.731087563079105   0.000000000000000                
    3    1                                                                      
   3.4252509000000000       0.15432899999999999                                 
  0.62391370000000002       0.53532809999999997                                 
  0.16885539999999999       0.44463449999999999                                 
          1.00000000    1    1    1                                             
H #0   9.319985418888493   0.090996963293147   0.000000000000000                
    3    1                                                                      
   3.4252509000000000       0.15432899999999999                                 
  0.62391370000000002       0.53532809999999997                                 

Running with 1 threads/proc

  0.16885539999999999       0.44463449999999999                                 
FINISH                                                                          

********************************************************************************
 ONE- AND TWO-ELECTRON INTEGRALS OVER SYMMETRY-ADAPTED AOS ARE CALCULATED.

  SPHERICAL HARMONICS ARE USED.
  
  INTEGRALS LESS THAN  0.10E-13 ARE NEGLECTED.

  NUCLEAR REPULSION ENERGY :  445.9368866056 A.U.
  @MOLECU-I, ONE ELECTRON INTEGRALS (CPU/WALL):        0.04/       0.04 SECONDS.
  @TWOEL-I,     102960 INTEGRALS OF SYMMETRY TYPE  I I I I
  @TWOEL-I,     221234 INTEGRALS OF SYMMETRY TYPE  I J I J
  @TWOEL-I,     121825 INTEGRALS OF SYMMETRY TYPE  I I J J
  @TWOEL-I,      46619 INTEGRALS OF SYMMETRY TYPE  I J K L
  @TWOEL-I, TOTAL NUMBER OF 2-E INTEGRALS     492638.
  @MOLECU-I, TWO ELECTRON INTEGRALS (CPU/WALL):        2.69/       2.69 SECONDS.
 @CHECKOUT-I, Total execution time (CPU/WALL):        2.73/       2.74 seconds.
--executable xvmol finished with status     0 in        2.75 seconds (walltime).
 --invoking executable--
/ihome/kjordan/shu8/software/source/cfour/cfour-public-gnu-mkl2017/bin/xvmol2ja
 @GETMEM-I,  Allocated     762 MB of main memory.
 @CHECKOUT-I, Total execution time (CPU/WALL):        0.00/       0.00 seconds.
--executable xvmol2ja finished with status     0 in        0.02 seconds (walltime).
 --invoking executable--
/ihome/kjordan/shu8/software/source/cfour/cfour-public-gnu-mkl2017/bin/xvscf
  There are   60 functions in the AO basis.

  There are 4 irreducible representations.

       Irrep        # of functions
         1                 25
         2                  5
         3                 25
         4                  5


  Parameters for SCF calculation: 
        SCF reference function:  RHF  
  Maximum number of iterations:  150
     Full symmetry point group: C2h 
     Computational point group: C2h 
        Initial density matrix: MOREAD                 
     SCF convergence tolerance: 10**(- 7)
  DIIS convergence acceleration:  ON
          Latest start for DIIS:   8
                     DIIS order:   6

  Memory information:     165086 words required.
  Fock matrices are constructed from AO integral file.
 @GETMEM-I,  Allocated       1 MB of main memory.
  Initialization and symmetry analysis required      0.001 seconds.

  @INITGES-I, Occupancies from core Hamiltonian:

          Alpha population by irrep:  15    3   14    3
           Beta population by irrep:  15    3   14    3


 total no. of electrons in initial guess :   0.0000000000000000     
  --------------------------------------------------------------------
  Iteration         Total Energy            Largest Density Difference
  --------------------------------------------------------------------
       0           445.936886605585357              0.0000000000D+00
   current occupation vector 
    15  3 14  3
    15  3 14  3
       1          -303.460683366006435              0.2770672417D+01
   current occupation vector 
    15  3 14  3
    15  3 14  3
       2          -296.319257390964765              0.2825959941D+01
   current occupation vector 
    16  2 15  2
    16  2 15  2
       3          -294.845855804310474              0.2839782022D+01
   current occupation vector 
    15  3 14  3
    15  3 14  3
       4          -296.290049837211484              0.2839964017D+01
   current occupation vector 
    16  2 15  2
    16  2 15  2
       5          -294.584893802851013              0.2839972368D+01
   current occupation vector 
    15  3 14  3
    15  3 14  3
       6          -296.322133010704022              0.2839967413D+01
   current occupation vector 
    16  2 15  2
    16  2 15  2
       7          -294.593546508790325              0.2839967483D+01
   current occupation vector 
    15  3 14  3
    15  3 14  3
       8          -296.323846128271327              0.2839967172D+01
   current occupation vector 
    16  2 15  2
    16  2 15  2
       9          -379.602491594005130              0.2398602785D+01
   current occupation vector 
    15  2 15  3
    15  2 15  3
      10          -379.605036232875420              0.9687371770D-01
   current occupation vector 
    15  2 15  3
    15  2 15  3
      11          -379.600343960891962              0.2002221956D-01
   current occupation vector 
    15  2 15  3
    15  2 15  3
      12          -379.607218132428159              0.2815639233D-02
   current occupation vector 
    15  2 15  3
    15  2 15  3
      13          -379.765804599472801              0.1563532237D+00
   current occupation vector 
    15  2 15  3
    15  2 15  3
      14          -379.768395677961109              0.1742614017D-01
   current occupation vector 
    15  2 15  3
    15  2 15  3
      15          -379.768946429224854              0.9299461114D-02
   current occupation vector 
    15  2 15  3
    15  2 15  3
      16          -379.768961315978970              0.1668399537D-02
   current occupation vector 
    15  2 15  3
    15  2 15  3
      17          -379.768962511579446              0.3500515914D-03
   current occupation vector 
    15  2 15  3
    15  2 15  3
      18          -379.768962595198616              0.1380073478D-03
   current occupation vector 
    15  2 15  3
    15  2 15  3
      19          -379.768962600671614              0.3062718102D-04
   current occupation vector 
    15  2 15  3
    15  2 15  3
      20          -379.768962600940483              0.6247762436D-05
   current occupation vector 
    15  2 15  3
    15  2 15  3
      21          -379.768962600956058              0.1090863025D-05
   current occupation vector 
    15  2 15  3
    15  2 15  3
      22          -379.768962600957536              0.4704530339D-06
   current occupation vector 
    15  2 15  3
    15  2 15  3
      23          -379.768962600955831              0.1022135118D-06
   current occupation vector 
    15  2 15  3
    15  2 15  3

  SCF has converged.

 Density matrix saved to file den.dat
 total electron number:   70.000000000000128     
     E(SCF)=      -379.768962600956854              0.7152585124D-07


  Final occupancies:

     Alpha population by irrep:  15    2   15    3
      Beta population by irrep:  15    2   15    3


  Eigenvector printing suppressed.

 @PUTMOS-I, Writing converged MOs to NEWMOS. 
 @PUTMOS-I, Symmetry   1 Full Blocks  6 Partial Blocksize   1
 @PUTMOS-I, Symmetry   2 Full Blocks  1 Partial Blocksize   1
 @PUTMOS-I, Symmetry   3 Full Blocks  6 Partial Blocksize   1
 @PUTMOS-I, Symmetry   4 Full Blocks  1 Partial Blocksize   1
 @PUTFOCK-I, Writing converged Fock matrix to NEWFOCK. 
 @PUTFOCK-I, Symmetry   1 Full Blocks  6 Partial Blocksize   1
 @PUTFOCK-I, Symmetry   2 Full Blocks  1 Partial Blocksize   1
 @PUTFOCK-I, Symmetry   3 Full Blocks  6 Partial Blocksize   1
 @PUTFOCK-I, Symmetry   4 Full Blocks  1 Partial Blocksize   1



  ORBITAL EIGENVALUES (ALPHA)  (1H = 27.2113834 eV)

       MO #        E(hartree)               E(eV)           FULLSYM    COMPSYM
       ----   --------------------   --------------------   -------   ---------
    1    31         -11.0405872764        -300.4296533396      Bu        Bu (3)
    2     1         -11.0405247279        -300.4279513092      Ag        Ag (1)
    3    32         -11.0315890428        -300.1847989538     E          Bu (3)
    4     2         -11.0315887131        -300.1847899832     E          Ag (1)
    5    33         -11.0289523876        -300.1130519195      Bu        Bu (3)
    6     3         -11.0288220227        -300.1095045110      Ag        Ag (1)
    7    34         -11.0286085822        -300.1036964982      Bu        Bu (3)
    8     4         -11.0285855507        -300.1030697791      Ag        Ag (1)
    9    35         -11.0174796056        -299.8008616496     E          Bu (3)
   10     5         -11.0174794280        -299.8008568172     E          Ag (1)
   11     6          -1.0902974483         -29.6685018868      Ag        Ag (1)
   12    36          -1.0202531963         -27.7625008895      Bu        Bu (3)
   13     7          -0.9749249186         -26.5290557465      Ag        Ag (1)
   14    37          -0.9503007562         -25.8589982220      Bu        Bu (3)
   15    38          -0.9096340320         -24.7524003991      Bu        Bu (3)
   16     8          -0.7998822748         -21.7659032551      Ag        Ag (1)
   17     9          -0.7628252767         -20.7575310728      Ag        Ag (1)
   18    39          -0.7276314284         -19.7998577718      Bu        Bu (3)
   19    10          -0.6967760319         -18.9602397488      Ag        Ag (1)
   20    11          -0.6280514343         -17.0901483744      Ag        Ag (1)
   21    40          -0.6056773226         -16.4813178433      Bu        Bu (3)
   22    41          -0.5729412467         -15.5905239303      Bu        Bu (3)
   23    42          -0.5536027936         -15.0642978673      Bu        Bu (3)
   24    12          -0.5531659093         -15.0524096414      Ag        Ag (1)
   25    43          -0.5253583492         -14.2957274611      Bu        Bu (3)
   26    44          -0.4966979365         -13.5158379847      Bu        Bu (3)
   27    13          -0.4925273554         -13.4023507034      Ag        Ag (1)
   28    26          -0.4637290382         -12.6187086520      Au        Au (2)
   29    45          -0.4464304468         -12.1479900490      Bu        Bu (3)
   30    14          -0.4216536391         -11.4737788347      Ag        Ag (1)
   31    15          -0.4156205076         -11.3096089804      Ag        Ag (1)
   32    56          -0.3769627391         -10.2576776200      Bg        Bg (4)
   33    27          -0.3151263879          -8.5750249619      Au        Au (2)
   34    57          -0.2783627007          -7.5746341724      Bg        Bg (4)
   35    58          -0.2221890354          -6.0460710290      Bg        Bg (4)
  +++++++++++++++++++++++++++++++++++++++++++++++++++++++++++++++++++++++++++++
   36    28           0.1989933972           5.4148856258      Au        Au (2)
   37    29           0.2685158936           7.3066889295      Au        Au (2)
   38    59           0.3088252110           8.4035612195      Bg        Bg (4)
   39    30           0.3970771156          10.8050176313      Au        Au (2)
   40    60           0.5217578032          14.1977516235      Bg        Bg (4)
   41    16           0.5650168048          15.3748889038      Ag        Ag (1)
   42    46           0.5755617385          15.6618311361      Bu        Bu (3)
   43    17           0.6215607706          16.9135284339      Ag        Ag (1)
   44    47           0.6258002599          17.0288908039      Bu        Bu (3)
   45    18           0.6582328312          17.9114259374      Ag        Ag (1)
   46    48           0.6593956821          17.9430687185      Bu        Bu (3)
   47    49           0.6771781256          18.4269536048      Bu        Bu (3)
   48    19           0.6941870821          18.8897908423      Ag        Ag (1)
   49    50           0.7067082612          19.2305094483      Bu        Bu (3)
   50    20           0.7401363176          20.1401331055      Ag        Ag (1)
   51    21           0.8022255923          21.8296681645      Ag        Ag (1)
   52    51           0.8256560101          22.4672422468      Bu        Bu (3)
   53    22           0.8606157719          23.4185457291      Ag        Ag (1)
   54    52           0.8877584025          24.1571342567      Bu        Bu (3)
   55    53           0.9210085051          25.0619155473      Bu        Bu (3)
   56    23           0.9399486287          25.5773025131      Ag        Ag (1)
   57    24           0.9902857139          26.9470442373      Ag        Ag (1)
   58    54           1.0272643807          27.9532849151      Bu        Bu (3)
   59    25           1.1077007872          30.1420708130      Ag        Ag (1)
   60    55           1.1249365006          30.6110784187      Bu        Bu (3)


  VSCF finished.

 @CHECKOUT-I, Total execution time (CPU/WALL):        0.22/       0.22 seconds.
--executable xvscf finished with status     0 in        0.24 seconds (walltime).
 --invoking executable--
/ihome/kjordan/shu8/software/source/cfour/cfour-public-gnu-mkl2017/bin/xvtran
 @GETMEM-I,  Allocated     762 MB of main memory.
  Partial RHF integral transformation
  Transformation of IIII integrals :
  1 pass through the AO integral file was required.
      102960 AO integrals were read.
      103083 MO integrals were written to HF2.
  Transformation of IIJJ integrals :
  1 pass through the AO integral file was required.
      121825 AO integrals were read.
      121317 MO integrals were written to HF2.
  Transformation of IJIJ integrals :
  1 pass through the AO integral file was required.
      221234 AO integrals were read.
      221029 MO integrals were written to HF2.
  Transformation of IJKL integrals :
  1 pass through the AO integral file was required.
       46619 AO integrals were read.
       45075 MO integrals were written to HF2.
  Summary of active molecular orbitals: 
------------------------------------------------------------------------

  Index      Eigenvalue    Symmetry    Index      Eigenvalue    Symmetry
------------------------------------------------------------------------
     1       -11.0405247        1        31        -0.4966979        3
     2       -11.0315887        1        32        -0.4464304        3
     3       -11.0288220        1        33        -0.3769627        4
     4       -11.0285856        1        34        -0.2783627        4
     5       -11.0174794        1        35        -0.2221890        4
     6        -1.0902974        1        36         0.5650168        1
     7        -0.9749249        1        37         0.6215608        1
     8        -0.7998823        1        38         0.6582328        1
     9        -0.7628253        1        39         0.6941871        1
    10        -0.6967760        1        40         0.7401363        1
    11        -0.6280514        1        41         0.8022256        1
    12        -0.5531659        1        42         0.8606158        1
    13        -0.4925274        1        43         0.9399486        1
    14        -0.4216536        1        44         0.9902857        1
    15        -0.4156205        1        45         1.1077008        1
    16        -0.4637290        2        46         0.1989934        2
    17        -0.3151264        2        47         0.2685159        2
    18       -11.0405873        3        48         0.3970771        2
    19       -11.0315890        3        49         0.5755617        3
    20       -11.0289524        3        50         0.6258003        3
    21       -11.0286086        3        51         0.6593957        3
    22       -11.0174796        3        52         0.6771781        3
    23        -1.0202532        3        53         0.7067083        3
    24        -0.9503008        3        54         0.8256560        3
    25        -0.9096340        3        55         0.8877584        3
    26        -0.7276314        3        56         0.9210085        3
    27        -0.6056773        3        57         1.0272644        3
    28        -0.5729412        3        58         1.1249365        3
    29        -0.5536028        3        59         0.3088252        4
    30        -0.5253583        3        60         0.5217578        4
------------------------------------------------------------------------
  -11.040524727940969       -11.031588713098087       -11.028822022733417       -11.028585550675407       -11.017479428012049       -1.0902974483395458      -0.97492491860960984      -0.79988227482473140      -0.76282527674811740      -0.69677603193076676      -0.62805143432546695      -0.55316590928757470      -0.49252735542153775      -0.42165363906954828      -0.41562050757008512      -0.46372903819267530      -0.31512638794742115       -11.040587276412015       -11.031589042759080       -11.028952387606109       -11.028608582178077       -11.017479605597687       -1.0202531962972354      -0.95030075619004839      -0.90963403202448756      -0.72763142839027550      -0.60567732264910989      -0.57294124672512747      -0.55360279357494557      -0.52535834915087276      -0.49669793652336641      -0.44643044678765065      -0.37696273905669708      -0.27836270067632829      -0.22218903538017004       0.56501680483498062       0.62156077055166814       0.65823283124372323       0.69418708209712199       0.74013631756447729       0.80222559226915879       0.86061577189406646       0.93994862874575646       0.99028571392994313        1.1077007872003781       0.19899339722099615       0.26851589359190609       0.39707711557607289       0.57556173847911984       0.62580025989807375       0.65939568211968780       0.67717812556296453       0.70670826122935804       0.82565601008020417       0.88775840249006965       0.92100850511274379        1.0272643806508555        1.1249365006075993       0.30882521097893778       0.52175780315263920     
 @CHECKOUT-I, Total execution time (CPU/WALL):        0.21/       0.21 seconds.
--executable xvtran finished with status     0 in        0.22 seconds (walltime).
 --invoking executable--
/ihome/kjordan/shu8/software/source/cfour/cfour-public-gnu-mkl2017/bin/xintprc
 @GETMEM-I,  Allocated     762 MB of main memory.
  Processing integrals for SCF second derivatives.
  @GMOIAA-I, Processing MO integrals for spin case AA.
  @GMOIAA-I, Generation of integral list completed.
                      TYPE                NUMBER
                      ----               --------
                      PPPP                     0
                      PPPH                 82806
                      PPHH                113719
                      PHPH                 61617
                      PHHH                168741
                      HHHH                 63621

                     TOTAL                490504

  @FORMT2-I, Second-order MP correlation energies:
            ------------------------------------------------
            E(SCF)                  =   -379.768962600957 a.u.
            E2(AA)                  =     -0.058778091896 a.u.
            E2(AB)                  =     -0.487444425942 a.u.
            E2(TOT)                 =     -0.605000609734 a.u.
            Total MP2 energy        =   -380.373963210691 a.u.
            ------------------------------------------------
   Largest T2 amplitudes for spin case AB:
       _       _                 _       _                 _       _
   i   j   a   b             i   j   a   b             i   j   a   b
-----------------------------------------------------------------------------
[ 34  34  47  47]-0.08841 [ 35  35  46  46]-0.06354 [ 17  17  59  59]-0.05336
[ 33  33  46  46]-0.04150 [ 35  35  47  47]-0.04036 [ 34  34  46  46]-0.03986
[ 35  33  48  46]-0.03972 [ 33  35  46  48]-0.03972 [ 35  35  48  48]-0.03952
[ 17  17  46  46]-0.03829 [ 35  34  47  46] 0.03801 [ 34  35  46  47] 0.03801
[ 35  17  59  46]-0.03674 [ 17  35  46  59]-0.03674 [ 35  35  59  59]-0.03647
-----------------------------------------------------------------------------
   Norm of T2AB vector (   226563 symmetry allowed elements):  0.4841329889.
-----------------------------------------------------------------------------
 @CHECKOUT-I, Total execution time (CPU/WALL):        0.11/       0.11 seconds.
--executable xintprc finished with status     0 in        0.12 seconds (walltime).
 --invoking executable--
/ihome/kjordan/shu8/software/source/cfour/cfour-public-gnu-mkl2017/bin/xvdint
 @GETMEM-I,  Allocated     762 MB of main memory.
 One- and two-electron integral derivatives are calculated
 for RHF hessians and dipole derivatives.
 Spherical gaussians are used.

                     Kinetic energy integral gradient
                     --------------------------------

                         C #1 x     0.3393878392
                         C #1 y    -0.0270934203
                         C #2 x     0.1803754236
                         C #2 y    -0.3708810139
                         C #3 x    -0.2870238085
                         C #3 y    -0.2917651692
                         H #4 x     0.3050609302
                         H #4 y    -0.8272546320
                         H #5 x    -0.5579064948
                         H #5 y    -0.6849558521
                         C #6 x     0.4251449426
                         C #6 y     0.4074262132
                         H #7 x    -0.2016075296
                         H #7 y     0.8576104309
                         C #8 x    -0.5085403142
                         C #8 y    -0.4453073937
                         H #9 x     0.1401348111
                         H #9 y    -0.8736086187
                         H #0 x    -0.8493927986
                         H #0 y     0.2494828171


 C #1 1     0.1696939196           -0.0135467101            0.0000000000
 C #1 2    -0.1696939196            0.0135467101            0.0000000000
 C #2 1     0.0901877118           -0.1854405069            0.0000000000
 C #2 2    -0.0901877118            0.1854405069            0.0000000000
 C #3 1    -0.1435119043           -0.1458825846            0.0000000000
 C #3 2     0.1435119043            0.1458825846            0.0000000000
 H #4 1     0.1525304651           -0.4136273160            0.0000000000
 H #4 2    -0.1525304651            0.4136273160            0.0000000000
 H #5 1    -0.2789532474           -0.3424779261            0.0000000000
 H #5 2     0.2789532474            0.3424779261            0.0000000000
 C #6 1     0.2125724713            0.2037131066            0.0000000000
 C #6 2    -0.2125724713           -0.2037131066            0.0000000000
 H #7 1    -0.1008037648            0.4288052154            0.0000000000
 H #7 2     0.1008037648           -0.4288052154            0.0000000000
 C #8 1    -0.2542701571           -0.2226536969            0.0000000000
 C #8 2     0.2542701571            0.2226536969            0.0000000000
 H #9 1     0.0700674056           -0.4368043094            0.0000000000
 H #9 2    -0.0700674056            0.4368043094            0.0000000000
 H #0 1    -0.4246963993            0.1247414086            0.0000000000
 H #0 2     0.4246963993           -0.1247414086            0.0000000000



                   Nuclear attraction integral gradient
                   ------------------------------------

                         C #1 x   -19.3543034917
                         C #1 y     4.8170818281
                         C #2 x    -8.4278887738
                         C #2 y    36.3025672692
                         C #3 x    16.9776743708
                         C #3 y    31.2104947799
                         H #4 x    -5.4741014377
                         H #4 y    17.4139964193
                         H #5 x    10.3582570153
                         H #5 y    14.9331964128
                         C #6 x    15.7293411418
                         C #6 y   -20.3340475758
                         H #7 x     5.9803650474
                         H #7 y   -15.8590124403
                         C #8 x    37.6659028637
                         C #8 y    16.5808462773
                         H #9 x     1.3281032818
                         H #9 y    15.1305545712
                         H #0 x    15.1757860449
                         H #0 y    -3.1749047858


 C #1 1    -9.6771517458            2.4085409141            0.0000000000
 C #1 2     9.6771517458           -2.4085409141            0.0000000000
 C #2 1    -4.2139443869           18.1512836346            0.0000000000
 C #2 2     4.2139443869          -18.1512836346            0.0000000000
 C #3 1     8.4888371854           15.6052473900            0.0000000000
 C #3 2    -8.4888371854          -15.6052473900            0.0000000000
 H #4 1    -2.7370507189            8.7069982096            0.0000000000
 H #4 2     2.7370507189           -8.7069982096            0.0000000000
 H #5 1     5.1791285077            7.4665982064            0.0000000000
 H #5 2    -5.1791285077           -7.4665982064            0.0000000000
 C #6 1     7.8646705709          -10.1670237879            0.0000000000
 C #6 2    -7.8646705709           10.1670237879            0.0000000000
 H #7 1     2.9901825237           -7.9295062202            0.0000000000
 H #7 2    -2.9901825237            7.9295062202            0.0000000000
 C #8 1    18.8329514319            8.2904231386            0.0000000000
 C #8 2   -18.8329514319           -8.2904231386            0.0000000000
 H #9 1     0.6640516409            7.5652772856            0.0000000000
 H #9 2    -0.6640516409           -7.5652772856            0.0000000000
 H #0 1     7.5878930224           -1.5874523929            0.0000000000
 H #0 2    -7.5878930224            1.5874523929            0.0000000000



                      Reorthonormalization gradient
                      -----------------------------

                         C #1 x     0.0412341137
                         C #1 y     0.0041610183
                         C #2 x     0.0135481778
                         C #2 y    -0.0044197865
                         C #3 x    -0.0103928924
                         C #3 y    -0.0053428879
                         H #4 x     0.1346128113
                         H #4 y    -0.3636999822
                         H #5 x    -0.2444222388
                         H #5 y    -0.3006160697
                         C #6 x     0.0651924432
                         C #6 y     0.0068263493
                         H #7 x    -0.0900116332
                         H #7 y     0.3707114465
                         C #8 x    -0.0393614934
                         C #8 y    -0.0367246506
                         H #9 x     0.0686862363
                         H #9 y    -0.3821161248
                         H #0 x    -0.3696104055
                         H #0 y     0.1177120875


 C #1 1     0.0206170569            0.0020805091            0.0000000000
 C #1 2    -0.0206170569           -0.0020805091            0.0000000000
 C #2 1     0.0067740889           -0.0022098932            0.0000000000
 C #2 2    -0.0067740889            0.0022098932            0.0000000000
 C #3 1    -0.0051964462           -0.0026714440            0.0000000000
 C #3 2     0.0051964462            0.0026714440            0.0000000000
 H #4 1     0.0673064056           -0.1818499911            0.0000000000
 H #4 2    -0.0673064056            0.1818499911            0.0000000000
 H #5 1    -0.1222111194           -0.1503080348            0.0000000000
 H #5 2     0.1222111194            0.1503080348            0.0000000000
 C #6 1     0.0325962216            0.0034131746            0.0000000000
 C #6 2    -0.0325962216           -0.0034131746            0.0000000000
 H #7 1    -0.0450058166            0.1853557233            0.0000000000
 H #7 2     0.0450058166           -0.1853557233            0.0000000000
 C #8 1    -0.0196807467           -0.0183623253            0.0000000000
 C #8 2     0.0196807467            0.0183623253            0.0000000000
 H #9 1     0.0343431181           -0.1910580624            0.0000000000
 H #9 2    -0.0343431181            0.1910580624            0.0000000000
 H #0 1    -0.1848052028            0.0588560437            0.0000000000
 H #0 2     0.1848052028           -0.0588560437            0.0000000000



                     Kinetic energy integral Hessian
                     -------------------------------


           Symmetry 1

           C #1 x      C #1 y      C #2 x      C #2 y      C #3 x      C #3 y

 C #1 x    0.237674
 C #1 y    0.002009    0.474362
 C #2 x   -0.049958   -0.857605    0.483049
 C #2 y   -0.857605   -0.282563    0.206553   -0.087185
 C #3 x   -0.452843   -0.603367   -0.972226    0.284988    0.299095
 C #3 y   -0.603367    0.786153    0.284988    0.688627   -0.339595    0.098541
 H #4 x   -0.001283    0.007603    0.426238    0.379856    0.016563   -0.013540
 H #4 y    0.007603    0.023382    0.379856   -0.461509   -0.013540    0.005725
 H #5 x    0.003311   -0.001572    0.023673    0.007354    0.101801   -0.572128
 H #5 y   -0.001572   -0.025080    0.007354   -0.001461   -0.572128   -0.131354
 C #6 x    0.830121   -0.265143   -0.036926   -0.014685    0.018921   -0.019409
 C #6 y   -0.265143   -0.501308   -0.014685   -0.001310   -0.019409    0.013560
 H #7 x   -0.014399    0.013686   -0.002044    0.000229    0.000259   -0.000717
 H #7 y    0.013686   -0.008695    0.000229   -0.000322   -0.000717    0.000511
 C #8 x   -0.034730   -0.009299   -0.001077   -0.000692    0.000826    0.000061
 C #8 y   -0.009299    0.000319   -0.000692    0.000036    0.000061    0.000910
 H #9 x   -0.000947   -0.000293   -0.000041   -0.000020    0.000258    0.000105
 H #9 y   -0.000293   -0.000516   -0.000020   -0.000006    0.000105    0.000109
 H #0 x   -0.001475   -0.000191    0.000092    0.000027    0.000049   -0.000030
 H #0 y   -0.000191    0.000374    0.000027   -0.000003   -0.000030    0.000003

           H #4 x      H #4 y      H #5 x      H #5 y      C #6 x      C #6 y

 H #4 x   -0.443837
 H #4 y   -0.372984    0.428054
 H #5 x    0.001298   -0.000166   -0.125648
 H #5 y   -0.000166    0.000331    0.561856    0.104354
 C #6 x   -0.001220   -0.000672    0.000641   -0.000377    0.445916
 C #6 y   -0.000672   -0.000964   -0.000377    0.000934    0.496457   -0.052282
 H #7 x    0.000212    0.000062    0.000008   -0.000014    0.506195    0.259133
 H #7 y    0.000062    0.000037   -0.000014    0.000028    0.259133   -0.546307
 C #8 x   -0.000040   -0.000053    0.000177   -0.000120   -0.211576   -1.033320
 C #8 y   -0.000053   -0.000039   -0.000120    0.000215   -1.033320    0.059807
 H #9 x    0.000009   -0.000004    0.000237   -0.000057    0.001383    0.010454
 H #9 y   -0.000004   -0.000002   -0.000057    0.000005    0.010454    0.021628
 H #0 x    0.000007    0.000005   -0.000012    0.000008    0.023696    0.007762
 H #0 y    0.000005    0.000002    0.000008   -0.000002    0.007762   -0.000709

           H #7 x      H #7 y      C #8 x      C #8 y      H #9 x      H #9 y

 H #7 x   -0.524266
 H #7 y   -0.257018    0.509230
 C #8 x    0.000772    0.011443    0.140661
 C #8 y    0.011443    0.025944    0.525178    0.000592
 H #9 x   -0.000336    0.000203    0.541786    0.177265   -0.550313
 H #9 y    0.000203    0.000715    0.177265   -0.566639   -0.178969    0.535245
 H #0 x    0.001133    0.000861   -0.508555    0.309540    0.006040   -0.009307
 H #0 y    0.000861    0.000989    0.309540    0.479514   -0.009307    0.008410

           H #0 x      H #0 y

 H #0 x    0.476266
 H #0 y   -0.308995   -0.487832


           Symmetry 2

           C #1 z      C #2 z      C #3 z      H #4 z      H #5 z      C #6 z

 C #1 z   -2.439447
 C #2 z    0.929399   -2.492642
 C #3 z    0.927646    1.002978   -2.495111
 H #4 z   -0.003011    0.566557   -0.003067   -0.560973
 H #5 z   -0.002971   -0.003078    0.569081    0.000196   -0.563614
 C #6 z    0.593412   -0.003274   -0.002565    0.000326    0.000306   -2.524480
 H #7 z   -0.002429    0.000277   -0.000330   -0.000015   -0.000005    0.566535
 C #8 z   -0.002594   -0.000225    0.001290   -0.000014    0.000092    1.375752
 H #9 z    0.000388   -0.000002    0.000085   -0.000001   -0.000009   -0.003044
 H #0 z   -0.000392    0.000010   -0.000008    0.000001    0.000003   -0.002968

           H #7 z      C #8 z      H #9 z      H #0 z

 H #7 z   -0.560204
 C #8 z   -0.003652   -2.508262
 H #9 z   -0.000374    0.569316   -0.564202
 H #0 z    0.000197    0.568295   -0.002157   -0.562980


           Symmetry 3

           C #1 x      C #1 y      C #2 x      C #2 y      C #3 x      C #3 y

 C #1 x    0.251809
 C #1 y    0.000068    0.477281
 C #2 x   -0.000585   -0.904402    0.487238
 C #2 y   -0.904402   -0.253026    0.201171   -0.070388
 C #3 x    0.529200    0.634256   -0.978851    0.302219    0.307550
 C #3 y    0.634256   -0.783282    0.302219    0.782056   -0.331948    0.110061
 H #4 x   -0.000486    0.006013    0.426229    0.379799    0.015829   -0.013367
 H #4 y    0.006013    0.024253    0.379799   -0.461362   -0.013367    0.008036
 H #5 x   -0.001531    0.002849    0.023149    0.008169    0.101838   -0.572048
 H #5 y    0.002849    0.024967    0.008169    0.000664   -0.572048   -0.131271
 C #6 x   -0.829947    0.265116    0.039673    0.012506    0.023081   -0.018437
 C #6 y    0.265116    0.501290    0.012506    0.001856   -0.018437    0.012887
 H #7 x    0.014388   -0.013680    0.001928   -0.000113    0.000400   -0.000748
 H #7 y   -0.013680    0.008693   -0.000113    0.000245   -0.000748    0.000495
 C #8 x    0.034736    0.009298    0.001308    0.000660    0.000649    0.000002
 C #8 y    0.009298   -0.000320    0.000660   -0.000058    0.000002    0.000907
 H #9 x    0.000940    0.000291    0.000001    0.000019    0.000252    0.000101
 H #9 y    0.000291    0.000516    0.000019    0.000012    0.000101    0.000108
 H #0 x    0.001476    0.000191   -0.000089   -0.000027    0.000053   -0.000029
 H #0 y    0.000191   -0.000374   -0.000027    0.000003   -0.000029    0.000003

           H #4 x      H #4 y      H #5 x      H #5 y      C #6 x      C #6 y

 H #4 x   -0.443836
 H #4 y   -0.372992    0.428073
 H #5 x    0.001318   -0.000210   -0.125640
 H #5 y   -0.000210    0.000096    0.561869    0.104367
 C #6 x    0.001110    0.000775    0.000465   -0.000445    0.445921
 C #6 y    0.000775    0.000900   -0.000445    0.000929    0.496456   -0.052283
 H #7 x   -0.000209   -0.000066   -0.000006   -0.000015    0.506195    0.259133
 H #7 y   -0.000066   -0.000034   -0.000015    0.000030    0.259133   -0.546307
 C #8 x    0.000041    0.000053    0.000180   -0.000119   -0.211576   -1.033320
 C #8 y    0.000053    0.000038   -0.000119    0.000215   -1.033320    0.059807
 H #9 x    0.000011   -0.000001    0.000237   -0.000057    0.001383    0.010454
 H #9 y   -0.000001    0.000001   -0.000057    0.000005    0.010454    0.021628
 H #0 x   -0.000007   -0.000005   -0.000012    0.000008    0.023696    0.007762
 H #0 y   -0.000005   -0.000002    0.000008   -0.000002    0.007762   -0.000709

           H #7 x      H #7 y      C #8 x      C #8 y      H #9 x      H #9 y

 H #7 x   -0.524266
 H #7 y   -0.257018    0.509230
 C #8 x    0.000772    0.011443    0.140661
 C #8 y    0.011443    0.025944    0.525178    0.000592
 H #9 x   -0.000336    0.000203    0.541786    0.177265   -0.550313
 H #9 y    0.000203    0.000715    0.177265   -0.566639   -0.178969    0.535245
 H #0 x    0.001133    0.000861   -0.508555    0.309540    0.006040   -0.009307
 H #0 y    0.000861    0.000989    0.309540    0.479514   -0.009307    0.008410

           H #0 x      H #0 y

 H #0 x    0.476266
 H #0 y   -0.308995   -0.487832


           Symmetry 4

           C #1 z      C #2 z      C #3 z      H #4 z      H #5 z      C #6 z

 C #1 z   -2.443747
 C #2 z    0.937979   -2.496504
 C #3 z   -0.936226    1.012719   -2.498988
 H #4 z   -0.002263    0.566584   -0.002330   -0.560971
 H #5 z    0.002224   -0.002331    0.569104    0.000168   -0.563612
 C #6 z   -0.593437    0.002529   -0.001753   -0.000308    0.000287   -2.524480
 H #7 z    0.002430   -0.000256   -0.000309    0.000014   -0.000006    0.566535
 C #8 z    0.002592    0.000199    0.001276    0.000014    0.000092    1.375752
 H #9 z   -0.000387    0.000008    0.000085   -0.000001   -0.000009   -0.003044
 H #0 z    0.000392   -0.000010   -0.000008   -0.000001    0.000003   -0.002968

           H #7 z      C #8 z      H #9 z      H #0 z

 H #7 z   -0.560204
 C #8 z   -0.003652   -2.508262
 H #9 z   -0.000374    0.569316   -0.564202
 H #0 z    0.000197    0.568295   -0.002157   -0.562980




           C #1 x      C #1 y      C #1 z      C #2 x      C #2 y      C #2 z

 C #1 x    0.122371
 C #1 y    0.000519    0.237911
 C #1 z    0.000000    0.000000   -1.220799

 C #2 x    0.003534   -0.000485    0.000000    0.122371
 C #2 y   -0.000485    0.000730    0.000000    0.000519    0.237911
 C #2 z    0.000000    0.000000    0.001075    0.000000    0.000000   -1.220799

 C #1 x   -0.012636   -0.440502    0.000000    0.012343   -0.011699    0.000000
 C #1 y   -0.440502   -0.133897    0.000000   -0.011699    0.007384    0.000000
 C #1 z    0.000000    0.000000    0.466845    0.000000    0.000000   -0.002145

 C #2 x    0.012343   -0.011699    0.000000   -0.012636   -0.440502    0.000000
 C #2 y   -0.011699    0.007384    0.000000   -0.440502   -0.133897    0.000000
 C #2 z    0.000000    0.000000   -0.002145    0.000000    0.000000    0.466845

 C #1 x    0.019089    0.007722    0.000000    0.245511    0.309406    0.000000
 C #1 y    0.007722    0.000718    0.000000    0.309406   -0.392359    0.000000
 C #1 z    0.000000    0.000000   -0.002145    0.000000    0.000000    0.465968

 C #2 x    0.245511    0.309406    0.000000    0.019089    0.007722    0.000000
 C #2 y    0.309406   -0.392359    0.000000    0.007722    0.000718    0.000000
 C #2 z    0.000000    0.000000    0.465968    0.000000    0.000000   -0.002145

 H #1 x   -0.000442    0.003404    0.000000    0.000199   -0.000397    0.000000
 H #1 y    0.003404    0.011909    0.000000   -0.000397    0.000218    0.000000
 H #1 z    0.000000    0.000000   -0.001318    0.000000    0.000000   -0.000187

 H #2 x    0.000199   -0.000397    0.000000   -0.000442    0.003404    0.000000
 H #2 y   -0.000397    0.000218    0.000000    0.003404    0.011909    0.000000
 H #2 z    0.000000    0.000000   -0.000187    0.000000    0.000000   -0.001318

 H #1 x    0.000445    0.000319    0.000000   -0.001210    0.001105    0.000000
 H #1 y    0.000319   -0.000028    0.000000    0.001105    0.012512    0.000000
 H #1 z    0.000000    0.000000   -0.000187    0.000000    0.000000   -0.001299

 H #2 x   -0.001210    0.001105    0.000000    0.000445    0.000319    0.000000
 H #2 y    0.001105    0.012512    0.000000    0.000319   -0.000028    0.000000
 H #2 z    0.000000    0.000000   -0.001299    0.000000    0.000000   -0.000187

 C #1 x    0.000043   -0.000007    0.000000   -0.415017    0.132565    0.000000
 C #1 y   -0.000007   -0.000004    0.000000    0.132565    0.250650    0.000000
 C #1 z    0.000000    0.000000   -0.000006    0.000000    0.000000    0.296712

 C #2 x   -0.415017    0.132565    0.000000    0.000043   -0.000007    0.000000
 C #2 y    0.132565    0.250650    0.000000   -0.000007   -0.000004    0.000000
 C #2 z    0.000000    0.000000    0.296712    0.000000    0.000000   -0.000006

 H #1 x   -0.000003    0.000001    0.000000    0.007197   -0.006841    0.000000
 H #1 y    0.000001   -0.000000    0.000000   -0.006841    0.004347    0.000000
 H #1 z    0.000000    0.000000    0.000000    0.000000    0.000000   -0.001215

 H #2 x    0.007197   -0.006841    0.000000   -0.000003    0.000001    0.000000
 H #2 y   -0.006841    0.004347    0.000000    0.000001   -0.000000    0.000000
 H #2 z    0.000000    0.000000   -0.001215    0.000000    0.000000    0.000000

 C #1 x    0.000001   -0.000000    0.000000    0.017366    0.004649    0.000000
 C #1 y   -0.000000   -0.000000    0.000000    0.004649   -0.000160    0.000000
 C #1 z    0.000000    0.000000   -0.000001    0.000000    0.000000   -0.001296

 C #2 x    0.017366    0.004649    0.000000    0.000001   -0.000000    0.000000
 C #2 y    0.004649   -0.000160    0.000000   -0.000000   -0.000000    0.000000
 C #2 z    0.000000    0.000000   -0.001296    0.000000    0.000000   -0.000001

 H #1 x   -0.000002   -0.000000    0.000000    0.000472    0.000146    0.000000
 H #1 y   -0.000000    0.000000    0.000000    0.000146    0.000258    0.000000
 H #1 z    0.000000    0.000000    0.000000    0.000000    0.000000    0.000194

 H #2 x    0.000472    0.000146    0.000000   -0.000002   -0.000000    0.000000
 H #2 y    0.000146    0.000258    0.000000   -0.000000    0.000000    0.000000
 H #2 z    0.000000    0.000000    0.000194    0.000000    0.000000    0.000000

 H #1 x    0.000000   -0.000000    0.000000    0.000738    0.000095    0.000000
 H #1 y   -0.000000   -0.000000    0.000000    0.000095   -0.000187    0.000000
 H #1 z    0.000000    0.000000   -0.000000    0.000000    0.000000   -0.000196

 H #2 x    0.000738    0.000095    0.000000    0.000000   -0.000000    0.000000
 H #2 y    0.000095   -0.000187    0.000000   -0.000000   -0.000000    0.000000
 H #2 z    0.000000    0.000000   -0.000196    0.000000    0.000000   -0.000000


           C #1 x      C #1 y      C #1 z      C #2 x      C #2 y      C #2 z

 C #1 x    0.242572
 C #1 y    0.101931   -0.039393
 C #1 z    0.000000    0.000000   -1.247286

 C #2 x    0.001047   -0.001346    0.000000    0.242572
 C #2 y   -0.001346    0.004199    0.000000    0.101931   -0.039393
 C #2 z    0.000000    0.000000    0.000965    0.000000    0.000000   -1.247286

 C #1 x   -0.487769    0.146802    0.000000   -0.001656    0.004308    0.000000
 C #1 y    0.146802    0.367671    0.000000    0.004308    0.023357    0.000000
 C #1 z    0.000000    0.000000    0.503924    0.000000    0.000000   -0.002435

 C #2 x   -0.001656    0.004308    0.000000   -0.487769    0.146802    0.000000
 C #2 y    0.004308    0.023357    0.000000    0.146802    0.367671    0.000000
 C #2 z    0.000000    0.000000   -0.002435    0.000000    0.000000    0.503924

 H #1 x    0.213117    0.189914    0.000000   -0.000002   -0.000014    0.000000
 H #1 y    0.189914   -0.230718    0.000000   -0.000014    0.000037    0.000000
 H #1 z    0.000000    0.000000    0.283285    0.000000    0.000000   -0.000007

 H #2 x   -0.000002   -0.000014    0.000000    0.213117    0.189914    0.000000
 H #2 y   -0.000014    0.000037    0.000000    0.189914   -0.230718    0.000000
 H #2 z    0.000000    0.000000   -0.000007    0.000000    0.000000    0.283285

 H #1 x    0.011706    0.003881    0.000000   -0.000131    0.000204    0.000000
 H #1 y    0.003881   -0.000199    0.000000    0.000204    0.000531    0.000000
 H #1 z    0.000000    0.000000   -0.001352    0.000000    0.000000   -0.000187

 H #2 x   -0.000131    0.000204    0.000000    0.011706    0.003881    0.000000
 H #2 y    0.000204    0.000531    0.000000    0.003881   -0.000199    0.000000
 H #2 z    0.000000    0.000000   -0.000187    0.000000    0.000000   -0.001352

 C #1 x    0.000687   -0.000545    0.000000    0.019150    0.006798    0.000000
 C #1 y   -0.000545    0.000137    0.000000    0.006798    0.000791    0.000000
 C #1 z    0.000000    0.000000   -0.000186    0.000000    0.000000   -0.001451

 C #2 x    0.019150    0.006798    0.000000    0.000687   -0.000545    0.000000
 C #2 y    0.006798    0.000791    0.000000   -0.000545    0.000137    0.000000
 C #2 z    0.000000    0.000000   -0.001451    0.000000    0.000000   -0.000186

 H #1 x   -0.000029    0.000029    0.000000    0.000993   -0.000086    0.000000
 H #1 y    0.000029   -0.000019    0.000000   -0.000086    0.000142    0.000000
 H #1 z    0.000000    0.000000    0.000005    0.000000    0.000000    0.000133

 H #2 x    0.000993   -0.000086    0.000000   -0.000029    0.000029    0.000000
 H #2 y   -0.000086    0.000142    0.000000    0.000029   -0.000019    0.000000
 H #2 z    0.000000    0.000000    0.000133    0.000000    0.000000    0.000005

 C #1 x    0.000058   -0.000008    0.000000    0.000596    0.000338    0.000000
 C #1 y   -0.000008   -0.000006    0.000000    0.000338   -0.000024    0.000000
 C #1 z    0.000000    0.000000   -0.000006    0.000000    0.000000   -0.000106

 C #2 x    0.000596    0.000338    0.000000    0.000058   -0.000008    0.000000
 C #2 y    0.000338   -0.000024    0.000000   -0.000008   -0.000006    0.000000
 C #2 z    0.000000    0.000000   -0.000106    0.000000    0.000000   -0.000006

 H #1 x   -0.000010   -0.000000    0.000000    0.000010    0.000010    0.000000
 H #1 y   -0.000000    0.000001    0.000000    0.000010    0.000004    0.000000
 H #1 z    0.000000    0.000000    0.000001    0.000000    0.000000   -0.000003

 H #2 x    0.000010    0.000010    0.000000   -0.000010   -0.000000    0.000000
 H #2 y    0.000010    0.000004    0.000000   -0.000000    0.000001    0.000000
 H #2 z    0.000000    0.000000   -0.000003    0.000000    0.000000    0.000001

 H #1 x    0.000001   -0.000000    0.000000   -0.000045   -0.000013    0.000000
 H #1 y   -0.000000   -0.000000    0.000000   -0.000013    0.000001    0.000000
 H #1 z    0.000000    0.000000   -0.000000    0.000000    0.000000    0.000005

 H #2 x   -0.000045   -0.000013    0.000000    0.000001   -0.000000    0.000000
 H #2 y   -0.000013    0.000001    0.000000   -0.000000   -0.000000    0.000000
 H #2 z    0.000000    0.000000    0.000005    0.000000    0.000000   -0.000000


           C #1 x      C #1 y      C #1 z      C #2 x      C #2 y      C #2 z

 C #1 x    0.151661
 C #1 y   -0.167886    0.052151
 C #1 z    0.000000    0.000000   -1.248525

 C #2 x    0.002114    0.001912    0.000000    0.151661
 C #2 y    0.001912    0.002880    0.000000   -0.167886    0.052151
 C #2 z    0.000000    0.000000    0.000969    0.000000    0.000000   -1.248525

 H #1 x    0.008098   -0.006727    0.000000   -0.000184    0.000043    0.000000
 H #1 y   -0.006727    0.003440    0.000000    0.000043    0.000578    0.000000
 H #1 z    0.000000    0.000000   -0.001349    0.000000    0.000000   -0.000184

 H #2 x   -0.000184    0.000043    0.000000    0.008098   -0.006727    0.000000
 H #2 y    0.000043    0.000578    0.000000   -0.006727    0.003440    0.000000
[...]
 C      0.367 0.2161  0.0000   -0.3756 -0.2120  0.0000   -0.0307  0.0474  0.0000
 C     -0.367-0.2161  0.0000   -0.3756 -0.2120 -0.0000   -0.0307  0.0474  0.0000
 H     -0.176 0.0121 -0.0000    0.1699 -0.0115 -0.0000    0.0476 -0.2054 -0.0000
 H      0.176-0.0121  0.0000    0.1699 -0.0115  0.0000    0.0476 -0.2054  0.0000
 C     -0.310-0.2471 -0.0000    0.3110  0.2463  0.0000    0.1237  0.1003  0.0000
 C      0.310 0.2471 -0.0000    0.3110  0.2463 -0.0000    0.1237  0.1003 -0.0000
 H      0.248-0.0332 -0.0000   -0.2491  0.0329 -0.0000    0.0782 -0.4430 -0.0000
 H     -0.248 0.0332  0.0000   -0.2491  0.0329 -0.0000    0.0782 -0.4430  0.0000
 H     -0.024 0.2147  0.0000    0.0255 -0.2121 -0.0000   -0.4506  0.1398  0.0000
 H      0.024-0.2147 -0.0000    0.0255 -0.2121 -0.0000   -0.4506  0.1398 -0.0000

                Ag                        Bu                        Ag
              3521.13                   3565.67                   3565.77 
             VIBRATION                 VIBRATION                 VIBRATION 
 C      0.001 0.0005 -0.0000    0.0065 -0.0020  0.0000    0.0065 -0.0019 -0.0000
 C     -0.001-0.0005  0.0000    0.0065 -0.0020  0.0000   -0.0065  0.0019 -0.0000
 C     -0.000 0.0000 -0.0000   -0.0002 -0.0007  0.0000   -0.0010  0.0024  0.0000
 C      0.000-0.0000 -0.0000   -0.0002 -0.0007  0.0000    0.0010 -0.0024  0.0000
 C      0.005 0.0074  0.0000    0.0027  0.0022 -0.0000   -0.0034 -0.0034  0.0000
 C     -0.005-0.0074 -0.0000    0.0027  0.0022 -0.0000    0.0034  0.0034 -0.0000
 H     -0.000 0.0010  0.0000   -0.0009  0.0017  0.0000    0.0029 -0.0085 -0.0000
 H      0.000-0.0010  0.0000   -0.0009  0.0017 -0.0000   -0.0029  0.0085  0.0000
 H     -0.015-0.0207 -0.0000   -0.0060 -0.0075  0.0000    0.0078  0.0104 -0.0000
 H      0.015 0.0207  0.0000   -0.0060 -0.0075  0.0000   -0.0078 -0.0104  0.0000
 C      0.030-0.0463  0.0000   -0.0326  0.1995  0.0000    0.0329 -0.1999 -0.0000
 C     -0.030 0.0463 -0.0000   -0.0326  0.1995  0.0000   -0.0329  0.1999 -0.0000
 H     -0.046 0.2009 -0.0000    0.1451 -0.6246  0.0000   -0.1455  0.6259  0.0000
 H      0.046-0.2009 -0.0000    0.1451 -0.6246  0.0000    0.1455 -0.6259 -0.0000
 C     -0.124-0.1005 -0.0000   -0.0448 -0.0506 -0.0000    0.0438  0.0500 -0.0000
 C      0.124 0.1005  0.0000   -0.0448 -0.0506 -0.0000   -0.0438 -0.0500  0.0000
 H     -0.078 0.4446 -0.0000   -0.0299  0.1568  0.0000    0.0293 -0.1537  0.0000
 H      0.078-0.4446 -0.0000   -0.0299  0.1568  0.0000   -0.0293  0.1537 -0.0000
 H      0.452-0.1405  0.0000    0.1274 -0.0384 -0.0000   -0.1241  0.0373 -0.0000
 H     -0.452 0.1405  0.0000    0.1274 -0.0384 -0.0000    0.1241 -0.0373  0.0000

                Bu                        Ag                        Bu
              3575.66                   3582.45                   3602.85 
             VIBRATION                 VIBRATION                 VIBRATION 
 C      0.008 0.0040 -0.0000    0.0056  0.0110  0.0000    0.0003  0.0145 -0.0000
 C      0.008 0.0040 -0.0000   -0.0056 -0.0110 -0.0000    0.0003  0.0145 -0.0000
 C      0.060-0.1781 -0.0000    0.0647 -0.1839  0.0000    0.0417 -0.0825  0.0000
 C      0.060-0.1781  0.0000   -0.0647  0.1839  0.0000    0.0417 -0.0825  0.0000
 C      0.044 0.0706  0.0000    0.0371  0.0607  0.0000   -0.1250 -0.1448 -0.0000
 C      0.044 0.0706  0.0000   -0.0371 -0.0607  0.0000   -0.1250 -0.1448  0.0000
 H     -0.211 0.5758  0.0000   -0.2181  0.5917 -0.0000   -0.0990  0.2630 -0.0000
 H     -0.211 0.5758  0.0000    0.2181 -0.5917 -0.0000   -0.0990  0.2630 -0.0000
 H     -0.177-0.2193  0.0000   -0.1529 -0.1882 -0.0000    0.3892  0.4722  0.0000
 H     -0.177-0.2193 -0.0000    0.1529  0.1882  0.0000    0.3892  0.4722  0.0000
 C     -0.001 0.0013  0.0000    0.0006 -0.0028  0.0000    0.0003 -0.0006 -0.0000
 C     -0.001 0.0013 -0.0000   -0.0006  0.0028  0.0000    0.0003 -0.0006  0.0000
 H      0.000-0.0045 -0.0000   -0.0023  0.0094  0.0000    0.0009 -0.0006  0.0000
 H      0.000-0.0045 -0.0000    0.0023 -0.0094 -0.0000    0.0009 -0.0006 -0.0000
 C      0.008 0.0030 -0.0000    0.0046  0.0002 -0.0000   -0.0103  0.0022  0.0000
 C      0.008 0.0030  0.0000   -0.0046 -0.0002 -0.0000   -0.0103  0.0022 -0.0000
 H      0.004-0.0185  0.0000    0.0015 -0.0050 -0.0000   -0.0024  0.0041  0.0000
 H      0.004-0.0185  0.0000   -0.0015  0.0050  0.0000   -0.0024  0.0041 -0.0000
 H     -0.028 0.0087  0.0000   -0.0135  0.0043 -0.0000    0.0325 -0.0101  0.0000
 H     -0.028 0.0087  0.0000    0.0135 -0.0043  0.0000    0.0325 -0.0101  0.0000

                Ag                        Bu                        Ag
              3606.03                   3680.48                   3680.50 
             VIBRATION                 VIBRATION                 VIBRATION 
 C      0.005-0.0061  0.0000    0.0009  0.0003  0.0000    0.0010  0.0004  0.0000
 C     -0.005 0.0061  0.0000    0.0009  0.0003  0.0000   -0.0010 -0.0004  0.0000
 C      0.037-0.0714  0.0000   -0.0005  0.0005 -0.0000    0.0007 -0.0008  0.0000
 C     -0.037 0.0714  0.0000   -0.0005  0.0005 -0.0000   -0.0007  0.0008 -0.0000
 C     -0.128-0.1499 -0.0000    0.0040  0.0049  0.0000   -0.0046 -0.0056 -0.0000
 C      0.128 0.1499  0.0000    0.0040  0.0049 -0.0000    0.0046  0.0056  0.0000
 H     -0.084 0.2248  0.0000    0.0007 -0.0020  0.0000   -0.0008  0.0021 -0.0000
 H      0.084-0.2248  0.0000    0.0007 -0.0020  0.0000    0.0008 -0.0021 -0.0000
 H      0.399 0.4854 -0.0000   -0.0147 -0.0170  0.0000    0.0166  0.0191 -0.0000
 H     -0.399-0.4854  0.0000   -0.0147 -0.0170  0.0000   -0.0166 -0.0191 -0.0000
 C      0.000 0.0003  0.0000   -0.0007  0.0058 -0.0000    0.0007 -0.0058 -0.0000
 C     -0.000-0.0003  0.0000   -0.0007  0.0058 -0.0000   -0.0007  0.0058  0.0000
 H      0.001-0.0023  0.0000    0.0032 -0.0239  0.0000   -0.0032  0.0239 -0.0000
 H     -0.001 0.0023 -0.0000    0.0032 -0.0239 -0.0000    0.0032 -0.0239  0.0000
 C     -0.010 0.0030 -0.0000   -0.1527  0.1766 -0.0000    0.1527 -0.1765  0.0000
 C      0.010-0.0030  0.0000   -0.1527  0.1766  0.0000   -0.1527  0.1765 -0.0000
 H     -0.001 0.0009  0.0000    0.0812 -0.4720  0.0000   -0.0812  0.4719 -0.0000
 H      0.001-0.0009 -0.0000    0.0812 -0.4720 -0.0000    0.0812 -0.4719  0.0000
 H      0.033-0.0101  0.0000    0.4439 -0.1341  0.0000   -0.4438  0.1341  0.0000
 H     -0.033 0.0101  0.0000    0.4439 -0.1341  0.0000    0.4438 -0.1341 -0.0000
            Gradient vector in normal coordinate representation
         ----------------------------------------------------------
   i    W(I)     dE/dQ(i)     dE/dq      dE/dq     [dE/dQ(i)]/w(i)
                              (cm-1)      (eV)        (relative)
         ----------------------------------------------------------
    6   137.29  0.0000000000      0.00000      0.00000   0.0000000000
    8   247.60 -0.0000000000     -0.00000     -0.00000   0.0000000000
    9   257.73 -0.0000000000     -0.00000     -0.00000   0.0000000000
   10   319.65 -0.0000000000     -0.00000     -0.00000   0.0000000000
   11   339.64 -0.0012808713   -167.37682     -0.02075   0.0164205439
   12   417.65  0.0000000000      0.00000      0.00000   0.0000000000
   13   452.19 -0.0030003423   -339.78506     -0.04213   0.0676714468
   14   522.29  0.0000000000      0.00000      0.00000   0.0000000000
   15   546.17  0.0000000000      0.00000      0.00000   0.0000000000
   16   597.99 -0.0000000000     -0.00000     -0.00000   0.0000000000
   17   663.64  0.0008184010     76.50601      0.00949   0.0034307413
   18   729.56  0.0002458577     21.92044      0.00272   0.0002816406
   19   791.83  0.0000000000      0.00000      0.00000   0.0000000000
   20   806.92  0.0000000000      0.00000      0.00000   0.0000000000
   21   861.68 -0.0000000000     -0.00000     -0.00000   0.0000000000
   22   924.11  0.0146691370   1162.08839      0.14408   0.7915443154
   23   938.33 -0.0000000000     -0.00000     -0.00000   0.0000000000
   24   997.71 -0.0000000000     -0.00000     -0.00000   0.0000000000
   25  1063.13 -0.0000000000     -0.00000     -0.00000   0.0000000000
   26  1079.00  0.0000000000      0.00000      0.00000   0.0000000000
   27  1160.91 -0.0000000000     -0.00000     -0.00000   0.0000000000
   28  1181.81  0.0000000000      0.00000      0.00000   0.0000000000
   29  1181.87 -0.0000000000     -0.00000     -0.00000   0.0000000000
   30  1198.32  0.0000000000      0.00000      0.00000   0.0000000000
   31  1222.10 -0.0000000000     -0.00000     -0.00000   0.0000000000
   32  1231.53 -0.0039119912   -268.45494     -0.03328   0.0422415387
   33  1236.36 -0.0000000000     -0.00000     -0.00000   0.0000000000
   34  1280.96 -0.0000000000     -0.00000     -0.00000   0.0000000000
   35  1281.19 -0.0000000000     -0.00000     -0.00000   0.0000000000
   36  1328.18 -0.0000000000     -0.00000     -0.00000   0.0000000000
   37  1381.17 -0.0076118593   -493.24550     -0.06116   0.1426012016
   38  1387.67 -0.0029618899   -191.47938     -0.02374   0.0214902233
   39  1426.88 -0.0000000000     -0.00000     -0.00000   0.0000000000
   40  1533.43 -0.0080033342   -492.19238     -0.06102   0.1419929190
   41  1542.62  0.0000000000      0.00000      0.00000   0.0000000000
   42  1558.19 -0.0093333418   -569.40818     -0.07060   0.1900396934
   43  1636.52 -0.0000000000     -0.00000     -0.00000   0.0000000000
   44  1714.75 -0.0082444863   -479.46804     -0.05945   0.1347461130
   45  1727.00  0.0000000000      0.00000      0.00000   0.0000000000
   46  1787.00 -0.0000000000     -0.00000     -0.00000   0.0000000000
   47  1807.22  0.0030198107    171.06845      0.02121   0.0171528676
   48  1874.25 -0.0016836345    -93.65486     -0.01161   0.0051411178
   49  1942.56 -0.0239052345  -1306.17553     -0.16195   1.0000000000
   50  1944.98  0.0000000000      0.00000      0.00000   0.0000000000
   51  3519.92 -0.0000000000     -0.00000     -0.00000   0.0000000000
   52  3521.13  0.0159146963    645.88237      0.08008   0.2445140211
   53  3565.67  0.0000000000      0.00000      0.00000   0.0000000000
   54  3565.77 -0.0238628117   -962.36832     -0.11932   0.5428496375
   55  3575.66 -0.0000000000     -0.00000     -0.00000   0.0000000000
   56  3582.45  0.0090993350    366.11383      0.04539   0.0785650136
   57  3602.85  0.0000000000      0.00000      0.00000   0.0000000000
   58  3606.03  0.0226685061    909.08444      0.11271   0.4844013688
   59  3680.48  0.0000000000      0.00000      0.00000   0.0000000000
   60  3680.50  0.0005175321     20.54376      0.00255   0.0002473756
         ----------------------------------------------------------
  ----------------------------------------------------------------
                    Dipole Moment Function
                   (Normal Coordinate Basis)
  ----------------------------------------------------------------
    Mode     Symmetry    d(Mu(x))/dQ   d(Mu(y))/dQ   d(Mu(z))/dQ
  ----------------------------------------------------------------
     Q6          Au       -0.000000     -0.000000     -0.007480
     Q8          Bu        0.007076      0.004079     -0.000000
     Q9          Bg        0.000000      0.000000      0.000000
     Q10         Au        0.000000      0.000000      0.006032
     Q11         Ag       -0.000000     -0.000000     -0.000000
     Q12         Bg       -0.000000     -0.000000      0.000000
     Q13         Ag        0.000000      0.000000      0.000000
     Q14         Au        0.000000      0.000000     -0.005499
     Q15         Bu        0.048120      0.006141      0.000000
     Q16         Au       -0.000000     -0.000000     -0.051401
     Q17         Ag       -0.000000      0.000000     -0.000000
     Q18         Ag       -0.000000      0.000000     -0.000000
     Q19         Bg       -0.000000     -0.000000     -0.000000
     Q20         Bu        0.087267     -0.000001      0.000000
     Q21         Au       -0.000000     -0.000000     -0.002199
     Q22         Ag        0.000000     -0.000000      0.000000
     Q23         Bg        0.000000     -0.000000     -0.000000
     Q24         Bu        0.043907     -0.001770      0.000000
     Q25         Au        0.000000     -0.000000      0.134450
     Q26         Bg       -0.000000      0.000000     -0.000000
     Q27         Bu       -0.019620      0.006591     -0.000000
     Q28         Au        0.000000      0.000000     -0.174615
     Q29         Bg       -0.000000     -0.000000      0.000000
     Q30         Bg        0.000000     -0.000000     -0.000000
     Q31         Au        0.000000      0.000000     -0.006375
     Q32         Ag       -0.000000     -0.000000      0.000000
     Q33         Bu        0.083896      0.015757      0.000000
     Q34         Au        0.000000     -0.000000      0.097398
     Q35         Bg        0.000000      0.000000     -0.000000
     Q36         Bu        0.074542     -0.013702      0.000000
     Q37         Ag        0.000000     -0.000000     -0.000000
     Q38         Ag        0.000000      0.000000     -0.000000
     Q39         Bu       -0.015102      0.005285     -0.000000
     Q40         Ag        0.000000      0.000000     -0.000000
     Q41         Bu        0.120486      0.019593      0.000000
     Q42         Ag        0.000000      0.000000     -0.000000
     Q43         Bu       -0.043496      0.124291      0.000000
     Q44         Ag        0.000000     -0.000000     -0.000000
     Q45         Bu       -0.067875      0.001586     -0.000000
     Q46         Bu        0.125388      0.010725     -0.000000
     Q47         Ag        0.000000     -0.000000     -0.000000
     Q48         Ag        0.000000      0.000000     -0.000000
     Q49         Ag       -0.000000     -0.000000     -0.000000
     Q50         Bu       -0.005224     -0.030563     -0.000000
     Q51         Bu       -0.369050     -0.118486     -0.000000
     Q52         Ag       -0.000000     -0.000000     -0.000000
     Q53         Bu       -0.104787     -0.015358      0.000000
     Q54         Ag       -0.000000     -0.000000     -0.000000
     Q55         Bu        0.025927      0.035182      0.000000
     Q56         Ag        0.000000      0.000000      0.000000
     Q57         Bu        0.016985      0.071689      0.000000
     Q58         Ag        0.000000     -0.000000      0.000000
     Q59         Bu       -0.012868     -0.005456      0.000000
     Q60         Ag        0.000000      0.000000     -0.000000
  ----------------------------------------------------------------
---------------------------------------------------------------------------
------------------------------------------------------------
        Parameter                (MHz)                 (CM-1)
------------------------------------------------------------

           R6                0.280693E-06           0.936292E-11
           R5                -.411829E-05           -.137371E-09
           SI                            0.896904E+02

  A-reduced centrifugal distortion parameters (Ir representation) 

           DJ                0.747672E-05           0.249397E-09
           DK                0.509628E-03           0.169994E-07
           DJK               -.677618E-05           -.226029E-09
           DELJ              0.691533E-05           0.230671E-09
           DELK              0.506821E-03           0.169057E-07
           DELJK             -.340786E-05           -.113674E-09
           delJ              0.107477E-05           0.358504E-10
           delK              -.924654E-04           -.308432E-08

  S-reduced centrifugal distortion parameters (Ir representation) 

           DJ                0.743080E-05           0.247865E-09
           DK                0.509399E-03           0.169917E-07
           DJK               -.650068E-05           -.216839E-09
           D1                -.107477E-05           -.358504E-10
           D2                0.257735E-06           0.859712E-11
------------------------------------------------------------
   Rotationally projected vibrational frequencies 
            1               0.0026i
            2               0.0008i
            3               0.0005i
            4               0.0008 
            5               0.0037 
            6               0.0049 
            7             137.2938 
            8             244.1252 
            9             247.6027 
           10             319.6516 
           11             339.5574 
           12             414.6001 
           13             452.1787 
           14             522.2885 
           15             546.1745 
           16             597.9904 
           17             663.2225 
           18             729.5484 
           19             791.5399 
           20             806.9250 
           21             861.6839 
           22             924.0811 
           23             938.2470 
           24             997.7064 
           25            1063.1285 
           26            1078.7944 
           27            1160.9066 
           28            1181.8074 
           29            1181.8660 
           30            1198.2945 
           31            1222.0999 
           32            1231.5310 
           33            1236.3567 
           34            1280.9555 
           35            1281.1858 
           36            1328.1768 
           37            1381.1655 
           38            1387.6704 
           39            1426.8781 
           40            1533.4200 
           41            1542.6219 
           42            1558.1866 
           43            1636.5218 
           44            1714.7483 
           45            1727.0008 
           46            1787.0030 
           47            1807.2207 
           48            1874.2502 
           49            1942.5639 
           50            1944.9841 
           51            3519.9158 
           52            3521.1330 
           53            3565.6655 
           54            3565.7686 
           55            3575.6555 
           56            3582.4456 
           57            3602.8520 
           58            3606.0349 
           59            3680.4752 
           60            3680.5031 
  Zero-point energy:  120.2900 kcal/mol =  503.2943 kJ/mol =   42072.107 cm-1 

  Finite temperature thermodynamic corrections:
=======================================================
Temperature     Entropy       Enthalpy     Gibbs Energy
    (K)        (J/(mol K))    (kJ/mol)      (kJ/mol) 
=======================================================
    298.15      432.4192       22.1324     -106.7934
    100.00      342.2144        4.4325      -29.7890
    200.00      389.5747       11.4677      -66.4472
    300.00      433.2224       22.3726     -107.5941
    400.00      476.6761       37.5818     -153.0887
    500.00      519.8303       56.9953     -202.9198
    600.00      561.8917       80.1171     -257.0179
    700.00      602.2967      106.3651     -315.2426
    800.00      640.8000      135.2264     -377.4136
    900.00      677.3623      166.2883     -443.3378
   1000.00      712.0475      199.2241     -512.8235
   1100.00      744.9631      233.7711     -585.6883
   1200.00      776.2293      269.7140     -661.7611
   1300.00      805.9658      306.8724     -740.8832
   1400.00      834.2864      345.0938     -822.9071
   1500.00      861.2963      384.2477     -907.6967
   1600.00      887.0925      424.2221     -995.1259
   1700.00      911.7637      464.9205    -1085.0778
   1800.00      935.3909      506.2597    -1177.4439
   1900.00      958.0479      548.1674    -1272.1236
   2000.00      979.8022      590.5811    -1369.0234
=======================================================
 @CHECKOUT-I, Total execution time (CPU/WALL):        0.04/       0.04 seconds.
--executable xjoda finished with status     0 in        0.06 seconds (walltime).
  The final electronic energy is      -379.768962600956854 a.u. 
  This computation required                           29.28 seconds (walltime).
