cp: cannot stat ‘/ihome/kjordan/shu8/projects/code_tests/cclib/cfour_tests/cclib/data/CFOUR/GENBAS’: No such file or directory
 --invoking executable--
/ihome/kjordan/shu8/software/source/cfour/cfour-public-gnu-mkl2017/bin/xjoda


   *************************************************************************
         <<<     CCCCCC     CCCCCC   |||     CCCCCC     CCCCCC   >>>
       <<<      CCC        CCC       |||    CCC        CCC         >>>
      <<<      CCC        CCC        |||   CCC        CCC            >>>
    <<<        CCC        CCC        |||   CCC        CCC              >>>
      <<<      CCC        CCC        |||   CCC        CCC            >>>
       <<<      CCC        CCC       |||    CCC        CCC         >>>
         <<<     CCCCCC     CCCCCC   |||     CCCCCC     CCCCCC   >>>
   *************************************************************************

     ****************************************************************
     * CFOUR Coupled-Cluster techniques for Computational Chemistry *
     ****************************************************************


   Department of Chemistry                Institut fuer Physikalische Chemie
   University of Florida                  Universitaet Mainz
   Gainesville, FL 32611, USA             D-55099 Mainz, Germany

   Department of Chemistry                Fakultaet fuer Chemie und Biowiss.
   Johns Hopkins University               Karlsruher Institut fuer Technologie
   Baltimore, MD 21218, USA               D-76131 Karlsruhe, Germany

   Department of Chemistry                Department of Physical Chemistry
   Southern Methodist University          Eotvos Lorand University
   Dallas, TX 75275, USA                  H-1053 Budapest, Hungary


                       Version 2.1

                     smp-n17.sam.pitt.edu                              
                     Fri Jul 23 10:50:23 EDT 2021                      
                     integer*8 version is running

********************************************************************************
*                          Input from ZMAT file                                *
********************************************************************************
DVB                                                                             
C     -1.4152533224    0.2302217854    0.0000000000                             
C      1.4152533224   -0.2302217854    0.0000000000                             
C     -0.4951331558    1.3144608674    0.0000000000                             
C      0.4951331558   -1.3144608674    0.0000000000                             
C      0.8894090436    1.0909493743    0.0000000000                             
C     -0.8894090436   -1.0909493743    0.0000000000                             
H     -0.8795511985    2.3437343748    0.0000000000                             
H      0.8795511985   -2.3437343748    0.0000000000                             
H      1.5779041557    1.9450061275    0.0000000000                             
H     -1.5779041557   -1.9450061275    0.0000000000                             
C      2.8845844962   -0.5210893778    0.0000000000                             
C     -2.8845844962    0.5210893778    0.0000000000                             
H      3.1403356810   -1.5919605685    0.0000000000                             
H     -3.1403356810    1.5919605685    0.0000000000                             
C      3.8800428103    0.3822535424    0.0000000000                             
C     -3.8800428103   -0.3822535424    0.0000000000                             
H      3.6946765858    1.4624389570    0.0000000000                             
H     -3.6946765858   -1.4624389570    0.0000000000                             
H      4.9316453546    0.0711049543    0.0000000000                             
H     -4.9316453546   -0.0711049543    0.0000000000                             
                                                                                
*CFOUR(BASIS=STO-3G                                                             
CALC_LEVEL=SCF                                                                  
REFERENCE=RHF                                                                   
COORDINATES=CARTESIAN                                                           
CHARGE=0                                                                        
MULTIPLICITY=1)                                                                 
                                                                                
********************************************************************************
    -------------------------------------------------------------------
                    CFOUR Control Parameters 
    -------------------------------------------------------------------
        External           Internal           Value            Units
          Name               Name
    -------------------------------------------------------------------
       ABCDTYPE             IABCDT         STANDARD    [  0]    ***   
       ANHARMONIC           IANHAR         OFF         [  0]    ***   
       ANH_ALGORIT          IANALG         STANDARD    [  0]    ***   
       ANH_DERIVAT          IANDER         SECOND      [  1]    ***   
       ANH_MODE             ANHMOD         VIBRATION   [  0]    ***   
       ANH_STEPSIZ          ICUBST             50000          x 10-6  
       ANH_SYMMETR          IANHSM         ABELIAN     [  0]    ***   
       AO_LADDERS           IAOLAD         SINGLEPASS  [  1]    ***   
       AV_SCF               IAVSCF         OFF         [  0]    ***   
       BASIS                IBASIS         STO-3G      [  2]    ***   
       BOTHVECTORS          BOTHVC         OFF         [  0]    ***   
       BOX_POTENT           IPIAB          OFF         [  0]    ***   
       BREIT                IBREIT         OFF         [  0]    ***   
       BRUCK_CONV           IBRTOL          10D-  4             ***   
       BRUECKNER            IBRKNR         OFF         [  0]    ***   
       BUFFERSIZE           IBUFFS              4096            ***   
       CACHE_RECS           ICHREC             10               ***   
       CALCLEVEL            ICLLVL         SCF         [  0]    ***   
       CCORBOPT             ICCORB         OFF         [  0]  x 0.01  
       CC_CONV              ICCCNV          10D-  7             ***   
       CC_EXPORDER          ICCEOR              0               ***   
       CC_EXTRAPOL          ICCEXT         DIIS        [  1]    ***   
       CC_GUESS             ICCGES         MP2         [  0]    ***   
       CC_MAXCYC            ICCCYC              0              cycles 
       CC_PROGRAM           ICCPRO         VCC         [  0]    ***   
       CHARGE               ICHRGE              0               ***   
       CHOLESKY             ICHOLE         OFF         [  0]    ***   
       CIS_CONV             ICISTL              5               ***   
       COMM_SIZE            IPSIZE            ***               ***   
       CONSTANT             ICONST         OLD         [  1]    ***   
       CONTINUUM            ICONTU         NONE        [  0]    ***   
       CONTRACTION          ICNTYP         GENERAL     [  1]    ***   
       COORDINATES          ICOORD         CARTESIAN   [  1]    ***   
       CPHF_CONVER          ICPHFT          10D- 16             ***   
       CPHF_MAXCYC          ICPHFC             64              cycles 
       CUBIC                ICUBIC         OFF         [  0]    ***   
       CURVILINEAR          ICURVY         OFF         [  0]    ***   
       DBOC                 IDBOC          OFF         [  0]    ***   
       DCT                  IDCT           OFF         [  0]    ***   
       DERIV_LEV            IDRLVL         ZERO        [  0]    ***   
       DEVMEM_SIZE          IDVMEM          50000000           MByte  
       DIAG_MRCC            IEOMST          10D-  0             ***   
       DIFF_TYPE            IDIFTY         RELAXED     [  0]    ***   
       DIRECT               IDIRCT         OFF         [  0]    ***   
       DROPMO               IDRPMO      NONE         
       ECP                  IECP           OFF         [  0]    ***   
       EIGENVECTOR          IVEC                1               ***   
       EL_ANHARM            IELANH         OFF         [  0]    ***   
       EOMFOLLOW            IEOMSR         ENERGY      [  0]    ***   
       EOMIP                IEOMIP         OFF         [  0]    ***   
       EOMLEVEL             HBARFM         SAME        [  0]    ***   
       EOM_MRCC             IMRCCE         NEW         [  1]    ***   
       EOM_NONIT            EOMNON         OFF         [  0]    ***   
       EOM_NSING            IEOMSI          10D-  0             ***   
       EOM_NSTATES          IMRCCD         DAVIDSON    [  0]    ***   
       EOM_NTRIP            IEOMTR          10D-  0             ***   
       EOM_ORDER            IEXORD         ENERGY      [  0]    ***   
       EOM_PROPSTA          IEOMST              0               ***   
       ESTATE_CONV          IEXTOL          10D-  5             ***   
       ESTATE_DIAG          IEXDIG         ITERATIVE   [  0]    ***   
       ESTATE_LOCK          IESLOC         ON          [  1]    ***   
       ESTATE_MAXC          IEXMXC             40               ***   
       ESTATE_PROP          IEXPRP         OFF         [  0]    ***   
       EVAL_HESS            IRECAL              0            # of cyc.
       EXCITATION           IEXCIT              0               ***   
       EXCITE               IEXCIT         NONE        [  0]    ***   
       EXTERN_POT           IEXPOT         OFF         [  0]    ***   
       FCGRADNEW            IFCGNW         OFF         [  0]    ***   
       FC_FIELD             IFINFC              0             x 10-6  
       FD_CALTYPE           IFDCAL         GRADONLY    [  0]    ***   
       FD_PROJECT           IFDPRJ         OFF         [  1]    ***   
       FD_STEPSIZE          IDISFD              0            10-4 bohr
       FD_USEGROUP          IFDGRP         FULL        [  0]    ***   
       FILE_RECSIZ          IFLREC              4096           words  
       FINITE_PERT          IFIPER              0             x 10-6  
       FIXGEOM              IFIXGM         OFF         [  0]    ***   
       FOCK                 IFOCK          AO          [  1]    ***   
       FREQ_ALGORI          IVIALG         STANDARD    [  0]    ***   
       FROZEN_CORE          IFROCO         OFF         [  0]    ***   
       GAMMA_ABCD           IGABCD         STORE       [  0]    ***   
       GAMMA_ABCI           IGABCI         STORE       [  0]    ***   
       GENBAS_1             IGNBS1              0               ***   
       GENBAS_2             IGNBS2              0               ***   
       GENBAS_3             IGNBS3              0               ***   
       GENBAS_4             IGNBS4              0               ***   
       GEO_CONV             ICONTL              5              H/bohr 
       GEO_MAXCYC           IOPTCY             50               ***   
       GEO_MAXSTEP          IMXSTP            300            millibohr
       GEO_METHOD           INR            SINGLE_POINT[  5]    ***   
       GIAO                 IGIAO          OFF         [  1]    ***   
       GIMIC                IGIMIC         OFF         [  0]    ***   
       GRID                 IGRID          OFF         [  0]    ***   
       GRID_ALGO            IGALGO         SERIAL      [  0]    ***   
       GUESS                IGUESS         MOREAD      [  0]    ***   
       HBAR                 IHBAR          OFF         [  0]    ***   
       HESS_TYPE            IHESTP         SCF         [  0]    ***   
       HF2_FILE             IHF2Fl         USE         [  1]    ***   
       HFSTABILITY          ISTABL         OFF         [  0]    ***   
       INCORE               INCORE         OFF         [  0]    ***   
       INPUT_MRCC           IMRCC          ON          [  1]    ***   
       INTEGRALS            INTTYP         VMOL        [  1]    ***   
       JODA_PRINT           IJPRNT              0               ***   
       KEYWORD_OUT          IDMPKW         NO          [  0]    ***   
       LINDEP_TOL           ILINDP              8               ***   
       LINEQ_CONV           IZTACN          10D-  7           cycles  
       LINEQ_EXPOR          ILMAXD              5               ***   
       LINEQ_MAXCY          ILMAXC            100               ***   
       LINEQ_TYPE           ILTYPE         DIIS        [  1]    ***   
       LOCK_ORBOCC          ILOCOC         OFF         [  0]    ***   
       MEMORY_SIZE          IMEMSZ         100000000           words  
       MEM_UNIT             IMEMU          INTEGERWORDS[  0]    ***   
       MRCC                 IMRCCC         OFF         [  0]    ***   
       MULTIPLICTY          IMULTP              1               ***   
       NACOUPLING           IVCOUP         OFF         [  0]    ***   
       NEGEVAL              IDIE           ABORT       [  0]    ***   
       NEWNORM              INEWNO         OFF         [  0]    ***   
       NON-HF               INONHF         OFF         [  0]    ***   
       NTOP_TAMP            ITOPT2             15               ***   
       NUC_MODEL            INUCMO         POINT       [  0]    ***   
       OCCUPATION           IOCCU   ESTIMATED BY SCF 
       OPEN-SHELL           IOPEN          SPIN-ORBITAL[  0]    ***   
       OPTVIB               IOPTVB         OFF         [  0]    ***   
       ORBITALS             IORBTP         STANDARD    [  0]    ***   
       PARALLEL             IPARAL         ON          [  1]    ***   
       PARA_INT             IPINTS         ON          [  1]    ***   
       PARA_PRINT           IPPRIN              0               ***   
       PERT_ORB             IPTORB         STANDARD    [  0]    ***   
       POINTS               IGRDFD              0               ***   
       PRINT                IPRNT               0               ***   
       PROPS                IPROPS         OFF         [  0]    ***   
       PROP_INTEGR          IINTYP         INTERNAL    [  0]    ***   
       PSI                  IPSI           OFF         [  0]    ***   
       QC_ALG               IQCALG         FLM         [  0]    ***   
       QC_LINALG            IQCLIN         TRIDIAG     [  2]    ***   
       QC_MAXCYC            IQCMAX          10D-100           cycles  
       QC_MAXSCFCY          IQCMSC          10D- 15           cycles  
       QC_RTRUST            IQCRTR          10D-  0           x 10-3  
       QC_SKIPSCF           IQCSKI         OFF         [  0]    ***   
       QC_START             IQCSTA          10D-  1             ***   
       QRHFGUESS            IQGUES         OFF         [  0]    ***   
       QUARTIC              IQUART         OFF         [  0]    ***   
       RAMAN_INT            IRAMIN         OFF         [  0]    ***   
       RAMAN_ORB            IRAMRE         UNRELAXED   [  0]    ***   
       RDO                  IRDOFM         OFF         [  0]    ***   
       REDUCE_REPR          REDREP         Ir          [  0]    ***   
       REFERENCE            IREFNC         RHF         [  0]    ***   
       RELATIVIST           IRELAT         OFF         [  0]    ***   
       RELAX_DENS           IRDENS         OFF         [  0]    ***   
       RESET_FLAGS          IRESET         OFF         [  0]    ***   
       RESTART_CC           ICCRES         OFF         [  0]    ***   
       ROT_EVEC             ROTVEC              0               ***   
       SAVE_INTS            ISVINT         OFF         [  0]    ***   
       SCALE_ON             ISTCRT              0               ***   
       SCF_CONV             ISCFCV          10D-  7             ***   
       SCF_DAMPING          IDAMP               0             x 10-3  
       SCF_EXPORDE          IRPPOR              6               ***   
       SCF_EXPSTAR          IRPPLS              8               ***   
       SCF_EXTRAPO          IRPP           ON          [  1]    ***   
       SCF_MAXCYC           ISCFCY            150              cycles 
       SCF_NOSTOP           ISCFST         OFF         [  0]    ***   
       SCF_PRINT            ISCFPR              0               ***   
       SCF_PROG             ISCFPR         SCF         [  0]    ***   
       SD_FIELD             IFINSD              0             x 10-6  
       SOPERT               IPERSO         OFF         [  0]    ***   
       SPHERICAL            IDFGHI         ON          [  1]    ***   
       SPINORBIT            ISOCAL         OFF         [  0]    ***   
       SPINROTATIO          ISRCON         OFF         [  0]    ***   
       SPIN_FLIP            ISPFLP         OFF         [  0]    ***   
       SPIN_ORBIT           ISPORB         OFF         [  0]    ***   
       SPIN_SCAL            ISCSMP         OFF         [  0]    ***   
       STEEPSCALE           ISTPSC              1000          x 10-3  
       SUBGROUP             ISUBGP         DEFAULT     [  0]    ***   
       SUBGRPAXIS           ISBXYZ         X           [  0]    ***   
       SYMMETRY             ISYM           ON          [  0]    ***   
       SYM_CHECK            ISYMCK         OVERRIDE    [  1]    ***   
       T3_EXTRAPOL          IT3EXT         OFF         [  0]    ***   
       T4_EXTRAPOL          IT4EXP         OFF         [  0]    ***   
       TAMP_SUM             IEVERY              0               ***   
       TESTSUITE            ITESTS         OFF         [  0]    ***   
       THERMOCH             ITHERM         OFF         [  0]    ***   
       TOL_CHOLESK          ITOLCH          10D-  4             ***   
       TRANGRAD             IRESRM         OFF         [  0]    ***   
       TRANS_INV            ITRAIN         USE         [  0]    ***   
       TREAT_PERT           ITREAT         SIMULTANEOUS[  0]    ***   
       TRIP_ALGORI          ITRALG         NORMAL      [  0]    ***   
       UIJ_THRESHO          IUIJTH              1               ***   
       UNITS                IUNITS         ANGSTROM    [  0]    ***   
       UNOS                 IUNOS          OFF         [  0]    ***   
       UPDATE_HESS          IHUPDT         ON          [  1]    ***   
       VIBPHASE             ISETPH         STANDARD    [  0]    ***   
       VIBRATION            IVIB           NO          [  0]    ***   
       VIB_ALGORIT          IGEALG         STANDARD    [  0]    ***   
       VNATORB              IVNORB         OFF         [  0]    ***   
       VTRAN                IVTRAN         FULL/PARTIAL[  0]    ***   
       XFIELD               IXEFLD              0             x 10-6  
       XFORM_TOL            IXFTOL          10D- 11             ***   
       YFIELD               IYEFLD              0             x 10-6  
       ZFIELD               IZEFLD              0             x 10-6  
       ZSCALE_EXP           IZEXPS         OFF         [  0]    ***   
    -------------------------------------------------------------------
  @GETXYZ-I,    20 atoms read from ZMAT.
   Rotational constants (in cm-1): 
          0.0199168511             0.0228745556             0.1540346947
   Rotational constants (in MHz): 
        597.0922573598           685.7620215298          4617.8446202006
********************************************************************************
   The full molecular point group is C2h .
   The largest Abelian subgroup of the full molecular point group is C2h .
   The computational point group is C2h .
********************************************************************************


 ----------------------------------------------------------------
         Coordinates used in calculation (QCOMP) 
 ----------------------------------------------------------------
 Z-matrix   Atomic            Coordinates (in bohr)
  Symbol    Number           X              Y              Z
 ----------------------------------------------------------------
     C         6        -2.67238813     0.44749770     0.00000000
     C         6         2.67238813    -0.44749770     0.00000000
     C         6        -0.92409633     2.48829903     0.00000000
     C         6         0.92409633    -2.48829903     0.00000000
     C         6         1.69031582     2.05375189     0.00000000
     C         6        -1.69031582    -2.05375189     0.00000000
     H         1        -1.64148166     4.43670411     0.00000000
     H         1         1.64148166    -4.43670411     0.00000000
     H         1         2.99888006     3.66161326     0.00000000
     H         1        -2.99888006    -3.66161326     0.00000000
     C         6         5.44643416    -1.01007373     0.00000000
     C         6        -5.44643416     1.01007373     0.00000000
     H         1         5.92031114    -3.03595467     0.00000000
     H         1        -5.92031114     3.03595467     0.00000000
     C         6         7.33550206     0.68822447     0.00000000
     C         6        -7.33550206    -0.68822447     0.00000000
     H         1         6.99471389     2.73108756     0.00000000
     H         1        -6.99471389    -2.73108756     0.00000000
     H         1         9.31998542     0.09099696     0.00000000
     H         1        -9.31998542    -0.09099696     0.00000000
 ----------------------------------------------------------------

   Interatomic distance matrix (Angstroms) 

                 C             C             C             C             C    
                [ 1]        [ 2]        [ 3]        [ 4]        [ 5]
  C    [ 1]     0.00000
  C    [ 2]     2.86771     0.00000
  C    [ 3]     1.42204     2.45675     0.00000
  C    [ 4]     2.45675     1.42204     2.80925     0.00000
  C    [ 5]     2.46015     1.42197     1.40247     2.43751     0.00000
  C    [ 6]     1.42197     2.46015     2.43751     1.40247     2.81512
  H    [ 7]     2.18035     3.44839     1.09872     3.90796     2.16765
  H    [ 8]     3.44839     2.18035     3.90796     1.09872     3.43470
  H    [ 9]     3.44956     2.18130     2.16681     3.43461     1.09701
  H    [10]     2.18130     3.44956     3.43461     2.16681     3.91212
  C    [11]     4.36498     1.49784     3.84600     2.51772     2.56503
  C    [12]     1.49784     4.36498     2.51772     3.84600     3.81678
  H    [13]     4.90650     2.19778     4.65445     2.65972     3.50210
  H    [14]     2.19778     4.90650     2.65972     4.65445     4.06077
  C    [15]     5.29748     2.53975     4.47339     3.78635     3.07346
  C    [16]     2.53975     5.29748     3.78635     4.47339     4.99179
  H    [17]     5.25640     2.83917     4.19242     4.23654     2.82976
  H    [18]     2.83917     5.25640     4.23654     4.19242     5.24725
  H    [19]     6.34889     3.52928     5.56739     4.64784     4.16890
  H    [20]     3.52928     6.34889     4.64784     5.56739     5.93591

                 C             H             H             H             H    
                [ 6]        [ 7]        [ 8]        [ 9]        [10]
  C    [ 6]     0.00000
  H    [ 7]     3.43470     0.00000
  H    [ 8]     2.16765     5.00668     0.00000
  H    [ 9]     3.91212     2.48959     4.34523     0.00000
  H    [10]     1.09701     4.34523     2.48959     5.00912     0.00000
  C    [11]     3.81678     4.73032     2.70965     2.79089     4.68416
  C    [12]     2.56503     2.70965     4.73032     4.68416     2.79089
  H    [13]     4.06077     5.62576     2.38250     3.86670     4.73143
  H    [14]     3.50210     2.38250     5.62576     4.73143     3.86670
  C    [15]     4.99179     5.14793     4.05388     2.78245     5.93341
  C    [16]     3.07346     4.05388     5.14793     5.93341     2.78245
  H    [17]     5.24725     4.65835     4.73412     2.17108     6.27780
  H    [18]     2.82976     4.73412     4.65835     6.27780     2.17108
  H    [19]     5.93591     6.23978     4.71709     3.84176     6.81461
  H    [20]     4.16890     4.71709     6.23978     6.81461     3.84176

                 C             C             H             H             C    
                [11]        [12]        [13]        [14]        [15]
  C    [11]     0.00000
  C    [12]     5.86255     0.00000
  H    [13]     1.10099     6.38472     0.00000
  H    [14]     6.38472     1.10099     7.04161     0.00000
  C    [15]     1.34423     6.76605     2.10824     7.12384     0.00000
  C    [16]     6.76605     1.34423     7.12384     2.10824     7.79766
  H    [17]     2.14258     6.64626     3.10430     6.83624     1.09598
  H    [18]     6.64626     2.14258     6.83624     3.10430     7.79611
  H    [19]     2.13100     7.82917     2.44430     8.21401     1.09667
  H    [20]     7.82917     2.13100     8.21401     2.44430     8.82334

                 C             H             H             H             H    
                [16]        [17]        [18]        [19]        [20]
  C    [16]     0.00000
  H    [17]     7.79611     0.00000
  H    [18]     1.09598     7.94717     0.00000
  H    [19]     8.82334     1.86169     8.76158     0.00000
  H    [20]     1.09667     8.76158     1.86169     9.86432     0.00000
 rotcon2
   Rotational constants (in cm-1): 
          0.1540346947             0.0228745556             0.0199168511
   Rotational constants (in MHz): 
       4617.8446202006           685.7620215298           597.0922573598
  GENBAS file not present.   Using default GENBAS. 
 --invoking executable--
/ihome/kjordan/shu8/software/source/cfour/cfour-public-gnu-mkl2017/bin/set_genbas
--executable set_genbas finished with status     0 in        0.01 seconds (walltime).
  ECPDATA file not present.   Using default ECPDATA. 
  There are   60 basis functions.
 @GEOPT-W, Archive file not created for single-point calculation.
 @CHECKOUT-I, Total execution time (CPU/WALL):        0.17/       0.19 seconds.
--executable xjoda finished with status     0 in        0.20 seconds (walltime).
 --invoking executable--
/ihome/kjordan/shu8/software/source/cfour/cfour-public-gnu-mkl2017/bin/xvmol
 SERIAL VERSION OF MOLECULE STARTED
********************************************************************************
                    INPUT FROM MOL FILE
********************************************************************************
INTGRL        1    0    1    0    0    0    0    0    0                         
         *** CFOUR Program System (Release V0.1) ***                            
DVB                                                                             
   10    2 Z  XY      0.10E-08              0    0                              
   9999.00      3.00                                                            
          6.00000000    1    2    1    1                                        
C #1  -2.672388130301991   0.447497702207649   0.000000000000000                
    6    2                                                                      
   71.616837300000000       0.15432899999999999        0.0000000000000000       
   13.045096300000001       0.53532809999999997        0.0000000000000000       
   3.5305122000000000       0.44463449999999999        0.0000000000000000       
   2.9412493999999998        0.0000000000000000       -9.9967200000000006E-002  
  0.68348310000000001        0.0000000000000000       0.39951280000000000       
  0.22228990000000001        0.0000000000000000       0.70011550000000000       
    3    1                                                                      
   2.9412493999999998       0.15591630000000001                                 
  0.68348310000000001       0.60768370000000005                                 
  0.22228990000000001       0.39195740000000001                                 
          6.00000000    1    2    1    1                                        
C #2  -0.924096325580836   2.488299025763687   0.000000000000000                
    6    2                                                                      
   71.616837300000000       0.15432899999999999        0.0000000000000000       
   13.045096300000001       0.53532809999999997        0.0000000000000000       
   3.5305122000000000       0.44463449999999999        0.0000000000000000       
   2.9412493999999998        0.0000000000000000       -9.9967200000000006E-002  
  0.68348310000000001        0.0000000000000000       0.39951280000000000       
  0.22228990000000001        0.0000000000000000       0.70011550000000000       
    3    1                                                                      
   2.9412493999999998       0.15591630000000001                                 
  0.68348310000000001       0.60768370000000005                                 
  0.22228990000000001       0.39195740000000001                                 
          6.00000000    1    2    1    1                                        
C #3   1.690315822065242   2.053751887204707   0.000000000000000                
    6    2                                                                      
   71.616837300000000       0.15432899999999999        0.0000000000000000       
   13.045096300000001       0.53532809999999997        0.0000000000000000       
   3.5305122000000000       0.44463449999999999        0.0000000000000000       
   2.9412493999999998        0.0000000000000000       -9.9967200000000006E-002  
  0.68348310000000001        0.0000000000000000       0.39951280000000000       
  0.22228990000000001        0.0000000000000000       0.70011550000000000       
    3    1                                                                      
   2.9412493999999998       0.15591630000000001                                 
  0.68348310000000001       0.60768370000000005                                 
  0.22228990000000001       0.39195740000000001                                 
          1.00000000    1    1    1                                             
H #4  -1.641481662073812   4.436704105033953   0.000000000000000                
    3    1                                                                      
   3.4252509000000000       0.15432899999999999                                 
  0.62391370000000002       0.53532809999999997                                 
  0.16885539999999999       0.44463449999999999                                 
          1.00000000    1    1    1                                             
H #5   2.998880059731860   3.661613256120146   0.000000000000000                
    3    1                                                                      
   3.4252509000000000       0.15432899999999999                                 
  0.62391370000000002       0.53532809999999997                                 
  0.16885539999999999       0.44463449999999999                                 
          6.00000000    1    2    1    1                                        
C #6   5.446434164927560  -1.010073731531766   0.000000000000000                
    6    2                                                                      
   71.616837300000000       0.15432899999999999        0.0000000000000000       
   13.045096300000001       0.53532809999999997        0.0000000000000000       
   3.5305122000000000       0.44463449999999999        0.0000000000000000       
   2.9412493999999998        0.0000000000000000       -9.9967200000000006E-002  
  0.68348310000000001        0.0000000000000000       0.39951280000000000       
  0.22228990000000001        0.0000000000000000       0.70011550000000000       
    3    1                                                                      
   2.9412493999999998       0.15591630000000001                                 
  0.68348310000000001       0.60768370000000005                                 
  0.22228990000000001       0.39195740000000001                                 
          1.00000000    1    1    1                                             
H #7   5.920311137072457  -3.035954666539687   0.000000000000000                
    3    1                                                                      
   3.4252509000000000       0.15432899999999999                                 
  0.62391370000000002       0.53532809999999997                                 
  0.16885539999999999       0.44463449999999999                                 
          6.00000000    1    2    1    1                                        
C #8   7.335502063406305   0.688224471072172   0.000000000000000                
    6    2                                                                      
   71.616837300000000       0.15432899999999999        0.0000000000000000       
   13.045096300000001       0.53532809999999997        0.0000000000000000       
   3.5305122000000000       0.44463449999999999        0.0000000000000000       
   2.9412493999999998        0.0000000000000000       -9.9967200000000006E-002  
  0.68348310000000001        0.0000000000000000       0.39951280000000000       
  0.22228990000000001        0.0000000000000000       0.70011550000000000       
    3    1                                                                      
   2.9412493999999998       0.15591630000000001                                 
  0.68348310000000001       0.60768370000000005                                 
  0.22228990000000001       0.39195740000000001                                 
          1.00000000    1    1    1                                             
H #9   6.994713889404575   2.731087563079105   0.000000000000000                
    3    1                                                                      
   3.4252509000000000       0.15432899999999999                                 
  0.62391370000000002       0.53532809999999997                                 
  0.16885539999999999       0.44463449999999999                                 
          1.00000000    1    1    1                                             
H #0   9.319985418888493   0.090996963293147   0.000000000000000                
    3    1                                                                      
   3.4252509000000000       0.15432899999999999                                 
  0.62391370000000002       0.53532809999999997                                 

Running with 1 threads/proc

  0.16885539999999999       0.44463449999999999                                 
FINISH                                                                          

********************************************************************************
 ONE- AND TWO-ELECTRON INTEGRALS OVER SYMMETRY-ADAPTED AOS ARE CALCULATED.

  SPHERICAL HARMONICS ARE USED.
  
  INTEGRALS LESS THAN  0.10E-13 ARE NEGLECTED.

  NUCLEAR REPULSION ENERGY :  445.9368866056 A.U.
  @MOLECU-I, ONE ELECTRON INTEGRALS (CPU/WALL):        0.04/       0.04 SECONDS.
  @TWOEL-I,     102960 INTEGRALS OF SYMMETRY TYPE  I I I I
  @TWOEL-I,     221234 INTEGRALS OF SYMMETRY TYPE  I J I J
  @TWOEL-I,     121825 INTEGRALS OF SYMMETRY TYPE  I I J J
  @TWOEL-I,      46619 INTEGRALS OF SYMMETRY TYPE  I J K L
  @TWOEL-I, TOTAL NUMBER OF 2-E INTEGRALS     492638.
  @MOLECU-I, TWO ELECTRON INTEGRALS (CPU/WALL):        2.73/       2.73 SECONDS.
 @CHECKOUT-I, Total execution time (CPU/WALL):        2.77/       2.77 seconds.
--executable xvmol finished with status     0 in        2.78 seconds (walltime).
 --invoking executable--
/ihome/kjordan/shu8/software/source/cfour/cfour-public-gnu-mkl2017/bin/xvmol2ja
 @GETMEM-I,  Allocated     762 MB of main memory.
 @CHECKOUT-I, Total execution time (CPU/WALL):        0.00/       0.00 seconds.
--executable xvmol2ja finished with status     0 in        0.02 seconds (walltime).
 --invoking executable--
/ihome/kjordan/shu8/software/source/cfour/cfour-public-gnu-mkl2017/bin/xvscf
  There are   60 functions in the AO basis.

  There are 4 irreducible representations.

       Irrep        # of functions
         1                 25
         2                  5
         3                 25
         4                  5


  Parameters for SCF calculation: 
        SCF reference function:  RHF  
  Maximum number of iterations:  150
     Full symmetry point group: C2h 
     Computational point group: C2h 
        Initial density matrix: MOREAD                 
     SCF convergence tolerance: 10**(- 7)
  DIIS convergence acceleration:  ON
          Latest start for DIIS:   8
                     DIIS order:   6

  Memory information:     165086 words required.
  Fock matrices are constructed from AO integral file.
 @GETMEM-I,  Allocated       1 MB of main memory.
  Initialization and symmetry analysis required      0.001 seconds.

  @INITGES-I, Occupancies from core Hamiltonian:

          Alpha population by irrep:  15    3   14    3
           Beta population by irrep:  15    3   14    3


 total no. of electrons in initial guess :   0.0000000000000000     
  --------------------------------------------------------------------
  Iteration         Total Energy            Largest Density Difference
  --------------------------------------------------------------------
       0           445.936886605585357              0.0000000000D+00
   current occupation vector 
    15  3 14  3
    15  3 14  3
       1          -303.460683366006435              0.2770672417D+01
   current occupation vector 
    15  3 14  3
    15  3 14  3
       2          -296.319257390964765              0.2825959941D+01
   current occupation vector 
    16  2 15  2
    16  2 15  2
       3          -294.845855804310474              0.2839782022D+01
   current occupation vector 
    15  3 14  3
    15  3 14  3
       4          -296.290049837211484              0.2839964017D+01
   current occupation vector 
    16  2 15  2
    16  2 15  2
       5          -294.584893802851013              0.2839972368D+01
   current occupation vector 
    15  3 14  3
    15  3 14  3
       6          -296.322133010704022              0.2839967413D+01
   current occupation vector 
    16  2 15  2
    16  2 15  2
       7          -294.593546508790325              0.2839967483D+01
   current occupation vector 
    15  3 14  3
    15  3 14  3
       8          -296.323846128271327              0.2839967172D+01
   current occupation vector 
    16  2 15  2
    16  2 15  2
       9          -379.602491594005130              0.2398602785D+01
   current occupation vector 
    15  2 15  3
    15  2 15  3
      10          -379.605036232875420              0.9687371770D-01
   current occupation vector 
    15  2 15  3
    15  2 15  3
      11          -379.600343960891962              0.2002221956D-01
   current occupation vector 
    15  2 15  3
    15  2 15  3
      12          -379.607218132428159              0.2815639233D-02
   current occupation vector 
    15  2 15  3
    15  2 15  3
      13          -379.765804599472801              0.1563532237D+00
   current occupation vector 
    15  2 15  3
    15  2 15  3
      14          -379.768395677961109              0.1742614017D-01
   current occupation vector 
    15  2 15  3
    15  2 15  3
      15          -379.768946429224854              0.9299461114D-02
   current occupation vector 
    15  2 15  3
    15  2 15  3
      16          -379.768961315978970              0.1668399537D-02
   current occupation vector 
    15  2 15  3
    15  2 15  3
      17          -379.768962511579446              0.3500515914D-03
   current occupation vector 
    15  2 15  3
    15  2 15  3
      18          -379.768962595198616              0.1380073478D-03
   current occupation vector 
    15  2 15  3
    15  2 15  3
      19          -379.768962600671614              0.3062718102D-04
   current occupation vector 
    15  2 15  3
    15  2 15  3
      20          -379.768962600940483              0.6247762436D-05
   current occupation vector 
    15  2 15  3
    15  2 15  3
      21          -379.768962600956058              0.1090863025D-05
   current occupation vector 
    15  2 15  3
    15  2 15  3
      22          -379.768962600957536              0.4704530339D-06
   current occupation vector 
    15  2 15  3
    15  2 15  3
      23          -379.768962600955831              0.1022135118D-06
   current occupation vector 
    15  2 15  3
    15  2 15  3

  SCF has converged.

 Density matrix saved to file den.dat
 total electron number:   70.000000000000128     
     E(SCF)=      -379.768962600956854              0.7152585124D-07


  Final occupancies:

     Alpha population by irrep:  15    2   15    3
      Beta population by irrep:  15    2   15    3


  Eigenvector printing suppressed.

 @PUTMOS-I, Writing converged MOs to NEWMOS. 
 @PUTMOS-I, Symmetry   1 Full Blocks  6 Partial Blocksize   1
 @PUTMOS-I, Symmetry   2 Full Blocks  1 Partial Blocksize   1
 @PUTMOS-I, Symmetry   3 Full Blocks  6 Partial Blocksize   1
 @PUTMOS-I, Symmetry   4 Full Blocks  1 Partial Blocksize   1
 @PUTFOCK-I, Writing converged Fock matrix to NEWFOCK. 
 @PUTFOCK-I, Symmetry   1 Full Blocks  6 Partial Blocksize   1
 @PUTFOCK-I, Symmetry   2 Full Blocks  1 Partial Blocksize   1
 @PUTFOCK-I, Symmetry   3 Full Blocks  6 Partial Blocksize   1
 @PUTFOCK-I, Symmetry   4 Full Blocks  1 Partial Blocksize   1



  ORBITAL EIGENVALUES (ALPHA)  (1H = 27.2113834 eV)

       MO #        E(hartree)               E(eV)           FULLSYM    COMPSYM
       ----   --------------------   --------------------   -------   ---------
    1    31         -11.0405872764        -300.4296533396      Bu        Bu (3)
    2     1         -11.0405247279        -300.4279513092      Ag        Ag (1)
    3    32         -11.0315890428        -300.1847989538     E          Bu (3)
    4     2         -11.0315887131        -300.1847899832     E          Ag (1)
    5    33         -11.0289523876        -300.1130519195      Bu        Bu (3)
    6     3         -11.0288220227        -300.1095045110      Ag        Ag (1)
    7    34         -11.0286085822        -300.1036964982      Bu        Bu (3)
    8     4         -11.0285855507        -300.1030697791      Ag        Ag (1)
    9    35         -11.0174796056        -299.8008616496     E          Bu (3)
   10     5         -11.0174794280        -299.8008568172     E          Ag (1)
   11     6          -1.0902974483         -29.6685018868      Ag        Ag (1)
   12    36          -1.0202531963         -27.7625008895      Bu        Bu (3)
   13     7          -0.9749249186         -26.5290557465      Ag        Ag (1)
   14    37          -0.9503007562         -25.8589982220      Bu        Bu (3)
   15    38          -0.9096340320         -24.7524003991      Bu        Bu (3)
   16     8          -0.7998822748         -21.7659032551      Ag        Ag (1)
   17     9          -0.7628252767         -20.7575310728      Ag        Ag (1)
   18    39          -0.7276314284         -19.7998577718      Bu        Bu (3)
   19    10          -0.6967760319         -18.9602397488      Ag        Ag (1)
   20    11          -0.6280514343         -17.0901483744      Ag        Ag (1)
   21    40          -0.6056773226         -16.4813178433      Bu        Bu (3)
   22    41          -0.5729412467         -15.5905239303      Bu        Bu (3)
   23    42          -0.5536027936         -15.0642978673      Bu        Bu (3)
   24    12          -0.5531659093         -15.0524096414      Ag        Ag (1)
   25    43          -0.5253583492         -14.2957274611      Bu        Bu (3)
   26    44          -0.4966979365         -13.5158379847      Bu        Bu (3)
   27    13          -0.4925273554         -13.4023507034      Ag        Ag (1)
   28    26          -0.4637290382         -12.6187086520      Au        Au (2)
   29    45          -0.4464304468         -12.1479900490      Bu        Bu (3)
   30    14          -0.4216536391         -11.4737788347      Ag        Ag (1)
   31    15          -0.4156205076         -11.3096089804      Ag        Ag (1)
   32    56          -0.3769627391         -10.2576776200      Bg        Bg (4)
   33    27          -0.3151263879          -8.5750249619      Au        Au (2)
   34    57          -0.2783627007          -7.5746341724      Bg        Bg (4)
   35    58          -0.2221890354          -6.0460710290      Bg        Bg (4)
  +++++++++++++++++++++++++++++++++++++++++++++++++++++++++++++++++++++++++++++
   36    28           0.1989933972           5.4148856258      Au        Au (2)
   37    29           0.2685158936           7.3066889295      Au        Au (2)
   38    59           0.3088252110           8.4035612195      Bg        Bg (4)
   39    30           0.3970771156          10.8050176313      Au        Au (2)
   40    60           0.5217578032          14.1977516235      Bg        Bg (4)
   41    16           0.5650168048          15.3748889038      Ag        Ag (1)
   42    46           0.5755617385          15.6618311361      Bu        Bu (3)
   43    17           0.6215607706          16.9135284339      Ag        Ag (1)
   44    47           0.6258002599          17.0288908039      Bu        Bu (3)
   45    18           0.6582328312          17.9114259374      Ag        Ag (1)
   46    48           0.6593956821          17.9430687185      Bu        Bu (3)
   47    49           0.6771781256          18.4269536048      Bu        Bu (3)
   48    19           0.6941870821          18.8897908423      Ag        Ag (1)
   49    50           0.7067082612          19.2305094483      Bu        Bu (3)
   50    20           0.7401363176          20.1401331055      Ag        Ag (1)
   51    21           0.8022255923          21.8296681645      Ag        Ag (1)
   52    51           0.8256560101          22.4672422468      Bu        Bu (3)
   53    22           0.8606157719          23.4185457291      Ag        Ag (1)
   54    52           0.8877584025          24.1571342567      Bu        Bu (3)
   55    53           0.9210085051          25.0619155473      Bu        Bu (3)
   56    23           0.9399486287          25.5773025131      Ag        Ag (1)
   57    24           0.9902857139          26.9470442373      Ag        Ag (1)
   58    54           1.0272643807          27.9532849151      Bu        Bu (3)
   59    25           1.1077007872          30.1420708130      Ag        Ag (1)
   60    55           1.1249365006          30.6110784187      Bu        Bu (3)


  VSCF finished.

 @CHECKOUT-I, Total execution time (CPU/WALL):        0.22/       0.23 seconds.
--executable xvscf finished with status     0 in        0.24 seconds (walltime).
  The final electronic energy is      -379.768962600956854 a.u. 
  This computation required                            3.26 seconds (walltime).
