
                                 *****************
                                 * O   R   C   A *
                                 *****************

                                            #,                                       
                                            ###                                      
                                            ####                                     
                                            #####                                    
                                            ######                                   
                                           ########,                                 
                                     ,,################,,,,,                         
                               ,,#################################,,                 
                          ,,##########################################,,             
                       ,#########################################, ''#####,          
                    ,#############################################,,   '####,        
                  ,##################################################,,,,####,       
                ,###########''''           ''''###############################       
              ,#####''   ,,,,##########,,,,          '''####'''          '####       
            ,##' ,,,,###########################,,,                        '##       
           ' ,,###''''                  '''############,,,                           
         ,,##''                                '''############,,,,        ,,,,,,###''
      ,#''                                            '''#######################'''  
     '                                                          ''''####''''         
             ,#######,   #######,   ,#######,      ##                                
            ,#'     '#,  ##    ##  ,#'     '#,    #''#        ######   ,####,        
            ##       ##  ##   ,#'  ##            #'  '#       #        #'  '#        
            ##       ##  #######   ##           ,######,      #####,   #    #        
            '#,     ,#'  ##    ##  '#,     ,#' ,#      #,         ##   #,  ,#        
             '#######'   ##     ##  '#######'  #'      '#     #####' # '####'        



                  #######################################################
                  #                        -***-                        #
                  #          Department of theory and spectroscopy      #
                  #    Directorship and core code : Frank Neese         #
                  #        Max Planck Institute fuer Kohlenforschung    #
                  #                Kaiser Wilhelm Platz 1               #
                  #                 D-45470 Muelheim/Ruhr               #
                  #                      Germany                        #
                  #                                                     #
                  #                  All rights reserved                #
                  #                        -***-                        #
                  #######################################################


                         Program Version 5.0.4 -  RELEASE  -


 With contributions from (in alphabetic order):
   Daniel Aravena         : Magnetic Suceptibility
   Michael Atanasov       : Ab Initio Ligand Field Theory (pilot matlab implementation)
   Alexander A. Auer      : GIAO ZORA, VPT2 properties, NMR spectrum
   Ute Becker             : Parallelization
   Giovanni Bistoni       : ED, misc. LED, open-shell LED, HFLD
   Martin Brehm           : Molecular dynamics
   Dmytro Bykov           : SCF Hessian
   Vijay G. Chilkuri      : MRCI spin determinant printing, contributions to CSF-ICE
   Dipayan Datta          : RHF DLPNO-CCSD density
   Achintya Kumar Dutta   : EOM-CC, STEOM-CC
   Dmitry Ganyushin       : Spin-Orbit,Spin-Spin,Magnetic field MRCI
   Miquel Garcia          : C-PCM and meta-GGA Hessian, CC/C-PCM, Gaussian charge scheme
   Yang Guo               : DLPNO-NEVPT2, F12-NEVPT2, CIM, IAO-localization
   Andreas Hansen         : Spin unrestricted coupled pair/coupled cluster methods
   Benjamin Helmich-Paris : MC-RPA, TRAH-SCF, COSX integrals
   Lee Huntington         : MR-EOM, pCC
   Robert Izsak           : Overlap fitted RIJCOSX, COSX-SCS-MP3, EOM
   Marcus Kettner         : VPT2
   Christian Kollmar      : KDIIS, OOCD, Brueckner-CCSD(T), CCSD density, CASPT2, CASPT2-K
   Simone Kossmann        : Meta GGA functionals, TD-DFT gradient, OOMP2, MP2 Hessian
   Martin Krupicka        : Initial AUTO-CI
   Lucas Lang             : DCDCAS
   Marvin Lechner         : AUTO-CI (C++ implementation), FIC-MRCC
   Dagmar Lenk            : GEPOL surface, SMD
   Dimitrios Liakos       : Extrapolation schemes; Compound Job, initial MDCI parallelization
   Dimitrios Manganas     : Further ROCIS development; embedding schemes
   Dimitrios Pantazis     : SARC Basis sets
   Anastasios Papadopoulos: AUTO-CI, single reference methods and gradients
   Taras Petrenko         : DFT Hessian,TD-DFT gradient, ASA, ECA, R-Raman, ABS, FL, XAS/XES, NRVS
   Peter Pinski           : DLPNO-MP2, DLPNO-MP2 Gradient
   Christoph Reimann      : Effective Core Potentials
   Marius Retegan         : Local ZFS, SOC
   Christoph Riplinger    : Optimizer, TS searches, QM/MM, DLPNO-CCSD(T), (RO)-DLPNO pert. Triples
   Tobias Risthaus        : Range-separated hybrids, TD-DFT gradient, RPA, STAB
   Michael Roemelt        : Original ROCIS implementation
   Masaaki Saitow         : Open-shell DLPNO-CCSD energy and density
   Barbara Sandhoefer     : DKH picture change effects
   Avijit Sen             : IP-ROCIS
   Kantharuban Sivalingam : CASSCF convergence, NEVPT2, FIC-MRCI
   Bernardo de Souza      : ESD, SOC TD-DFT
   Georgi Stoychev        : AutoAux, RI-MP2 NMR, DLPNO-MP2 response
   Willem Van den Heuvel  : Paramagnetic NMR
   Boris Wezisla          : Elementary symmetry handling
   Frank Wennmohs         : Technical directorship


 We gratefully acknowledge several colleagues who have allowed us to
 interface, adapt or use parts of their codes:
   Stefan Grimme, W. Hujo, H. Kruse, P. Pracht,  : VdW corrections, initial TS optimization,
                  C. Bannwarth, S. Ehlert          DFT functionals, gCP, sTDA/sTD-DF
   Ed Valeev, F. Pavosevic, A. Kumar             : LibInt (2-el integral package), F12 methods
   Garnet Chan, S. Sharma, J. Yang, R. Olivares  : DMRG
   Ulf Ekstrom                                   : XCFun DFT Library
   Mihaly Kallay                                 : mrcc  (arbitrary order and MRCC methods)
   Jiri Pittner, Ondrej Demel                    : Mk-CCSD
   Frank Weinhold                                : gennbo (NPA and NBO analysis)
   Christopher J. Cramer and Donald G. Truhlar   : smd solvation model
   Lars Goerigk                                  : TD-DFT with DH, B97 family of functionals
   V. Asgeirsson, H. Jonsson                     : NEB implementation
   FAccTs GmbH                                   : IRC, NEB, NEB-TS, DLPNO-Multilevel, CI-OPT
                                                   MM, QMMM, 2- and 3-layer-ONIOM, Crystal-QMMM,
                                                   LR-CPCM, SF, NACMEs, symmetry and pop. for TD-DFT,
                                                   nearIR, NL-DFT gradient (VV10), updates on ESD,
                                                   ML-optimized integration grids
   S Lehtola, MJT Oliveira, MAL Marques          : LibXC Library
   Liviu Ungur et al                             : ANISO software


 Your calculation uses the libint2 library for the computation of 2-el integrals
 For citations please refer to: http://libint.valeyev.net

 Your ORCA version has been built with support for libXC version: 5.1.0
 For citations please refer to: https://tddft.org/programs/libxc/

 This ORCA versions uses:
   CBLAS   interface :  Fast vector & matrix operations
   LAPACKE interface :  Fast linear algebra routines
   SCALAPACK package :  Parallel linear algebra routines
   Shared memory     :  Shared parallel matrices
   BLAS/LAPACK       :  OpenBLAS 0.3.15  USE64BITINT DYNAMIC_ARCH NO_AFFINITY Zen SINGLE_THREADED
        Core in use  :  Zen
   Copyright (c) 2011-2014, The OpenBLAS Project


================================================================================

----- Orbital basis set information -----
Your calculation utilizes the basis: STO-3G
   H-Ne       : W. J. Hehre, R. F. Stewart and J. A. Pople, J. Chem. Phys. 2657 (1969).
   Na-Ar      : W. J. Hehre, R. Ditchfield, R. F. Stewart and J. A. Pople, J. Chem. Phys. 2769 (1970).
   K,Ca,Ga-Kr : W. J. Pietro, B. A. Levy, W. J. Hehre and R. F. Stewart, J. Am. Chem. Soc. 19, 2225 (1980).
   Sc-Zn,Y-Cd : W. J. Pietro and W. J. Hehre, J. Comp. Chem. 4, 241 (1983).

----- AuxJ basis set information -----
Your calculation utilizes the auxiliary basis: def2/J
   F. Weigend, Phys. Chem. Chem. Phys. 8, 1057 (2006).

================================================================================
                                        WARNINGS
                       Please study these warnings very carefully!
================================================================================

WARNING: Old DensityContainer found on disk!
         Will remove this file - 
         If you want to keep old densities, please start your calculation with a different basename. 


INFO   : the flag for use of the SHARK integral package has been found!

================================================================================
                                       INPUT FILE
================================================================================
NAME = ./dvb_sp_un.inp
|  1> ! uks b3lyp sto-3g usesym NBO
|  2> 
|  3> %output
|  4>  printlevel normal
|  5>  print[ p_basis ] 2
|  6>  print[ p_mos ] 1
|  7>  print[ p_overlap ] 1
|  8>  print[ p_hirshfeld ] 1
|  9>  end 
| 10> 
| 11> * xyz 1 2
| 12>  C       -1.4152533224   0.2302217854   0.0000000000
| 13>  C        1.4152533224  -0.2302217854   0.0000000000
| 14>  C       -0.4951331558   1.3144608674   0.0000000000
| 15>  C        0.4951331558  -1.3144608674   0.0000000000
| 16>  C        0.8894090436   1.0909493743   0.0000000000
| 17>  C       -0.8894090436  -1.0909493743   0.0000000000
| 18>  H       -0.8795511985   2.3437343748   0.0000000000
| 19>  H        0.8795511985  -2.3437343748   0.0000000000
| 20>  H        1.5779041557   1.9450061275   0.0000000000
| 21>  H       -1.5779041557  -1.9450061275   0.0000000000
| 22>  C        2.8845844962  -0.5210893778   0.0000000000
| 23>  C       -2.8845844962   0.5210893778   0.0000000000
| 24>  H        3.1403356810  -1.5919605685   0.0000000000
| 25>  H       -3.1403356810   1.5919605685   0.0000000000
| 26>  C        3.8800428103   0.3822535424   0.0000000000
| 27>  C       -3.8800428103  -0.3822535424   0.0000000000
| 28>  H        3.6946765858   1.4624389570   0.0000000000
| 29>  H       -3.6946765858  -1.4624389570   0.0000000000
| 30>  H        4.9316453546   0.0711049543   0.0000000000
| 31>  H       -4.9316453546  -0.0711049543   0.0000000000
| 32> *
| 33> %pal
| 34>  nprocs 4
| 35> end
| 36> 
| 37>                          ****END OF INPUT****
================================================================================

------------------------------------------------------------------------------
                            SYMMETRY HANDLING SETUP
------------------------------------------------------------------------------

------------------
SYMMETRY DETECTION
------------------
The point group will now be determined using a tolerance of 1.0000e-04.
Splitting atom subsets according to nuclear charge, mass and basis set.
Splitting atom subsets according to distance from the molecule's center.
Identifying relative distance patterns of the atoms.
Splitting atom subsets according to atoms' relative distance patterns.
Bring atoms of each subset into input order.
Results of testing for linearity or planarity:

Atom             Transformed Cartesians (x, y, z; au)             Radial dev. (au)     Planar dev. (au)
  0       0.000000000000   -0.511938052722   -2.660794794321       0.511938052722       0.000000000000
  1       0.000000000000    0.511938052722    2.660794794321       0.511938052722       0.000000000000
  2       0.000000000000   -2.509900362521   -0.863703274814       2.509900362521       0.000000000000
  3       0.000000000000    2.509900362521    0.863703274814       2.509900362521       0.000000000000
  4       0.000000000000   -2.012309923945    1.739445390516       2.012309923945       0.000000000000
  5       0.000000000000    2.012309923945   -1.739445390516       2.012309923945       0.000000000000
  6       0.000000000000   -4.475069895381   -1.533801041215       4.475069895381       0.000000000000
  7       0.000000000000    4.475069895381    1.533801041215       4.475069895381       0.000000000000
  8       0.000000000000   -3.588083602122    3.086476979552       3.588083602122       0.000000000000
  9       0.000000000000    3.588083602122   -3.086476979552       3.588083602122       0.000000000000
 10       0.000000000000    1.141377102253    5.420437233942       1.141377102253       0.000000000000
 11       0.000000000000   -1.141377102253   -5.420437233942       1.141377102253       0.000000000000
 12       0.000000000000    3.178116129463    5.845225782252       3.178116129463       0.000000000000
 13       0.000000000000   -3.178116129463   -5.845225782252       3.178116129463       0.000000000000
 14       0.000000000000   -0.510780674345    7.349988049556       0.510780674345       0.000000000000
 15       0.000000000000    0.510780674345   -7.349988049556       0.510780674345       0.000000000000
 16       0.000000000000   -2.561281163356    7.058659744946       2.561281163356       0.000000000000
 17       0.000000000000    2.561281163356   -7.058659744946       2.561281163356       0.000000000000
 18       0.000000000000    0.134222066090    9.319461225590       0.134222066090       0.000000000000
 19       0.000000000000   -0.134222066090   -9.319461225590       0.134222066090       0.000000000000
Largest deviations:                                                4.475069895381       0.000000000000
Threshold:                                                         0.000100000000       0.000100000000

The molecule is planar.

Results of testing the inversion operation:

Atom indices             Transformed Cartesians (x, y, z; au)                  Symmetry-perfected Cartesians (x, y, z; au)          Deviations (au)
  0 -->   1       0.000000000000   -0.511938052722   -2.660794794321       0.000000000000   -0.511938052722   -2.660794794321       0.000000000000
  1 -->   0       0.000000000000    0.511938052722    2.660794794321       0.000000000000    0.511938052722    2.660794794321       0.000000000000
  2 -->   3       0.000000000000   -2.509900362521   -0.863703274814       0.000000000000   -2.509900362521   -0.863703274814       0.000000000000
  3 -->   2       0.000000000000    2.509900362521    0.863703274814       0.000000000000    2.509900362521    0.863703274814       0.000000000000
  4 -->   5       0.000000000000   -2.012309923945    1.739445390516       0.000000000000   -2.012309923945    1.739445390516       0.000000000000
  5 -->   4       0.000000000000    2.012309923945   -1.739445390516       0.000000000000    2.012309923945   -1.739445390516       0.000000000000
  6 -->   7       0.000000000000   -4.475069895381   -1.533801041215       0.000000000000   -4.475069895381   -1.533801041215       0.000000000000
  7 -->   6       0.000000000000    4.475069895381    1.533801041215       0.000000000000    4.475069895381    1.533801041215       0.000000000000
  8 -->   9       0.000000000000   -3.588083602122    3.086476979552       0.000000000000   -3.588083602122    3.086476979552       0.000000000000
  9 -->   8       0.000000000000    3.588083602122   -3.086476979552       0.000000000000    3.588083602122   -3.086476979552       0.000000000000
 10 -->  11       0.000000000000    1.141377102253    5.420437233942       0.000000000000    1.141377102253    5.420437233942       0.000000000000
 11 -->  10       0.000000000000   -1.141377102253   -5.420437233942       0.000000000000   -1.141377102253   -5.420437233942       0.000000000000
 12 -->  13       0.000000000000    3.178116129463    5.845225782252       0.000000000000    3.178116129463    5.845225782252       0.000000000000
 13 -->  12       0.000000000000   -3.178116129463   -5.845225782252       0.000000000000   -3.178116129463   -5.845225782252       0.000000000000
 14 -->  15       0.000000000000   -0.510780674345    7.349988049556       0.000000000000   -0.510780674345    7.349988049556       0.000000000000
 15 -->  14       0.000000000000    0.510780674345   -7.349988049556       0.000000000000    0.510780674345   -7.349988049556       0.000000000000
 16 -->  17       0.000000000000   -2.561281163356    7.058659744946       0.000000000000   -2.561281163356    7.058659744946       0.000000000000
 17 -->  16       0.000000000000    2.561281163356   -7.058659744946       0.000000000000    2.561281163356   -7.058659744946       0.000000000000
 18 -->  19       0.000000000000    0.134222066090    9.319461225590       0.000000000000    0.134222066090    9.319461225590       0.000000000000
 19 -->  18       0.000000000000   -0.134222066090   -9.319461225590       0.000000000000   -0.134222066090   -9.319461225590       0.000000000000
Largest deviation:                                                                                                                  0.000000000000
Threshold:                                                                                                                          0.000100000000

The molecule has a center of inversion.
Analyzing the first atom subset for its symmetry.
The selected subset contains 2 atoms.
The subset is a centered atom pair.

List of group operations for C2h:

           /   1.00000000000000e+00   0.00000000000000e+00   0.00000000000000e+00 \
op[  0] = |    0.00000000000000e+00   1.00000000000000e+00   0.00000000000000e+00  | = \hat{E}
           \   0.00000000000000e+00   0.00000000000000e+00   1.00000000000000e+00 /

           /  -1.00000000000000e+00  -0.00000000000000e+00   0.00000000000000e+00 \
op[  1] = |    0.00000000000000e+00  -1.00000000000000e+00   0.00000000000000e+00  | = \hat{C}_{2}
           \   0.00000000000000e+00   0.00000000000000e+00   1.00000000000000e+00 /

           /   1.00000000000000e+00   0.00000000000000e+00   0.00000000000000e+00 \
op[  2] = |    0.00000000000000e+00   1.00000000000000e+00   0.00000000000000e+00  | = \hat{m}
           \   0.00000000000000e+00   0.00000000000000e+00  -1.00000000000000e+00 /

           /  -1.00000000000000e+00   0.00000000000000e+00   0.00000000000000e+00 \
op[  3] = |    0.00000000000000e+00  -1.00000000000000e+00   0.00000000000000e+00  | = \hat{i}
           \   0.00000000000000e+00   0.00000000000000e+00  -1.00000000000000e+00 /

Testing point group C2h.

Transformation matrix (with columns representing input coordinates):

 /   1.00000000000000e+00   0.00000000000000e+00   0.00000000000000e+00 \
|    0.00000000000000e+00   1.00000000000000e+00   0.00000000000000e+00  |
 \   0.00000000000000e+00   0.00000000000000e+00   1.00000000000000e+00 /

Atom transfer table:

SymOp    0    1    2    3
Atom     0    1    0    1
Atom     1    0    1    0
Atom     2    3    2    3
Atom     3    2    3    2
Atom     4    5    4    5
Atom     5    4    5    4
Atom     6    7    6    7
Atom     7    6    7    6
Atom     8    9    8    9
Atom     9    8    9    8
Atom    10   11   10   11
Atom    11   10   11   10
Atom    12   13   12   13
Atom    13   12   13   12
Atom    14   15   14   15
Atom    15   14   15   14
Atom    16   17   16   17
Atom    17   16   17   16
Atom    18   19   18   19
Atom    19   18   19   18

Success!
This point group has been found:    C2h
Largest non-degenerate subgroup:    C2h

Effect of cleaning the coordinates of non-dummy atoms:

Atom             Transformed Cartesians (x, y, z; au)                  Symmetry-perfected Cartesians (x, y, z; au)          Deviations (au)
  0      -2.674441189458    0.435056124468    0.000000000000      -2.674441189458    0.435056124468    0.000000000000       0.000000000000
  1       2.674441189458   -0.435056124468    0.000000000000       2.674441189458   -0.435056124468    0.000000000000       0.000000000000
  2      -0.935666064286    2.483971053143    0.000000000000      -0.935666064286    2.483971053143    0.000000000000       0.000000000000
  3       0.935666064286   -2.483971053143    0.000000000000       0.935666064286   -2.483971053143    0.000000000000       0.000000000000
  4       1.680739513437    2.061595543400    0.000000000000       1.680739513437    2.061595543400    0.000000000000       0.000000000000
  5      -1.680739513437   -2.061595543400    0.000000000000      -1.680739513437   -2.061595543400    0.000000000000       0.000000000000
  6      -1.662110885927    4.429016099029    0.000000000000      -1.662110885927    4.429016099029    0.000000000000       0.000000000000
  7       1.662110885927   -4.429016099029    0.000000000000       1.662110885927   -4.429016099029    0.000000000000       0.000000000000
  8       2.981806719849    3.675528909774    0.000000000000       2.981806719849    3.675528909774    0.000000000000       0.000000000000
  9      -2.981806719849   -3.675528909774    0.000000000000      -2.981806719849   -3.675528909774    0.000000000000       0.000000000000
 10       5.451074707973   -0.984716215337    0.000000000000       5.451074707973   -0.984716215337    0.000000000000       0.000000000000
 11      -5.451074707973    0.984716215337    0.000000000000      -5.451074707973    0.984716215337    0.000000000000       0.000000000000
 12       5.934374405671   -3.008369490467    0.000000000000       5.934374405671   -3.008369490467    0.000000000000       0.000000000000
 13      -5.934374405671    3.008369490467    0.000000000000      -5.934374405671    3.008369490467    0.000000000000       0.000000000000
 14       7.332218299357    0.722354508857    0.000000000000       7.332218299357    0.722354508857    0.000000000000       0.000000000000
 15      -7.332218299357   -0.722354508857    0.000000000000      -7.332218299357   -0.722354508857    0.000000000000       0.000000000000
 16       6.981926900573    2.763609116307    0.000000000000       6.981926900573    2.763609116307    0.000000000000       0.000000000000
 17      -6.981926900573   -2.763609116307    0.000000000000      -6.981926900573   -2.763609116307    0.000000000000       0.000000000000
 18       9.319459109819    0.134368890392    0.000000000000       9.319459109819    0.134368890392    0.000000000000       0.000000000000
 19      -9.319459109819   -0.134368890392    0.000000000000      -9.319459109819   -0.134368890392    0.000000000000       0.000000000000
Largest deviation:                                                                                                          0.000000000000
Threshold:                                                                                                                  0.000100000000


Symmetry-perfected Cartesians (point group C2h):

Atom          Symmetry-perfected Cartesians (x, y, z; au)
  0      -2.674441189458    0.435056124468    0.000000000000
  1       2.674441189458   -0.435056124468    0.000000000000
  2      -0.935666064286    2.483971053143    0.000000000000
  3       0.935666064286   -2.483971053143    0.000000000000
  4       1.680739513437    2.061595543400    0.000000000000
  5      -1.680739513437   -2.061595543400    0.000000000000
  6      -1.662110885927    4.429016099029    0.000000000000
  7       1.662110885927   -4.429016099029    0.000000000000
  8       2.981806719849    3.675528909774    0.000000000000
  9      -2.981806719849   -3.675528909774    0.000000000000
 10       5.451074707973   -0.984716215337    0.000000000000
 11      -5.451074707973    0.984716215337    0.000000000000
 12       5.934374405671   -3.008369490467    0.000000000000
 13      -5.934374405671    3.008369490467    0.000000000000
 14       7.332218299357    0.722354508857    0.000000000000
 15      -7.332218299357   -0.722354508857    0.000000000000
 16       6.981926900573    2.763609116307    0.000000000000
 17      -6.981926900573   -2.763609116307    0.000000000000
 18       9.319459109819    0.134368890392    0.000000000000
 19      -9.319459109819   -0.134368890392    0.000000000000

New point group recognition code took 0.002 seconds.

----------------------
ASYMMETRIC UNIT IN C2h
----------------------
Warning (ORCA_SYM): Asymmetric unit not constructed so far!

-----------------------------------------------
SYMMETRY-PERFECTED CARTESIAN COORDINATES (A.U.)
-----------------------------------------------
Warning (ORCA_SYM): Coordinates were not cleaned so far!

------------------
SYMMETRY REDUCTION
------------------
ORCA supports only abelian point groups.
It is now checked, if the determined point group is supported:
Point Group ( C2h   ) is          ... supported

(Re)building abelian point group:
Creating Character Table          ... done
Making direct product table       ... done
Constructing symmetry operations  ... done
Creating atom transfer table      ... done
Creating asymmetric unit          ... done

----------------------------
CHARACTER TABLE OF GROUP C2h
----------------------------
GAMMA  O1   O2   O3   O4  
 Ag :  1.0  1.0  1.0  1.0 
 Bg :  1.0 -1.0  1.0 -1.0 
 Au :  1.0  1.0 -1.0 -1.0 
 Bu :  1.0 -1.0 -1.0  1.0 

---------------------------------
DIRECT PRODUCT TABLE OF GROUP C2h
---------------------------------
   **   Ag  Bg  Au  Bu  

 Ag     Ag  Bg  Au  Bu  
 Bg     Bg  Ag  Bu  Au  
 Au     Au  Bu  Ag  Bg  
 Bu     Bu  Au  Bg  Ag  

-------------------
ATOM TRANSFER TABLE
-------------------
       O01 O02 O03 O04 
   0 :   0   1   1   0 
   1 :   1   0   0   1 
   2 :   2   3   3   2 
   3 :   3   2   2   3 
   4 :   4   5   5   4 
   5 :   5   4   4   5 
   6 :   6   7   7   6 
   7 :   7   6   6   7 
   8 :   8   9   9   8 
   9 :   9   8   8   9 
  10 :  10  11  11  10 
  11 :  11  10  10  11 
  12 :  12  13  13  12 
  13 :  13  12  12  13 
  14 :  14  15  15  14 
  15 :  15  14  14  15 
  16 :  16  17  17  16 
  17 :  17  16  16  17 
  18 :  18  19  19  18 
  19 :  19  18  18  19 

----------------------
ASYMMETRIC UNIT IN C2h
----------------------
  #  AT     MASS              COORDS (A.U.)             BAS
   0 C   12.0110  -2.67444119   0.43505612   0.00000000   0
   2 C   12.0110  -0.93566606   2.48397105   0.00000000   0
   4 C   12.0110   1.68073951   2.06159554   0.00000000   0
   6 H    1.0080  -1.66211089   4.42901610   0.00000000   0
   8 H    1.0080   2.98180672   3.67552891   0.00000000   0
  10 C   12.0110   5.45107471  -0.98471622   0.00000000   0
  12 H    1.0080   5.93437441  -3.00836949   0.00000000   0
  14 C   12.0110   7.33221830   0.72235451   0.00000000   0
  16 H    1.0080   6.98192690   2.76360912   0.00000000   0
  18 H    1.0080   9.31945911   0.13436889   0.00000000   0

----------------------
SYMMETRY ADAPTED BASIS
----------------------
The coefficients for the symmetry adapted linear combinations (SALCS)
of basis functions will now be computed:
Number of basis functions         ...    60
Preparing memory                  ... done
Constructing Gamma(red)           ... done

Gamma(red) = {   60,    0,    0,   40}

Reducing Gamma(red)               ... done

Gamma(red) = 25 Ag + 5 Bg + 5 Au + 25 Bu 

Constructing SALCs                ... done
Checking SALC integrity           ... nothing suspicious
Normalizing SALCs                 ... done

Storing the symmetry object:
Symmetry file                     ... ./dvb_sp_un.sym.tmp
Writing symmetry information      ... done

                       ****************************
                       * Single Point Calculation *
                       ****************************

---------------------------------
CARTESIAN COORDINATES (ANGSTROEM)
---------------------------------
  C     -1.415253    0.230222    0.000000
  C      1.415253   -0.230222    0.000000
  C     -0.495133    1.314461    0.000000
  C      0.495133   -1.314461    0.000000
  C      0.889409    1.090949    0.000000
  C     -0.889409   -1.090949    0.000000
  H     -0.879551    2.343734    0.000000
  H      0.879551   -2.343734    0.000000
  H      1.577904    1.945006    0.000000
  H     -1.577904   -1.945006    0.000000
  C      2.884584   -0.521089    0.000000
  C     -2.884584    0.521089    0.000000
  H      3.140336   -1.591961    0.000000
  H     -3.140336    1.591961    0.000000
  C      3.880043    0.382254    0.000000
  C     -3.880043   -0.382254    0.000000
  H      3.694677    1.462439    0.000000
  H     -3.694677   -1.462439    0.000000
  H      4.931645    0.071105    0.000000
  H     -4.931645   -0.071105    0.000000

----------------------------
CARTESIAN COORDINATES (A.U.)
----------------------------
  NO LB      ZA    FRAG     MASS         X           Y           Z
   0 C     6.0000    0    12.011   -2.674441    0.435056    0.000000
   1 C     6.0000    0    12.011    2.674441   -0.435056    0.000000
   2 C     6.0000    0    12.011   -0.935666    2.483971    0.000000
   3 C     6.0000    0    12.011    0.935666   -2.483971    0.000000
   4 C     6.0000    0    12.011    1.680740    2.061596    0.000000
   5 C     6.0000    0    12.011   -1.680740   -2.061596    0.000000
   6 H     1.0000    0     1.008   -1.662111    4.429016    0.000000
   7 H     1.0000    0     1.008    1.662111   -4.429016    0.000000
   8 H     1.0000    0     1.008    2.981807    3.675529    0.000000
   9 H     1.0000    0     1.008   -2.981807   -3.675529    0.000000
  10 C     6.0000    0    12.011    5.451075   -0.984716    0.000000
  11 C     6.0000    0    12.011   -5.451075    0.984716    0.000000
  12 H     1.0000    0     1.008    5.934374   -3.008369    0.000000
  13 H     1.0000    0     1.008   -5.934374    3.008369    0.000000
  14 C     6.0000    0    12.011    7.332218    0.722355    0.000000
  15 C     6.0000    0    12.011   -7.332218   -0.722355    0.000000
  16 H     1.0000    0     1.008    6.981927    2.763609    0.000000
  17 H     1.0000    0     1.008   -6.981927   -2.763609    0.000000
  18 H     1.0000    0     1.008    9.319459    0.134369    0.000000
  19 H     1.0000    0     1.008   -9.319459   -0.134369    0.000000

--------------------------------
INTERNAL COORDINATES (ANGSTROEM)
--------------------------------
 C      0   0   0     0.000000000000     0.00000000     0.00000000
 C      1   0   0     2.867712703209     0.00000000     0.00000000
 C      1   2   0     1.422039207589    58.92046780     0.00000000
 C      2   1   3     1.422039207589    58.92046780   180.00000085
 C      3   1   2     1.402467286416   121.14866524     0.00000000
 C      4   2   1     1.402467286416   121.14866524     0.00000000
 H      3   1   2     1.098717973180   119.20109491   180.00000000
 H      4   2   1     1.098717973180   119.20109491   180.00000000
 H      5   3   1     1.097013426113   119.70357006   180.00000000
 H      6   4   2     1.097013426113   119.70357006   180.00000000
 C      2   1   3     1.497844469432   178.04202002   180.00000000
 C      1   2   3     1.497844469432   178.04202002     0.00000000
 H     11   2   5     1.100987636442   114.62953459   180.00000000
 H     12   1   6     1.100987636442   114.62953459   180.00000000
 C     11   2   5     1.344234237991   126.57992264     0.00000000
 C     12   1   6     1.344234237991   126.57992264     0.00000000
 H     15  11   2     1.095974984705   122.48517186     0.00000000
 H     16  12   1     1.095974984705   122.48517186     0.00000000
 H     15  11   2     1.096668297643   121.29492471   180.00000085
 H     16  12   1     1.096668297643   121.29492471   180.00000085

---------------------------
INTERNAL COORDINATES (A.U.)
---------------------------
 C      0   0   0     0.000000000000     0.00000000     0.00000000
 C      1   0   0     5.419191639833     0.00000000     0.00000000
 C      1   2   0     2.687264654042    58.92046780     0.00000000
 C      2   1   3     2.687264654042    58.92046780   180.00000085
 C      3   1   2     2.650279083110   121.14866524     0.00000000
 C      4   2   1     2.650279083110   121.14866524     0.00000000
 H      3   1   2     2.076276067727   119.20109491   180.00000000
 H      4   2   1     2.076276067727   119.20109491   180.00000000
 H      5   3   1     2.073054940588   119.70357006   180.00000000
 H      6   4   2     2.073054940588   119.70357006   180.00000000
 C      2   1   3     2.830515838436   178.04202002   180.00000000
 C      1   2   3     2.830515838436   178.04202002     0.00000000
 H     11   2   5     2.080565109708   114.62953459   180.00000000
 H     12   1   6     2.080565109708   114.62953459   180.00000000
 C     11   2   5     2.540234569643   126.57992264     0.00000000
 C     12   1   6     2.540234569643   126.57992264     0.00000000
 H     15  11   2     2.071092570722   122.48517186     0.00000000
 H     16  12   1     2.071092570722   122.48517186     0.00000000
 H     15  11   2     2.072402742299   121.29492471   180.00000085
 H     16  12   1     2.072402742299   121.29492471   180.00000085

---------------------
BASIS SET INFORMATION
---------------------
There are 2 groups of distinct atoms

 Group   1 Type C   : 6s3p contracted to 2s1p pattern {33/3}
 Group   2 Type H   : 3s contracted to 1s pattern {3}

Atom   0C    basis set group =>   1
Atom   1C    basis set group =>   1
Atom   2C    basis set group =>   1
Atom   3C    basis set group =>   1
Atom   4C    basis set group =>   1
Atom   5C    basis set group =>   1
Atom   6H    basis set group =>   2
Atom   7H    basis set group =>   2
Atom   8H    basis set group =>   2
Atom   9H    basis set group =>   2
Atom  10C    basis set group =>   1
Atom  11C    basis set group =>   1
Atom  12H    basis set group =>   2
Atom  13H    basis set group =>   2
Atom  14C    basis set group =>   1
Atom  15C    basis set group =>   1
Atom  16H    basis set group =>   2
Atom  17H    basis set group =>   2
Atom  18H    basis set group =>   2
Atom  19H    basis set group =>   2

-------------------------
BASIS SET IN INPUT FORMAT
-------------------------

 # Basis set for element : H 
 NewGTO H 
 S 3 
   1       3.4252509100      0.1543289707
   2       0.6239137300      0.5353281424
   3       0.1688554000      0.4446345420
  end;

 # Basis set for element : C 
 NewGTO C 
 S 3 
   1      71.6168370000      0.1543289700
   2      13.0450960000      0.5353281400
   3       3.5305122000      0.4446345400
 S 3 
   1       2.9412494000     -0.0999672301
   2       0.6834831000      0.3995128303
   3       0.2222899000      0.7001154705
 P 3 
   1       2.9412494000      0.1559162721
   2       0.6834831000      0.6076837282
   3       0.2222899000      0.3919573953
  end;

---------------------------------
AUXILIARY/J BASIS SET INFORMATION
---------------------------------
There are 2 groups of distinct atoms

 Group   1 Type C   : 12s5p4d2f1g contracted to 6s4p3d1f1g pattern {711111/2111/211/2/1}
 Group   2 Type H   : 5s2p1d contracted to 3s1p1d pattern {311/2/1}

Atom   0C    basis set group =>   1
Atom   1C    basis set group =>   1
Atom   2C    basis set group =>   1
Atom   3C    basis set group =>   1
Atom   4C    basis set group =>   1
Atom   5C    basis set group =>   1
Atom   6H    basis set group =>   2
Atom   7H    basis set group =>   2
Atom   8H    basis set group =>   2
Atom   9H    basis set group =>   2
Atom  10C    basis set group =>   1
Atom  11C    basis set group =>   1
Atom  12H    basis set group =>   2
Atom  13H    basis set group =>   2
Atom  14C    basis set group =>   1
Atom  15C    basis set group =>   1
Atom  16H    basis set group =>   2
Atom  17H    basis set group =>   2
Atom  18H    basis set group =>   2
Atom  19H    basis set group =>   2

-------------------------------------
AUXILIARY/J BASIS SET IN INPUT FORMAT
-------------------------------------

 # Auxiliary/J basis set for element : H 
 NewAuxJGTO H 
 S 3 
   1      15.6752927000      0.1007184237
   2       3.6063578000      0.3404257499
   3       1.2080016000      0.6491996172
 S 1 
   1       0.4726794000      1.0000000000
 S 1 
   1       0.2018100000      1.0000000000
 P 2 
   1       2.0281365000      0.5596620919
   2       0.5358730000      0.5596620919
 D 1 
   1       2.2165124000      1.0000000000
  end;

 # Auxiliary/J basis set for element : C 
 NewAuxJGTO C 
 S 7 
   1    1861.0916331000      0.0134602335
   2     642.9939764000      0.0299160374
   3     235.1105725000      0.1008649584
   4      90.7028894000      0.2370970548
   5      36.7794552000      0.3924037254
   6      15.6046273000      0.3195862154
   7       6.8907294000      0.0530104441
 S 1 
   1       3.1478850000     -1.0000000000
 S 1 
   1       1.4777287000      1.0000000000
 S 1 
   1       0.7076466000      1.0000000000
 S 1 
   1       0.3430122000      1.0000000000
 S 1 
   1       0.1669453000      1.0000000000
 P 2 
   1      13.5472892000     -0.6769313712
   2       5.4669419000     -0.3779500978
 P 1 
   1       2.1751721000      1.0000000000
 P 1 
   1       0.8582194000      1.0000000000
 P 1 
   1       0.3376720000      1.0000000000
 D 2 
   1       5.9287253000     -0.3533329857
   2       1.9809209000     -0.7456525731
 D 1 
   1       0.8055417000     -1.0000000000
 D 1 
   1       0.3531244000     -1.0000000000
 F 2 
   1       1.6755626000      0.6311076882
   2       0.5997536000      0.4968166032
 G 1 
   1       1.0024600000     -1.0000000000
  end;


Checking for AutoStart:
The File: ./dvb_sp_un.gbw exists
Trying to determine its content:
     ... Fine, the file contains calculation information
     ... Fine, the calculation information was read
     ... Fine, the file contains a basis set
     ... Fine, the basis set was read
     ... Fine, the file contains a geometry
     ... Fine, the geometry was read
     ... Fine, the file contains a set of orbitals
     ... Fine, the orbitals can be read
     => possible old guess file was deleted
     => GBW file was renamed to GES file
     => GES file is set as startup file
     => Guess is set to MORead
     ... now leaving AutoStart



           ************************************************************
           *        Program running with 4 parallel MPI-processes     *
           *              working on a common directory               *
           ************************************************************
------------------------------------------------------------------------------
                           ORCA GTO INTEGRAL CALCULATION
                           -- RI-GTO INTEGRALS CHOSEN --
------------------------------------------------------------------------------
------------------------------------------------------------------------------
                   ___                                                        
                  /   \      - P O W E R E D   B Y -                         
                 /     \                                                     
                 |  |  |   _    _      __       _____    __    __             
                 |  |  |  | |  | |    /  \     |  _  \  |  |  /  |          
                  \  \/   | |  | |   /    \    | | | |  |  | /  /          
                 / \  \   | |__| |  /  /\  \   | |_| |  |  |/  /          
                |  |  |   |  __  | /  /__\  \  |    /   |      \           
                |  |  |   | |  | | |   __   |  |    \   |  |\   \          
                \     /   | |  | | |  |  |  |  | |\  \  |  | \   \       
                 \___/    |_|  |_| |__|  |__|  |_| \__\ |__|  \__/        
                                                                              
                      - O R C A' S   B I G   F R I E N D -                    
                                      &                                       
                       - I N T E G R A L  F E E D E R -                       
                                                                              
 v1 FN, 2020, v2 2021                                                         
------------------------------------------------------------------------------


Reading SHARK input file ./dvb_sp_un.SHARKINP.tmp ... SHARK General Contraction Test:  Segmented basis detected
   -> Pre-screening matrix *NOT* found on disk - recalculating with NShells=40
   -> Leaving CheckPreScreeningMatrix
ok
----------------------
SHARK INTEGRAL PACKAGE
----------------------

Number of atoms                             ...     20
Number of basis functions                   ...     60
Number of shells                            ...     40
Maximum angular momentum                    ...      1
Integral batch strategy                     ... SHARK/LIBINT Hybrid
RI-J (if used) integral strategy            ... SPLIT-RIJ (Revised 2003 algorithm where possible)
Printlevel                                  ...      2
Contraction scheme used                     ... SEGMENTED contraction
Coulomb Range Separation                    ... NOT USED
Exchange Range Separation                   ... NOT USED
Finite Nucleus Model                        ... NOT USED
Auxiliary Coulomb fitting basis             ... AVAILABLE
   # of basis functions in Aux-J            ...    600
   # of shells in Aux-J                     ...    200
   Maximum angular momentum in Aux-J        ...      4
Auxiliary J/K fitting basis                 ... NOT available
Auxiliary Correlation fitting basis         ... NOT available
Auxiliary 'external' fitting basis          ... NOT available
Integral threshold                          ...     1.000000e-10
Primitive cut-off                           ...     1.000000e-11
Primitive pair pre-selection threshold      ...     1.000000e-11

Calculating pre-screening integrals         ... done (  0.0 sec) Dimension = 40
Organizing shell pair data                  ... done (  0.0 sec)
Shell pair information
Total number of shell pairs                 ...       820
Shell pairs after pre-screening             ...       750
Total number of primitive shell pairs       ...      7380
Primitive shell pairs kept                  ...      4803
          la=0 lb=0:    405 shell pairs
          la=1 lb=0:    290 shell pairs
          la=1 lb=1:     55 shell pairs

Calculating one electron integrals          ... done (  0.0 sec)
Calculating RI/J V-Matrix + Cholesky decomp.... done (  0.0 sec)
Calculating Nuclear repulsion               ... done (  0.0 sec) ENN=    445.936977869861 Eh

SHARK setup successfully completed in   0.0 seconds

Maximum memory used throughout the entire GTOINT-calculation: 7.6 MB


           ************************************************************
           *        Program running with 4 parallel MPI-processes     *
           *              working on a common directory               *
           ************************************************************
-------------------------------------------------------------------------------
                                 ORCA SCF
-------------------------------------------------------------------------------

------------
SCF SETTINGS
------------
Hamiltonian:
 Density Functional     Method          .... DFT(GTOs)
 Exchange Functional    Exchange        .... B88
   X-Alpha parameter    XAlpha          ....  0.666667
   Becke's b parameter  XBeta           ....  0.004200
 Correlation Functional Correlation     .... LYP
 LDA part of GGA corr.  LDAOpt          .... VWN-5
 Gradients option       PostSCFGGA      .... off
 Hybrid DFT is turned on
   Fraction HF Exchange ScalHFX         ....  0.200000
   Scaling of DF-GGA-X  ScalDFX         ....  0.720000
   Scaling of DF-GGA-C  ScalDFC         ....  0.810000
   Scaling of DF-LDA-C  ScalLDAC        ....  1.000000
   Perturbative correction              ....  0.000000
   Density functional embedding theory  .... OFF
   NL short-range parameter             ....  4.800000
 RI-approximation to the Coulomb term is turned on
   Number of AuxJ basis functions       .... 600
   RIJ-COSX (HFX calculated with COS-X)).... on


General Settings:
 Integral files         IntName         .... ./dvb_sp_un
 Hartree-Fock type      HFTyp           .... UHF
 Total Charge           Charge          ....    1
 Multiplicity           Mult            ....    2
 Number of Electrons    NEL             ....   69
 Basis Dimension        Dim             ....   60
 Nuclear Repulsion      ENuc            ....    445.9369778699 Eh

 Symmetry handling      UseSym         .... ON
 Point group                           .... C2h
 Used point group                      .... C2h
 Number of irreps                      .... 4
   Irrep   Ag has   25 symmetry adapted basis functions (ofs=   0)
   Irrep   Bg has    5 symmetry adapted basis functions (ofs=  25)
   Irrep   Au has    5 symmetry adapted basis functions (ofs=  30)
   Irrep   Bu has   25 symmetry adapted basis functions (ofs=  35)

Convergence Acceleration:
 DIIS                   CNVDIIS         .... on
   Start iteration      DIISMaxIt       ....    12
   Startup error        DIISStart       ....  0.200000
   # of expansion vecs  DIISMaxEq       ....     5
   Bias factor          DIISBfac        ....   1.050
   Max. coefficient     DIISMaxC        ....  10.000
 Trust-Rad. Augm. Hess. CNVTRAH         .... auto
   Auto Start mean grad. ratio tolernc. ....  1.125000
   Auto Start start iteration           ....     1
   Auto Start num. interpolation iter.  ....    10
   Max. Number of Micro iterations      ....    16
   Max. Number of Macro iterations      .... Maxiter - #DIIS iter
   Number of Davidson start vectors     ....     2
   Converg. threshold I  (grad. norm)   ....   5.000e-05
   Converg. threshold II (energy diff.) ....   1.000e-06
   Grad. Scal. Fac. for Micro threshold ....   0.100
   Minimum threshold for Micro iter.    ....   0.010
   NR start threshold (gradient norm)   ....   0.001
   Initial trust radius                 ....   0.400
   Minimum AH scaling param. (alpha)    ....   1.000
   Maximum AH scaling param. (alpha)    .... 1000.000
   Orbital update algorithm             .... Taylor
   White noise on init. David. guess    .... on
   Maximum white noise                  ....   0.010
   Quad. conv. algorithm                .... NR
 SOSCF                  CNVSOSCF        .... off
 Level Shifting         CNVShift        .... on
   Level shift para.    LevelShift      ....    0.2500
   Turn off err/grad.   ShiftErr        ....    0.0010
 Zerner damping         CNVZerner       .... off
 Static damping         CNVDamp         .... on
   Fraction old density DampFac         ....    0.7000
   Max. Damping (<1)    DampMax         ....    0.9800
   Min. Damping (>=0)   DampMin         ....    0.0000
   Turn off err/grad.   DampErr         ....    0.1000
 Fernandez-Rico         CNVRico         .... off

SCF Procedure:
 Maximum # iterations   MaxIter         ....   125
 SCF integral mode      SCFMode         .... Direct
   Integral package                     .... SHARK and LIBINT hybrid scheme
 Reset frequency        DirectResetFreq ....    20
 Integral Threshold     Thresh          ....  1.000e-10 Eh
 Primitive CutOff       TCut            ....  1.000e-11 Eh

Convergence Tolerance:
 Convergence Check Mode ConvCheckMode   .... Total+1el-Energy
 Convergence forced     ConvForced      .... 0
 Energy Change          TolE            ....  1.000e-06 Eh
 1-El. energy change                    ....  1.000e-03 Eh
 DIIS Error             TolErr          ....  1.000e-06


Diagonalization of the overlap matrix:
Smallest eigenvalue                        ... 1.815e-01
Time for diagonalization                   ...    0.000 sec
Threshold for overlap eigenvalues          ... 1.000e-08
Number of eigenvalues below threshold      ... 0
Time for construction of square roots      ...    0.000 sec
Producing symmetrization matrix            ... done (   0.000 sec)
Total time needed                          ...    0.000 sec

SHARK General Contraction Test:  Segmented basis detected
   -> Pre-screening matrix found on disk - Trying to read with NShells=40
   -> Passing Pre-screening matrix on to SHARK ...ok
   -> Leaving CheckPreScreeningMatrix
----------------------
SHARK INTEGRAL PACKAGE
----------------------

Number of atoms                             ...     20
Number of basis functions                   ...     60
Number of shells                            ...     40
Maximum angular momentum                    ...      1
Integral batch strategy                     ... SHARK/LIBINT Hybrid
RI-J (if used) integral strategy            ... SPLIT-RIJ (Revised 2003 algorithm where possible)
Printlevel                                  ...      2
Contraction scheme used                     ... SEGMENTED contraction
Coulomb Range Separation                    ... NOT USED
Exchange Range Separation                   ... NOT USED
Finite Nucleus Model                        ... NOT USED
Auxiliary Coulomb fitting basis             ... AVAILABLE
   # of basis functions in Aux-J            ...    600
   # of shells in Aux-J                     ...    200
   Maximum angular momentum in Aux-J        ...      4
Auxiliary J/K fitting basis                 ... NOT available
Auxiliary Correlation fitting basis         ... NOT available
Auxiliary 'external' fitting basis          ... NOT available
Integral threshold                          ...     1.000000e-10
Primitive cut-off                           ...     1.000000e-11
Primitive pair pre-selection threshold      ...     1.000000e-11

--------------
OVERLAP MATRIX
--------------
                  0          1          2          3          4          5    
      0       1.000000   0.248362   0.000000  -0.000000   0.000000   0.000000
      1       0.248362   1.000000   0.000000  -0.000000  -0.000000   0.000303
      2       0.000000   0.000000   1.000000   0.000000   0.000000   0.000000
      3      -0.000000  -0.000000   0.000000   1.000000  -0.000000   0.000815
      4       0.000000  -0.000000   0.000000  -0.000000   1.000000  -0.000133
      5       0.000000   0.000303   0.000000   0.000815  -0.000133   1.000000
      6       0.000303   0.021870   0.000000   0.035271  -0.005738   0.248362
      7       0.000000   0.000000   0.008318   0.000000   0.000000   0.000000
      8      -0.000815  -0.035271   0.000000  -0.052776   0.009938   0.000000
      9       0.000133   0.005738   0.000000   0.009938   0.006701  -0.000000
     10       0.000001   0.035571   0.000000   0.038184   0.044995   0.000000
     11       0.035571   0.353710   0.000000   0.245796   0.289638   0.001586
     12       0.000000   0.000000   0.204650   0.000000   0.000000   0.000000
     13      -0.038184  -0.245796   0.000000  -0.017878  -0.262219   0.002887
     14      -0.044995  -0.289638   0.000000  -0.262219  -0.104341  -0.002334
     15       0.000000   0.001586   0.000000   0.002887  -0.002334   0.000001
     16       0.001586   0.056188   0.000000   0.064927  -0.052498   0.035571
     17       0.000000   0.000000   0.023307   0.000000   0.000000   0.000000
     18      -0.002887  -0.064927   0.000000  -0.059282   0.066780   0.038184
     19       0.002334   0.052498   0.000000   0.066780  -0.030689   0.044995
     20       0.000000   0.001566   0.000000   0.003439   0.001284   0.000001
     21       0.001566   0.055779   0.000000   0.077714   0.029024   0.035577
     22       0.000000   0.000000   0.023119   0.000000   0.000000   0.000000
     23      -0.003439  -0.077714   0.000000  -0.096044  -0.044504   0.021827
     24      -0.001284  -0.029024   0.000000  -0.044504   0.006498  -0.054839
     25       0.000001   0.035577   0.000000   0.021827  -0.054839   0.000000
     26       0.035577   0.353743   0.000000   0.140487  -0.352970   0.001566
     27       0.000000   0.000000   0.204675   0.000000   0.000000   0.000000
     28      -0.021827  -0.140487   0.000000   0.131985   0.182632   0.003439
     29       0.054839   0.352970   0.000000   0.182632  -0.254182   0.001284
     30       0.005093   0.093008   0.000000   0.029652   0.116986   0.000080
     31       0.000080   0.005902   0.000000   0.006551  -0.007348   0.005093
     32       0.000079   0.005884   0.000000   0.008518   0.004880   0.005080
     33       0.005080   0.092845   0.000000  -0.008985  -0.120165   0.000079
     34       0.000000   0.000000   0.000000   0.000000  -0.000000   0.000000
     35       0.000000   0.000260   0.000000   0.000567  -0.000099   0.029550
     36       0.000000   0.000000   0.000083   0.000000   0.000000   0.000000
     37      -0.000000  -0.000567   0.000000  -0.001169   0.000219  -0.048351
     38       0.000000   0.000099   0.000000   0.000219   0.000045   0.009572
     39       0.000000   0.029550   0.000000  -0.048351   0.009572   0.000000
     40       0.029550   0.317606   0.000000  -0.345288   0.068353   0.000000
     41       0.000000   0.000000   0.177906   0.000000   0.000000   0.000000
     42       0.048351   0.345288   0.000000  -0.301124   0.094828   0.000000
     43      -0.009572  -0.068353   0.000000   0.094828   0.159134  -0.000000
     44       0.000000   0.000082   0.000000   0.000163  -0.000065   0.004869
     45       0.004869   0.090067   0.000000  -0.092109   0.072708   0.000000
     46       0.000000   0.000000   0.000000   0.000000   0.000000   0.000000
     47       0.000000   0.000007   0.000000   0.000019   0.000001   0.001159
     48       0.000000   0.000000   0.000002   0.000000   0.000000   0.000000
     49      -0.000000  -0.000019   0.000000  -0.000048  -0.000001  -0.002719
     50      -0.000000  -0.000001   0.000000  -0.000001   0.000002  -0.000676
     51       0.000000   0.001159   0.000000  -0.002719  -0.000676   0.000000
     52       0.001159   0.046884   0.000000  -0.068991  -0.017144   0.000000
     53       0.000000   0.000000   0.019082   0.000000   0.000000   0.000000
     54       0.002719   0.068991   0.000000  -0.092040  -0.027613   0.000000
     55       0.000676   0.017144   0.000000  -0.027613   0.012221   0.000000
     56       0.000000   0.000024   0.000000   0.000053   0.000013   0.000741
     57       0.000741   0.024680   0.000000  -0.029617  -0.021993   0.000000
     58       0.000000   0.000000   0.000000   0.000001  -0.000000   0.000058
     59       0.000058   0.004808   0.000000  -0.008103  -0.000694   0.000000
                  6          7          8          9         10         11    
      0       0.000303   0.000000  -0.000815   0.000133   0.000001   0.035571
      1       0.021870   0.000000  -0.035271   0.005738   0.035571   0.353710
      2       0.000000   0.008318   0.000000   0.000000   0.000000   0.000000
      3       0.035271   0.000000  -0.052776   0.009938   0.038184   0.245796
      4      -0.005738   0.000000   0.009938   0.006701   0.044995   0.289638
      5       0.248362   0.000000   0.000000  -0.000000   0.000000   0.001586
      6       1.000000   0.000000   0.000000   0.000000   0.001586   0.056188
      7       0.000000   1.000000   0.000000   0.000000   0.000000   0.000000
      8       0.000000   0.000000   1.000000  -0.000000  -0.002887  -0.064927
      9       0.000000   0.000000  -0.000000   1.000000   0.002334   0.052498
     10       0.001586   0.000000  -0.002887   0.002334   1.000000   0.248362
     11       0.056188   0.000000  -0.064927   0.052498   0.248362   1.000000
     12       0.000000   0.023307   0.000000   0.000000   0.000000   0.000000
     13       0.064927   0.000000  -0.059282   0.066780   0.000000   0.000000
     14      -0.052498   0.000000   0.066780  -0.030689  -0.000000   0.000000
     15       0.035571   0.000000  -0.038184  -0.044995   0.000000   0.000389
     16       0.353710   0.000000  -0.245796  -0.289638   0.000389   0.025192
     17       0.000000   0.204650   0.000000   0.000000   0.000000   0.000000
     18       0.245796   0.000000  -0.017878  -0.262219  -0.000366  -0.014325
     19       0.289638   0.000000  -0.262219  -0.104341   0.000973   0.038030
     20       0.035577   0.000000  -0.021827   0.054839   0.000001   0.037289
     21       0.353743   0.000000  -0.140487   0.352970   0.037289   0.363411
     22       0.000000   0.204675   0.000000   0.000000   0.000000   0.000000
     23       0.140487   0.000000   0.131985   0.182632  -0.061038  -0.382052
     24      -0.352970   0.000000   0.182632  -0.254182   0.009854   0.061676
     25       0.001566   0.000000  -0.003439  -0.001284   0.000000   0.001704
     26       0.055779   0.000000  -0.077714  -0.029024   0.001704   0.058556
     27       0.000000   0.023119   0.000000   0.000000   0.000000   0.000000
     28       0.077714   0.000000  -0.096044  -0.044504   0.000640   0.014008
     29       0.029024   0.000000  -0.044504   0.006498   0.003904   0.085461
     30       0.005902   0.000000  -0.006551   0.007348   0.061021   0.485749
     31       0.093008   0.000000  -0.029652  -0.116986   0.000011   0.001755
     32       0.092845   0.000000   0.008985   0.120165   0.005272   0.095346
     33       0.005884   0.000000  -0.008518  -0.004880   0.000084   0.006109
     34       0.029550   0.000000   0.048351  -0.009572   0.000000   0.000002
     35       0.317606   0.000000   0.345288  -0.068353   0.000002   0.001445
     36       0.000000   0.177906   0.000000   0.000000   0.000000   0.000000
     37      -0.345288   0.000000  -0.301124   0.094828  -0.000007  -0.002536
     38       0.068353   0.000000   0.094828   0.159134   0.000004   0.001377
     39       0.000000   0.000000  -0.000000   0.000000   0.000000   0.001261
     40       0.000260   0.000000  -0.000567   0.000099   0.001261   0.049214
     41       0.000000   0.000083   0.000000   0.000000   0.000000   0.000000
     42       0.000567   0.000000  -0.001169   0.000219   0.002868   0.070447
     43      -0.000099   0.000000   0.000219   0.000045   0.000952   0.023391
     44       0.090067   0.000000   0.092109  -0.072708   0.000000   0.000188
     45       0.000082   0.000000  -0.000163   0.000065   0.001315   0.036238
     46       0.001159   0.000000   0.002719   0.000676   0.000000   0.000000
     47       0.046884   0.000000   0.068991   0.017144   0.000000   0.000177
     48       0.000000   0.019082   0.000000   0.000000   0.000000   0.000000
     49      -0.068991   0.000000  -0.092040  -0.027613  -0.000000  -0.000392
     50      -0.017144   0.000000  -0.027613   0.012221   0.000000   0.000083
     51       0.000000   0.000000  -0.000000  -0.000000   0.000000   0.000003
     52       0.000007   0.000000  -0.000019  -0.000001   0.000003   0.001738
     53       0.000000   0.000002   0.000000   0.000000   0.000000   0.000000
     54       0.000019   0.000000  -0.000048  -0.000001   0.000010   0.003066
     55       0.000001   0.000000  -0.000001   0.000002   0.000005   0.001537
     56       0.024680   0.000000   0.029617   0.021993   0.000003   0.000779
     57       0.000024   0.000000  -0.000053  -0.000013   0.000002   0.000684
     58       0.004808   0.000000   0.008103   0.000694   0.000000   0.000008
     59       0.000000   0.000000  -0.000001   0.000000   0.000000   0.000192
                 12         13         14         15         16         17    
      0       0.000000  -0.038184  -0.044995   0.000000   0.001586   0.000000
      1       0.000000  -0.245796  -0.289638   0.001586   0.056188   0.000000
      2       0.204650   0.000000   0.000000   0.000000   0.000000   0.023307
      3       0.000000  -0.017878  -0.262219   0.002887   0.064927   0.000000
      4       0.000000  -0.262219  -0.104341  -0.002334  -0.052498   0.000000
      5       0.000000   0.002887  -0.002334   0.000001   0.035571   0.000000
      6       0.000000   0.064927  -0.052498   0.035571   0.353710   0.000000
      7       0.023307   0.000000   0.000000   0.000000   0.000000   0.204650
      8       0.000000  -0.059282   0.066780  -0.038184  -0.245796   0.000000
      9       0.000000   0.066780  -0.030689  -0.044995  -0.289638   0.000000
     10       0.000000   0.000000  -0.000000   0.000000   0.000389   0.000000
     11       0.000000   0.000000   0.000000   0.000389   0.025192   0.000000
     12       1.000000   0.000000   0.000000   0.000000   0.000000   0.009690
     13       0.000000   1.000000   0.000000   0.000366   0.014325   0.000000
     14       0.000000   0.000000   1.000000  -0.000973  -0.038030   0.000000
     15       0.000000   0.000366  -0.000973   1.000000   0.248362   0.000000
     16       0.000000   0.014325  -0.038030   0.248362   1.000000   0.000000
     17       0.009690   0.000000   0.000000   0.000000   0.000000   1.000000
     18       0.000000   0.000914   0.023298  -0.000000  -0.000000   0.000000
     19       0.000000   0.023298  -0.052160   0.000000   0.000000   0.000000
     20       0.000000   0.061038  -0.009854   0.000000   0.001704   0.000000
     21       0.000000   0.382052  -0.061676   0.001704   0.058556   0.000000
     22       0.212075   0.000000   0.000000   0.000000   0.000000   0.024399
     23       0.000000  -0.314118   0.084945  -0.000640  -0.014008   0.000000
     24       0.000000   0.084945   0.198362  -0.003904  -0.085461   0.000000
     25       0.000000  -0.000640  -0.003904   0.000001   0.037289   0.000000
     26       0.000000  -0.014008  -0.085461   0.037289   0.363411   0.000000
     27       0.024399   0.000000   0.000000   0.000000   0.000000   0.212075
     28       0.000000   0.020705  -0.022537   0.061038   0.382052   0.000000
     29       0.000000  -0.022537  -0.113098  -0.009854  -0.061676   0.000000
     30       0.000000  -0.162436   0.434921   0.000011   0.001755   0.000000
     31       0.000000   0.001114  -0.002965   0.061021   0.485749   0.000000
     32       0.000000   0.117989   0.035888   0.000084   0.006109   0.000000
     33       0.000000  -0.003205  -0.009648   0.005272   0.095346   0.000000
     34       0.000000   0.000007  -0.000004   0.000000   0.001261   0.000000
     35       0.000000   0.002536  -0.001377   0.001261   0.049214   0.000000
     36       0.000480   0.000000   0.000000   0.000000   0.000000   0.020131
     37       0.000000  -0.004091   0.002483  -0.002868  -0.070447   0.000000
     38       0.000000   0.002483  -0.000868  -0.000952  -0.023391   0.000000
     39       0.000000  -0.002868  -0.000952   0.000000   0.000002   0.000000
     40       0.000000  -0.070447  -0.023391   0.000002   0.001445   0.000000
     41       0.020131   0.000000   0.000000   0.000000   0.000000   0.000480
     42       0.000000  -0.090407  -0.036702   0.000007   0.002536   0.000000
     43       0.000000  -0.036702   0.007944  -0.000004  -0.001377   0.000000
     44       0.000000   0.000302  -0.000241   0.001315   0.036238   0.000000
     45       0.000000  -0.051982   0.005453   0.000000   0.000188   0.000000
     46       0.000000   0.000000  -0.000000   0.000000   0.000003   0.000000
     47       0.000000   0.000392  -0.000083   0.000003   0.001738   0.000000
     48       0.000057   0.000000   0.000000   0.000000   0.000000   0.000581
     49       0.000000  -0.000820   0.000187  -0.000010  -0.003066   0.000000
     50       0.000000   0.000187   0.000017  -0.000005  -0.001537   0.000000
     51       0.000000  -0.000010  -0.000005   0.000000   0.000000   0.000000
     52       0.000000  -0.003066  -0.001537   0.000000   0.000177   0.000000
     53       0.000581   0.000000   0.000000   0.000000   0.000000   0.000057
     54       0.000000  -0.004988  -0.002792   0.000000   0.000392   0.000000
     55       0.000000  -0.002792  -0.000819  -0.000000  -0.000083   0.000000
     56       0.000000   0.001477   0.000052   0.000002   0.000684   0.000000
     57       0.000000  -0.000988  -0.000857   0.000003   0.000779   0.000000
     58       0.000000   0.000018  -0.000004   0.000000   0.000192   0.000000
     59       0.000000  -0.000376  -0.000117   0.000000   0.000008   0.000000
                 18         19         20         21         22         23    
      0      -0.002887   0.002334   0.000000   0.001566   0.000000  -0.003439
      1      -0.064927   0.052498   0.001566   0.055779   0.000000  -0.077714
      2       0.000000   0.000000   0.000000   0.000000   0.023119   0.000000
      3      -0.059282   0.066780   0.003439   0.077714   0.000000  -0.096044
      4       0.066780  -0.030689   0.001284   0.029024   0.000000  -0.044504
      5       0.038184   0.044995   0.000001   0.035577   0.000000   0.021827
      6       0.245796   0.289638   0.035577   0.353743   0.000000   0.140487
      7       0.000000   0.000000   0.000000   0.000000   0.204675   0.000000
      8      -0.017878  -0.262219  -0.021827  -0.140487   0.000000   0.131985
      9      -0.262219  -0.104341   0.054839   0.352970   0.000000   0.182632
     10      -0.000366   0.000973   0.000001   0.037289   0.000000  -0.061038
     11      -0.014325   0.038030   0.037289   0.363411   0.000000  -0.382052
     12       0.000000   0.000000   0.000000   0.000000   0.212075   0.000000
     13       0.000914   0.023298   0.061038   0.382052   0.000000  -0.314118
     14       0.023298  -0.052160  -0.009854  -0.061676   0.000000   0.084945
     15      -0.000000   0.000000   0.000000   0.001704   0.000000  -0.000640
     16      -0.000000   0.000000   0.001704   0.058556   0.000000  -0.014008
     17       0.000000   0.000000   0.000000   0.000000   0.024399   0.000000
     18       1.000000   0.000000   0.000640   0.014008   0.000000   0.020705
     19       0.000000   1.000000   0.003904   0.085461   0.000000  -0.022537
     20       0.000640   0.003904   1.000000   0.248362   0.000000   0.000000
     21       0.014008   0.085461   0.248362   1.000000   0.000000  -0.000000
     22       0.000000   0.000000   0.000000   0.000000   1.000000   0.000000
     23       0.020705  -0.022537   0.000000  -0.000000   0.000000   1.000000
     24      -0.022537  -0.113098  -0.000000  -0.000000   0.000000   0.000000
     25      -0.061038   0.009854   0.000000   0.000380   0.000000  -0.000642
     26      -0.382052   0.061676   0.000380   0.024839   0.000000  -0.025352
     27       0.000000   0.000000   0.000000   0.000000   0.009544   0.000000
     28      -0.314118   0.084945   0.000642   0.025352   0.000000  -0.018324
     29       0.084945   0.198362   0.000788   0.031097   0.000000  -0.034183
     30      -0.001114   0.002965   0.005261   0.095200   0.000000  -0.100509
     31       0.162436  -0.434921   0.000084   0.006108   0.000000  -0.000029
     32       0.003205   0.009648   0.061264   0.486726   0.000000   0.291748
     33      -0.117989  -0.035888   0.000011   0.001735   0.000000  -0.001976
     34       0.002868   0.000952   0.000000   0.001051   0.000000   0.001996
     35       0.070447   0.023391   0.001051   0.044325   0.000000   0.052594
     36       0.000000   0.000000   0.000000   0.000000   0.017940   0.000000
     37      -0.090407  -0.036702  -0.001996  -0.052594   0.000000  -0.050256
     38      -0.036702   0.007944   0.001612   0.042495   0.000000   0.055100
     39      -0.000007   0.000004   0.000000   0.000003   0.000000  -0.000009
     40      -0.002536   0.001377   0.000003   0.001582   0.000000  -0.003106
     41       0.000000   0.000000   0.000000   0.000000   0.000527   0.000000
     42      -0.004091   0.002483   0.000009   0.003106   0.000000  -0.005744
     43       0.002483  -0.000868   0.000001   0.000469   0.000000  -0.000947
     44       0.051982  -0.005453   0.000064   0.005153   0.000000   0.005576
     45      -0.000302   0.000241   0.000006   0.001141   0.000000  -0.002099
     46       0.000010   0.000005   0.000000   0.000120   0.000000   0.000341
     47       0.003066   0.001537   0.000120   0.013048   0.000000   0.021677
     48       0.000000   0.000000   0.000000   0.000000   0.004783   0.000000
     49      -0.004988  -0.002792  -0.000341  -0.021677   0.000000  -0.033488
     50      -0.002792  -0.000819   0.000081   0.005137   0.000000   0.009069
     51      -0.000000   0.000000   0.000000   0.000000   0.000000  -0.000000
     52      -0.000392   0.000083   0.000000   0.000025   0.000000  -0.000060
     53       0.000000   0.000000   0.000000   0.000000   0.000008   0.000000
     54      -0.000820   0.000187   0.000000   0.000060   0.000000  -0.000136
     55       0.000187   0.000017   0.000000   0.000018   0.000000  -0.000044
     56       0.000988   0.000857   0.000764   0.025192   0.000000   0.037263
     57      -0.001477  -0.000052   0.000000   0.000025   0.000000  -0.000049
     58       0.000376   0.000117   0.000003   0.000835   0.000000   0.001529
     59      -0.000018   0.000004   0.000000   0.000002   0.000000  -0.000004
                 24         25         26         27         28         29    
      0      -0.001284   0.000001   0.035577   0.000000  -0.021827   0.054839
      1      -0.029024   0.035577   0.353743   0.000000  -0.140487   0.352970
      2       0.000000   0.000000   0.000000   0.204675   0.000000   0.000000
      3      -0.044504   0.021827   0.140487   0.000000   0.131985   0.182632
      4       0.006498  -0.054839  -0.352970   0.000000   0.182632  -0.254182
      5      -0.054839   0.000000   0.001566   0.000000   0.003439   0.001284
      6      -0.352970   0.001566   0.055779   0.000000   0.077714   0.029024
      7       0.000000   0.000000   0.000000   0.023119   0.000000   0.000000
      8       0.182632  -0.003439  -0.077714   0.000000  -0.096044  -0.044504
      9      -0.254182  -0.001284  -0.029024   0.000000  -0.044504   0.006498
     10       0.009854   0.000000   0.001704   0.000000   0.000640   0.003904
     11       0.061676   0.001704   0.058556   0.000000   0.014008   0.085461
     12       0.000000   0.000000   0.000000   0.024399   0.000000   0.000000
     13       0.084945  -0.000640  -0.014008   0.000000   0.020705  -0.022537
     14       0.198362  -0.003904  -0.085461   0.000000  -0.022537  -0.113098
     15      -0.003904   0.000001   0.037289   0.000000   0.061038  -0.009854
     16      -0.085461   0.037289   0.363411   0.000000   0.382052  -0.061676
     17       0.000000   0.000000   0.000000   0.212075   0.000000   0.000000
     18      -0.022537  -0.061038  -0.382052   0.000000  -0.314118   0.084945
     19      -0.113098   0.009854   0.061676   0.000000   0.084945   0.198362
     20      -0.000000   0.000000   0.000380   0.000000   0.000642   0.000788
     21      -0.000000   0.000380   0.024839   0.000000   0.025352   0.031097
     22       0.000000   0.000000   0.000000   0.009544   0.000000   0.000000
     23       0.000000  -0.000642  -0.025352   0.000000  -0.018324  -0.034183
     24       1.000000  -0.000788  -0.031097   0.000000  -0.034183  -0.032385
     25      -0.000788   1.000000   0.248362   0.000000  -0.000000   0.000000
     26      -0.031097   0.248362   1.000000   0.000000   0.000000   0.000000
     27       0.000000   0.000000   0.000000   1.000000   0.000000   0.000000
     28      -0.034183  -0.000000   0.000000   0.000000   1.000000   0.000000
     29      -0.032385   0.000000   0.000000   0.000000   0.000000   1.000000
     30       0.071181   0.000084   0.006108   0.000000   0.000029   0.010164
     31      -0.010164   0.005261   0.095200   0.000000   0.100509  -0.071181
     32       0.361904   0.000011   0.001735   0.000000   0.001976   0.002432
     33      -0.002432   0.061264   0.486726   0.000000  -0.291748  -0.361904
     34      -0.001612   0.000000   0.000003   0.000000   0.000009   0.000001
     35      -0.042495   0.000003   0.001582   0.000000   0.003106   0.000469
     36       0.000000   0.000000   0.000000   0.000527   0.000000   0.000000
     37       0.055100  -0.000009  -0.003106   0.000000  -0.005744  -0.000947
     38      -0.026579  -0.000001  -0.000469   0.000000  -0.000947   0.000384
     39      -0.000001   0.000000   0.001051   0.000000  -0.001996   0.001612
     40      -0.000469   0.001051   0.044325   0.000000  -0.052594   0.042495
     41       0.000000   0.000000   0.000000   0.017940   0.000000   0.000000
     42      -0.000947   0.001996   0.052594   0.000000  -0.050256   0.055100
     43       0.000384  -0.001612  -0.042495   0.000000   0.055100  -0.026579
     44      -0.006646   0.000006   0.001141   0.000000   0.002099  -0.000261
     45       0.000261   0.000064   0.005153   0.000000  -0.005576   0.006646
     46      -0.000081   0.000000   0.000000   0.000000   0.000000   0.000000
     47      -0.005137   0.000000   0.000025   0.000000   0.000060   0.000018
     48       0.000000   0.000000   0.000000   0.000008   0.000000   0.000000
     49       0.009069  -0.000000  -0.000060   0.000000  -0.000136  -0.000044
     50       0.002634  -0.000000  -0.000018   0.000000  -0.000044  -0.000006
     51      -0.000000   0.000000   0.000120   0.000000  -0.000341   0.000081
     52      -0.000018   0.000120   0.013048   0.000000  -0.021677   0.005137
     53       0.000000   0.000000   0.000000   0.004783   0.000000   0.000000
     54      -0.000044   0.000341   0.021677   0.000000  -0.033488   0.009069
     55      -0.000006  -0.000081  -0.005137   0.000000   0.009069   0.002634
     56       0.004935   0.000000   0.000025   0.000000   0.000049   0.000028
     57      -0.000028   0.000764   0.025192   0.000000  -0.037263  -0.004935
     58      -0.000386   0.000000   0.000002   0.000000   0.000004   0.000001
     59      -0.000001   0.000003   0.000835   0.000000  -0.001529   0.000386
                 30         31         32         33         34         35    
      0       0.005093   0.000080   0.000079   0.005080   0.000000   0.000000
      1       0.093008   0.005902   0.005884   0.092845   0.000000   0.000260
      2       0.000000   0.000000   0.000000   0.000000   0.000000   0.000000
      3       0.029652   0.006551   0.008518  -0.008985   0.000000   0.000567
      4       0.116986  -0.007348   0.004880  -0.120165  -0.000000  -0.000099
      5       0.000080   0.005093   0.005080   0.000079   0.000000   0.029550
      6       0.005902   0.093008   0.092845   0.005884   0.029550   0.317606
      7       0.000000   0.000000   0.000000   0.000000   0.000000   0.000000
      8      -0.006551  -0.029652   0.008985  -0.008518   0.048351   0.345288
      9       0.007348  -0.116986   0.120165  -0.004880  -0.009572  -0.068353
     10       0.061021   0.000011   0.005272   0.000084   0.000000   0.000002
     11       0.485749   0.001755   0.095346   0.006109   0.000002   0.001445
     12       0.000000   0.000000   0.000000   0.000000   0.000000   0.000000
     13      -0.162436   0.001114   0.117989  -0.003205   0.000007   0.002536
     14       0.434921  -0.002965   0.035888  -0.009648  -0.000004  -0.001377
     15       0.000011   0.061021   0.000084   0.005272   0.000000   0.001261
     16       0.001755   0.485749   0.006109   0.095346   0.001261   0.049214
     17       0.000000   0.000000   0.000000   0.000000   0.000000   0.000000
     18      -0.001114   0.162436   0.003205  -0.117989   0.002868   0.070447
     19       0.002965  -0.434921   0.009648  -0.035888   0.000952   0.023391
     20       0.005261   0.000084   0.061264   0.000011   0.000000   0.001051
     21       0.095200   0.006108   0.486726   0.001735   0.001051   0.044325
     22       0.000000   0.000000   0.000000   0.000000   0.000000   0.000000
     23      -0.100509  -0.000029   0.291748  -0.001976   0.001996   0.052594
     24       0.071181  -0.010164   0.361904  -0.002432  -0.001612  -0.042495
     25       0.000084   0.005261   0.000011   0.061264   0.000000   0.000003
     26       0.006108   0.095200   0.001735   0.486726   0.000003   0.001582
     27       0.000000   0.000000   0.000000   0.000000   0.000000   0.000000
     28       0.000029   0.100509   0.001976  -0.291748   0.000009   0.003106
     29       0.010164  -0.071181   0.002432  -0.361904   0.000001   0.000469
     30       1.000000   0.000106   0.050494   0.000712   0.000000   0.000147
     31       0.000106   1.000000   0.000712   0.050494   0.001125   0.032620
     32       0.050494   0.000712   1.000000   0.000105   0.000868   0.027412
     33       0.000712   0.050494   0.000105   1.000000   0.000000   0.000170
     34       0.000000   0.001125   0.000868   0.000000   1.000000   0.248362
     35       0.000147   0.032620   0.027412   0.000170   0.248362   1.000000
     36       0.000000   0.000000   0.000000   0.000000   0.000000   0.000000
     37      -0.000243  -0.035170  -0.019005  -0.000336   0.000000   0.000000
     38       0.000185  -0.031970   0.035868  -0.000107  -0.000000   0.000000
     39       0.001125   0.000000   0.000000   0.000868   0.000000   0.000000
     40       0.032620   0.000147   0.000170   0.027412   0.000000   0.000001
     41       0.000000   0.000000   0.000000   0.000000   0.000000   0.000000
     42       0.035170   0.000243   0.000336   0.019005   0.000000   0.000002
     43       0.031970  -0.000185   0.000107  -0.035868   0.000000  -0.000000
     44       0.000014   0.061526   0.002479   0.000240   0.060698   0.484450
     45       0.061526   0.000014   0.000240   0.002479   0.000000   0.000000
     46       0.000000   0.000006   0.000892   0.000000   0.000002   0.042836
     47       0.000035   0.001164   0.027916   0.000002   0.042836   0.393154
     48       0.000000   0.000000   0.000000   0.000000   0.000000   0.000000
     49      -0.000073  -0.001595  -0.034145  -0.000004  -0.052605  -0.302011
     50       0.000030  -0.001449   0.023179  -0.000002  -0.047737  -0.274064
     51       0.000006   0.000000   0.000000   0.000892   0.000000   0.000000
     52       0.001164   0.000035   0.000002   0.027916   0.000000   0.000000
     53       0.000000   0.000000   0.000000   0.000000   0.000000   0.000000
     54       0.001595   0.000073   0.000004   0.034145   0.000000   0.000000
     55       0.001449  -0.000030   0.000002  -0.023179   0.000000  -0.000000
     56       0.000297   0.000238   0.089436   0.000001   0.005606   0.099656
     57       0.000238   0.000297   0.000001   0.089436   0.000000   0.000000
     58       0.000002   0.000251   0.002637   0.000000   0.005772   0.101772
     59       0.000251   0.000002   0.000000   0.002637   0.000000   0.000000
                 36         37         38         39         40         41    
      0       0.000000  -0.000000   0.000000   0.000000   0.029550   0.000000
      1       0.000000  -0.000567   0.000099   0.029550   0.317606   0.000000
      2       0.000083   0.000000   0.000000   0.000000   0.000000   0.177906
      3       0.000000  -0.001169   0.000219  -0.048351  -0.345288   0.000000
      4       0.000000   0.000219   0.000045   0.009572   0.068353   0.000000
      5       0.000000  -0.048351   0.009572   0.000000   0.000000   0.000000
      6       0.000000  -0.345288   0.068353   0.000000   0.000260   0.000000
      7       0.177906   0.000000   0.000000   0.000000   0.000000   0.000083
      8       0.000000  -0.301124   0.094828  -0.000000  -0.000567   0.000000
      9       0.000000   0.094828   0.159134   0.000000   0.000099   0.000000
     10       0.000000  -0.000007   0.000004   0.000000   0.001261   0.000000
     11       0.000000  -0.002536   0.001377   0.001261   0.049214   0.000000
     12       0.000480   0.000000   0.000000   0.000000   0.000000   0.020131
     13       0.000000  -0.004091   0.002483  -0.002868  -0.070447   0.000000
     14       0.000000   0.002483  -0.000868  -0.000952  -0.023391   0.000000
     15       0.000000  -0.002868  -0.000952   0.000000   0.000002   0.000000
     16       0.000000  -0.070447  -0.023391   0.000002   0.001445   0.000000
[...]
   16. BD ( 1) C  2- C 11      44. BD*( 1) C  4- C  6      0.87    1.09   0.039
   16. BD ( 1) C  2- C 11      46. BD*( 1) C  4- H  8      0.40    0.99   0.025
   16. BD ( 1) C  2- C 11      47. BD*( 1) C  5- H  9      0.38    0.99   0.024
   16. BD ( 1) C  2- C 11      49. BD*( 1) C 11- H 13      0.60    0.99   0.031
   16. BD ( 1) C  2- C 11      50. BD*( 1) C 11- C 15      0.39    1.16   0.027
   16. BD ( 1) C  2- C 11      53. BD*( 1) C 15- H 17      0.53    0.99   0.029
   16. BD ( 1) C  2- C 11      54. BD*( 1) C 15- H 19      1.02    0.99   0.040
   17. BD ( 1) C  3- C  5      35. BD*( 1) C  1- C  3      0.30    1.10   0.023
   17. BD ( 1) C  3- C  5      36. BD*( 1) C  1- C  6      0.41    1.10   0.027
   17. BD ( 1) C  3- C  5      37. BD*( 1) C  1- C 12      0.76    1.01   0.035
   17. BD ( 1) C  3- C  5      38. BD*( 1) C  2- C  4      0.42    1.10   0.027
   17. BD ( 1) C  3- C  5      39. BD*( 1) C  2- C  5      0.26    1.10   0.021
   17. BD ( 1) C  3- C  5      40. BD*( 1) C  2- C 11      0.84    1.01   0.037
   17. BD ( 1) C  3- C  5      43. BD*( 1) C  3- H  7      0.32    1.02   0.023
   17. BD ( 1) C  3- C  5      47. BD*( 1) C  5- H  9      0.30    1.03   0.022
   18. BD ( 2) C  3- C  5      57. 3Cn( 1)C1-C12-C16      21.55    0.18   0.079
   18. BD ( 2) C  3- C  5      58. 3Cn( 1)C2-C11-C15      20.96    0.18   0.078
   18. BD ( 2) C  3- C  5      59. 3C*( 1)C1-C12-C16       0.50    0.34   0.016
   18. BD ( 2) C  3- C  5      60. 3C*( 1)C2-C11-C15       0.67    0.34   0.019
   19. BD ( 1) C  3- H  7      35. BD*( 1) C  1- C  3      0.46    1.00   0.027
   19. BD ( 1) C  3- H  7      36. BD*( 1) C  1- C  6      0.94    1.00   0.039
   19. BD ( 1) C  3- H  7      37. BD*( 1) C  1- C 12      0.53    0.91   0.028
   19. BD ( 1) C  3- H  7      39. BD*( 1) C  2- C  5      1.15    1.00   0.043
   19. BD ( 1) C  3- H  7      41. BD*( 1) C  3- C  5      0.31    1.03   0.023
   19. BD ( 1) C  3- H  7      47. BD*( 1) C  5- H  9      0.46    0.93   0.026
   20. BD ( 1) C  4- C  6      35. BD*( 1) C  1- C  3      0.42    1.10   0.027
   20. BD ( 1) C  4- C  6      36. BD*( 1) C  1- C  6      0.26    1.10   0.021
   20. BD ( 1) C  4- C  6      37. BD*( 1) C  1- C 12      0.84    1.01   0.037
   20. BD ( 1) C  4- C  6      38. BD*( 1) C  2- C  4      0.30    1.10   0.023
   20. BD ( 1) C  4- C  6      39. BD*( 1) C  2- C  5      0.41    1.10   0.027
   20. BD ( 1) C  4- C  6      40. BD*( 1) C  2- C 11      0.76    1.01   0.035
   20. BD ( 1) C  4- C  6      46. BD*( 1) C  4- H  8      0.32    1.02   0.023
   20. BD ( 1) C  4- C  6      48. BD*( 1) C  6- H 10      0.30    1.03   0.022
   21. BD ( 2) C  4- C  6      57. 3Cn( 1)C1-C12-C16      20.96    0.18   0.078
   21. BD ( 2) C  4- C  6      58. 3Cn( 1)C2-C11-C15      21.55    0.18   0.079
   21. BD ( 2) C  4- C  6      59. 3C*( 1)C1-C12-C16       0.67    0.34   0.019
   21. BD ( 2) C  4- C  6      60. 3C*( 1)C2-C11-C15       0.50    0.34   0.016
   22. BD ( 1) C  4- H  8      36. BD*( 1) C  1- C  6      1.15    1.00   0.043
   22. BD ( 1) C  4- H  8      38. BD*( 1) C  2- C  4      0.46    1.00   0.027
   22. BD ( 1) C  4- H  8      39. BD*( 1) C  2- C  5      0.94    1.00   0.039
   22. BD ( 1) C  4- H  8      40. BD*( 1) C  2- C 11      0.53    0.91   0.028
   22. BD ( 1) C  4- H  8      44. BD*( 1) C  4- C  6      0.31    1.03   0.023
   22. BD ( 1) C  4- H  8      48. BD*( 1) C  6- H 10      0.46    0.93   0.026
   23. BD ( 1) C  5- H  9      35. BD*( 1) C  1- C  3      1.13    1.00   0.043
   23. BD ( 1) C  5- H  9      38. BD*( 1) C  2- C  4      0.93    1.00   0.039
   23. BD ( 1) C  5- H  9      39. BD*( 1) C  2- C  5      0.47    1.00   0.027
   23. BD ( 1) C  5- H  9      40. BD*( 1) C  2- C 11      0.57    0.92   0.029
   23. BD ( 1) C  5- H  9      41. BD*( 1) C  3- C  5      0.32    1.03   0.023
   23. BD ( 1) C  5- H  9      43. BD*( 1) C  3- H  7      0.46    0.93   0.026
   23. BD ( 1) C  5- H  9      53. BD*( 1) C 15- H 17      0.25    0.93   0.019
   24. BD ( 1) C  6- H 10      35. BD*( 1) C  1- C  3      0.93    1.00   0.039
   24. BD ( 1) C  6- H 10      36. BD*( 1) C  1- C  6      0.47    1.00   0.027
   24. BD ( 1) C  6- H 10      37. BD*( 1) C  1- C 12      0.57    0.92   0.029
   24. BD ( 1) C  6- H 10      38. BD*( 1) C  2- C  4      1.13    1.00   0.043
   24. BD ( 1) C  6- H 10      44. BD*( 1) C  4- C  6      0.32    1.03   0.023
   24. BD ( 1) C  6- H 10      46. BD*( 1) C  4- H  8      0.46    0.93   0.026
   24. BD ( 1) C  6- H 10      55. BD*( 1) C 16- H 18      0.25    0.93   0.019
   25. BD ( 1) C 11- H 13      38. BD*( 1) C  2- C  4      0.44    0.99   0.026
   25. BD ( 1) C 11- H 13      39. BD*( 1) C  2- C  5      0.88    0.99   0.037
   25. BD ( 1) C 11- H 13      40. BD*( 1) C  2- C 11      0.54    0.91   0.028
   25. BD ( 1) C 11- H 13      53. BD*( 1) C 15- H 17      1.57    0.92   0.048
   25. BD ( 1) C 11- H 13      54. BD*( 1) C 15- H 19      0.68    0.93   0.032
   26. BD ( 1) C 11- C 15      38. BD*( 1) C  2- C  4      0.43    1.12   0.028
   26. BD ( 1) C 11- C 15      39. BD*( 1) C  2- C  5      0.25    1.12   0.021
   26. BD ( 1) C 11- C 15      40. BD*( 1) C  2- C 11      0.40    1.04   0.026
   26. BD ( 1) C 11- C 15      53. BD*( 1) C 15- H 17      0.27    1.06   0.021
   26. BD ( 1) C 11- C 15      54. BD*( 1) C 15- H 19      0.26    1.06   0.021
   27. BD ( 1) C 12- H 14      35. BD*( 1) C  1- C  3      0.44    0.99   0.026
   27. BD ( 1) C 12- H 14      36. BD*( 1) C  1- C  6      0.88    0.99   0.037
   27. BD ( 1) C 12- H 14      37. BD*( 1) C  1- C 12      0.54    0.91   0.028
   27. BD ( 1) C 12- H 14      55. BD*( 1) C 16- H 18      1.57    0.92   0.048
   27. BD ( 1) C 12- H 14      56. BD*( 1) C 16- H 20      0.68    0.93   0.032
   28. BD ( 1) C 12- C 16      35. BD*( 1) C  1- C  3      0.43    1.12   0.028
   28. BD ( 1) C 12- C 16      36. BD*( 1) C  1- C  6      0.25    1.12   0.021
   28. BD ( 1) C 12- C 16      37. BD*( 1) C  1- C 12      0.40    1.04   0.026
   28. BD ( 1) C 12- C 16      55. BD*( 1) C 16- H 18      0.27    1.06   0.021
   28. BD ( 1) C 12- C 16      56. BD*( 1) C 16- H 20      0.26    1.06   0.021
   29. BD ( 1) C 15- H 17      40. BD*( 1) C  2- C 11      0.85    0.91   0.035
   29. BD ( 1) C 15- H 17      47. BD*( 1) C  5- H  9      0.31    0.92   0.021
   29. BD ( 1) C 15- H 17      49. BD*( 1) C 11- H 13      1.33    0.92   0.044
   29. BD ( 1) C 15- H 17      50. BD*( 1) C 11- C 15      0.33    1.10   0.024
   29. BD ( 1) C 15- H 17      54. BD*( 1) C 15- H 19      0.47    0.93   0.026
   30. BD ( 1) C 15- H 19      40. BD*( 1) C  2- C 11      1.68    0.91   0.049
   30. BD ( 1) C 15- H 19      49. BD*( 1) C 11- H 13      0.65    0.92   0.031
   30. BD ( 1) C 15- H 19      53. BD*( 1) C 15- H 17      0.43    0.92   0.025
   31. BD ( 1) C 16- H 18      37. BD*( 1) C  1- C 12      0.85    0.91   0.035
   31. BD ( 1) C 16- H 18      48. BD*( 1) C  6- H 10      0.31    0.92   0.021
   31. BD ( 1) C 16- H 18      51. BD*( 1) C 12- H 14      1.33    0.92   0.044
   31. BD ( 1) C 16- H 18      52. BD*( 1) C 12- C 16      0.33    1.10   0.024
   31. BD ( 1) C 16- H 18      56. BD*( 1) C 16- H 20      0.47    0.93   0.026
   32. BD ( 1) C 16- H 20      37. BD*( 1) C  1- C 12      1.68    0.91   0.049
   32. BD ( 1) C 16- H 20      51. BD*( 1) C 12- H 14      0.65    0.92   0.031
   32. BD ( 1) C 16- H 20      55. BD*( 1) C 16- H 18      0.43    0.92   0.025
   33. 3C ( 1)C1-C12-C16       42. BD*( 2) C  3- C  5      4.19    0.33   0.047
   33. 3C ( 1)C1-C12-C16       45. BD*( 2) C  4- C  6      4.33    0.33   0.048
   33. 3C ( 1)C1-C12-C16       57. 3Cn( 1)C1-C12-C16       0.48    0.22   0.013
   34. 3C ( 1)C2-C11-C15       42. BD*( 2) C  3- C  5      4.33    0.33   0.048
   34. 3C ( 1)C2-C11-C15       45. BD*( 2) C  4- C  6      4.19    0.33   0.047
   34. 3C ( 1)C2-C11-C15       58. 3Cn( 1)C2-C11-C15       0.48    0.22   0.013


 NATURAL BOND ORBITALS (Summary):

                                                     Principal Delocalizations
           NBO                 Occupancy    Energy   (geminal,vicinal,remote)
 ===============================================================================
 Molecular unit  1  (C10H10)
 ------ Lewis --------------------------------------
    1. CR ( 1) C  1             1.00000   -10.23231
    2. CR ( 1) C  2             1.00000   -10.23231
    3. CR ( 1) C  3             1.00000   -10.19868
    4. CR ( 1) C  4             1.00000   -10.19868
    5. CR ( 1) C  5             1.00000   -10.19990
    6. CR ( 1) C  6             1.00000   -10.19990
    7. CR ( 1) C 11             1.00000   -10.19977
    8. CR ( 1) C 12             1.00000   -10.19977
    9. CR ( 1) C 15             1.00000   -10.18971
   10. CR ( 1) C 16             1.00000   -10.18971
   11. BD ( 1) C  1- C  3       0.99129    -0.73711  48(v),47(v),52(v),39(v)
                                                     44(v),37(g),43(g),36(g)
                                                     41(g),51(v)
   12. BD ( 1) C  1- C  6       0.99155    -0.73917  43(v),46(v),37(g),51(v)
                                                     38(v),41(v),48(g),35(g)
                                                     44(g),52(v)
   13. BD ( 1) C  1- C 12       0.98941    -0.70118  56(v),41(v),44(v),51(g)
                                                     36(g),55(v),35(g),43(v)
                                                     52(g),48(v)
   14. BD ( 1) C  2- C  4       0.99129    -0.73711  47(v),48(v),50(v),36(v)
                                                     41(v),40(g),46(g),39(g)
                                                     44(g),49(v)
   15. BD ( 1) C  2- C  5       0.99155    -0.73917  46(v),43(v),40(g),49(v)
                                                     35(v),44(v),47(g),38(g)
                                                     41(g),50(v)
   16. BD ( 1) C  2- C 11       0.98941    -0.70118  54(v),44(v),41(v),49(g)
                                                     39(g),53(v),38(g),46(v)
                                                     50(g),47(v)
   17. BD ( 1) C  3- C  5       0.99315    -0.73858  40(v),37(v),38(v),36(v)
                                                     43(g),47(g),35(g),39(g)
   18. BD ( 2) C  3- C  5       0.85952    -0.38174  57(v),58(v),60(v),59(v)
   19. BD ( 1) C  3- H  7       0.99263    -0.64027  39(v),36(v),37(v),47(v)
                                                     35(g),41(g)
   20. BD ( 1) C  4- C  6       0.99315    -0.73858  37(v),40(v),35(v),39(v)
                                                     46(g),48(g),38(g),36(g)
   21. BD ( 2) C  4- C  6       0.85952    -0.38174  58(v),57(v),59(v),60(v)
   22. BD ( 1) C  4- H  8       0.99263    -0.64027  36(v),39(v),40(v),48(v)
                                                     38(g),44(g)
   23. BD ( 1) C  5- H  9       0.99219    -0.64370  35(v),38(v),40(v),39(g)
                                                     43(v),41(g),53(r)
   24. BD ( 1) C  6- H 10       0.99219    -0.64370  38(v),35(v),37(v),36(g)
                                                     46(v),44(g),55(r)
   25. BD ( 1) C 11- H 13       0.99182    -0.63395  53(v),39(v),54(v),40(g)
                                                     38(v)
   26. BD ( 1) C 11- C 15       0.99696    -0.76506  38(v),40(g),53(g),54(g)
                                                     39(v)
   27. BD ( 1) C 12- H 14       0.99182    -0.63395  55(v),36(v),56(v),37(g)
                                                     35(v)
   28. BD ( 1) C 12- C 16       0.99696    -0.76506  35(v),37(g),55(g),56(g)
                                                     36(v)
   29. BD ( 1) C 15- H 17       0.99396    -0.63710  49(v),40(v),54(g),50(g)
                                                     47(r)
   30. BD ( 1) C 15- H 19       0.99391    -0.63120  40(v),49(v),53(g)
   31. BD ( 1) C 16- H 18       0.99396    -0.63710  51(v),37(v),56(g),52(g)
                                                     48(r)
   32. BD ( 1) C 16- H 20       0.99391    -0.63120  37(v),51(v),55(g)
   33. 3C ( 1) C  1- C 12- C 16 0.92591    -0.41911  45(v),42(v),57(g)
   34. 3C ( 1) C  2- C 11- C 15 0.92591    -0.41911  42(v),45(v),58(g)
 ------ non-Lewis ----------------------------------
   35. BD*( 1) C  1- C  3       0.00930     0.35979
   36. BD*( 1) C  1- C  6       0.00979     0.35877
   37. BD*( 1) C  1- C 12       0.01394     0.27450
   38. BD*( 1) C  2- C  4       0.00930     0.35979
   39. BD*( 1) C  2- C  5       0.00979     0.35877
   40. BD*( 1) C  2- C 11       0.01394     0.27450
   41. BD*( 1) C  3- C  5       0.00651     0.38874
   42. BD*( 2) C  3- C  5       0.04734    -0.08977
   43. BD*( 1) C  3- H  7       0.00648     0.28563
   44. BD*( 1) C  4- C  6       0.00651     0.38874
   45. BD*( 2) C  4- C  6       0.04734    -0.08977
   46. BD*( 1) C  4- H  8       0.00648     0.28563
   47. BD*( 1) C  5- H  9       0.00711     0.28664
   48. BD*( 1) C  6- H 10       0.00711     0.28664
   49. BD*( 1) C 11- H 13       0.00700     0.28656
   50. BD*( 1) C 11- C 15       0.00316     0.46367
   51. BD*( 1) C 12- H 14       0.00700     0.28656
   52. BD*( 1) C 12- C 16       0.00316     0.46367
   53. BD*( 1) C 15- H 17       0.00580     0.29027
   54. BD*( 1) C 15- H 19       0.00404     0.29341
   55. BD*( 1) C 16- H 18       0.00580     0.29027
   56. BD*( 1) C 16- H 20       0.00404     0.29341
   57. 3Cn( 1) C  1- C 12- C 16 0.16708    -0.20142
   58. 3Cn( 1) C  2- C 11- C 15 0.16708    -0.20142
   59. 3C*( 1) C  1- C 12- C 16 0.00015    -0.04195
   60. 3C*( 1) C  2- C 11- C 15 0.00015    -0.04195
          -------------------------------
                 Total Lewis   33.42458  ( 98.3076%)
           Valence non-Lewis    0.57542  (  1.6924%)
           Rydberg non-Lewis    0.00000  (  0.0000%)
          -------------------------------
               Total unit  1   34.00000  (100.0000%)
              Charge unit  1    1.00000

 $CHOOSE
  ALPHA
   BOND D 1 3 S 1 6 S 1 12 S 2 4 D 2 5 S 2 11 S 3 5 S 3 7 D 4 6 S 4 8 S 5 9
        S 6 10 S 11 13 D 11 15 S 12 14 D 12 16 S 15 17 S 15 19 S 16 18 S 16 20
        END
  END
  BETA
   BOND S 1 3 S 1 6 S 1 12 S 2 4 S 2 5 S 2 11 D 3 5 S 3 7 D 4 6 S 4 8 S 5 9
        S 6 10 S 11 13 S 11 15 S 12 14 S 12 16 S 15 17 S 15 19 S 16 18 S 16 20
        END
     3C S 1 12 16 S 2 11 15 END
  END
 $END

 Checkpoint orbital transformation(s) sent to host program

 NBO analysis completed in 0.07 CPU seconds (0 wall seconds)
 Maximum scratch memory used by NBO was 177295 words (1.35 MB)
Stopping NBO...Storing NBOs: ./dvb_sp_un.nbo

                                *** returned from  NBO  program ***

-------
TIMINGS
-------

Total SCF time: 0 days 0 hours 0 min 1 sec 

Total time                  ....       1.589 sec
Sum of individual times     ....       1.551 sec  ( 97.6%)

Fock matrix formation       ....       0.978 sec  ( 61.6%)
  Split-RI-J                ....       0.108 sec  ( 11.1% of F)
  Chain of spheres X        ....       0.767 sec  ( 78.4% of F)
  XC integration            ....       0.101 sec  ( 10.4% of F)
    Basis function eval.    ....       0.029 sec  ( 28.3% of XC)
    Density eval.           ....       0.023 sec  ( 22.7% of XC)
    XC-Functional eval.     ....       0.014 sec  ( 13.9% of XC)
    XC-Potential eval.      ....       0.013 sec  ( 12.6% of XC)
Diagonalization             ....       0.002 sec  (  0.1%)
Density matrix formation    ....       0.001 sec  (  0.0%)
Population analysis         ....       0.135 sec  (  8.5%)
Initial guess               ....       0.001 sec  (  0.1%)
Orbital Transformation      ....       0.000 sec  (  0.0%)
Orbital Orthonormalization  ....       0.001 sec  (  0.0%)
DIIS solution               ....       0.001 sec  (  0.1%)
Grid generation             ....       0.434 sec  ( 27.3%)

Maximum memory used throughout the entire SCF-calculation: 49.5 MB

-------------------------   --------------------
FINAL SINGLE POINT ENERGY      -381.831981478004
-------------------------   --------------------


                            ***************************************
                            *     ORCA property calculations      *
                            ***************************************

                                    ---------------------
                                    Active property flags
                                    ---------------------
   (+) Dipole Moment


------------------------------------------------------------------------------
                       ORCA ELECTRIC PROPERTIES CALCULATION
------------------------------------------------------------------------------

Dipole Moment Calculation                       ... on
Quadrupole Moment Calculation                   ... off
Polarizability Calculation                      ... off
GBWName                                         ... ./dvb_sp_un.gbw
Electron density                                ... ./dvb_sp_un.scfp
SHARK General Contraction Test:  Segmented basis detected
   -> Pre-screening matrix found on disk - Trying to read with NShells=40
   -> Passing Pre-screening matrix on to SHARK ...ok
   -> Leaving CheckPreScreeningMatrix
----------------------
SHARK INTEGRAL PACKAGE
----------------------

Number of atoms                             ...     20
Number of basis functions                   ...     60
Number of shells                            ...     40
Maximum angular momentum                    ...      1
Integral batch strategy                     ... SHARK/LIBINT Hybrid
RI-J (if used) integral strategy            ... SPLIT-RIJ (Revised 2003 algorithm where possible)
Printlevel                                  ...      2
Contraction scheme used                     ... SEGMENTED contraction
Coulomb Range Separation                    ... NOT USED
Exchange Range Separation                   ... NOT USED
Finite Nucleus Model                        ... NOT USED
Auxiliary Coulomb fitting basis             ... AVAILABLE
   # of basis functions in Aux-J            ...    600
   # of shells in Aux-J                     ...    200
   Maximum angular momentum in Aux-J        ...      4
Auxiliary J/K fitting basis                 ... NOT available
Auxiliary Correlation fitting basis         ... NOT available
Auxiliary 'external' fitting basis          ... NOT available
Integral threshold                          ...     1.000000e-10
Primitive cut-off                           ...     1.000000e-11
Primitive pair pre-selection threshold      ...     1.000000e-11

The origin for moment calculation is the CENTER OF MASS  = ( 0.000000,  0.000000  0.000000)

-------------
DIPOLE MOMENT
-------------
                                X             Y             Z
Electronic contribution:     -0.00000      -0.00000       0.00000
Nuclear contribution   :      0.00000       0.00000       0.00000
                        -----------------------------------------
Total Dipole Moment    :     -0.00000      -0.00000       0.00000
                        -----------------------------------------
Magnitude (a.u.)       :      0.00000
Magnitude (Debye)      :      0.00000



--------------------
Rotational spectrum 
--------------------
 
Rotational constants in cm-1:     0.153923     0.022856     0.019901 
Rotational constants in MHz :  4614.497946   685.205544   596.614430 

 Dipole components along the rotational axes: 
x,y,z [a.u.] :     0.000000    -0.000000     0.000000 
x,y,z [Debye]:     0.000000    -0.000000     0.000000 

 

Timings for individual modules:

Sum of individual times         ...        1.856 sec (=   0.031 min)
GTO integral calculation        ...        0.155 sec (=   0.003 min)   8.4 %
SCF iterations                  ...        1.701 sec (=   0.028 min)  91.6 %
                             ****ORCA TERMINATED NORMALLY****
TOTAL RUN TIME: 0 days 0 hours 0 minutes 2 seconds 2 msec
