
                                 *****************
                                 * O   R   C   A *
                                 *****************

           --- An Ab Initio, DFT and Semiempirical electronic structure package ---

                  #######################################################
                  #                        -***-                        #
                  #          Department of theory and spectroscopy      #
                  #               Directorship: Frank Neese             #
                  #        Max Planck Institute fuer Kohlenforschung    #
                  #                Kaiser Wilhelm Platz 1               #
                  #                 D-45470 Muelheim/Ruhr               #
                  #                      Germany                        #
                  #                                                     #
                  #                  All rights reserved                #
                  #                        -***-                        #
                  #######################################################


                         Program Version 4.2.1 -  RELEASE  -


 With contributions from (in alphabetic order):
   Daniel Aravena         : Magnetic Suceptibility
   Michael Atanasov       : Ab Initio Ligand Field Theory (pilot matlab implementation)
   Alexander A. Auer      : GIAO ZORA, VPT2
   Ute Becker             : Parallelization
   Giovanni Bistoni       : ED, misc. LED, open-shell LED, HFLD
   Martin Brehm           : Molecular dynamics
   Dmytro Bykov           : SCF Hessian
   Vijay G. Chilkuri      : MRCI spin determinant printing, contributions to CSF-ICE
   Dipayan Datta          : RHF DLPNO-CCSD density
   Achintya Kumar Dutta   : EOM-CC, STEOM-CC
   Dmitry Ganyushin       : Spin-Orbit,Spin-Spin,Magnetic field MRCI
   Miquel Garcia          : C-PCM Hessian, Gaussian charge scheme
   Yang Guo               : DLPNO-NEVPT2, CIM, IAO-localization
   Andreas Hansen         : Spin unrestricted coupled pair/coupled cluster methods
   Benjamin Helmich-Paris : CASSCF linear response (MC-RPA)
   Lee Huntington         : MR-EOM, pCC
   Robert Izsak           : Overlap fitted RIJCOSX, COSX-SCS-MP3, EOM
   Christian Kollmar      : KDIIS, OOCD, Brueckner-CCSD(T), CCSD density
   Simone Kossmann        : Meta GGA functionals, TD-DFT gradient, OOMP2, MP2 Hessian
   Martin Krupicka        : AUTO-CI
   Lucas Lang             : DCDCAS
   Dagmar Lenk            : GEPOL surface, SMD
   Dimitrios Liakos       : Extrapolation schemes; Compound Job, initial MDCI parallelization
   Dimitrios Manganas     : Further ROCIS development; embedding schemes
   Dimitrios Pantazis     : SARC Basis sets
   Taras Petrenko         : DFT Hessian,TD-DFT gradient, ASA, ECA, R-Raman, ABS, FL, XAS/XES, NRVS
   Peter Pinski           : DLPNO-MP2, DLPNO-MP2 Gradient
   Christoph Reimann      : Effective Core Potentials
   Marius Retegan         : Local ZFS, SOC
   Christoph Riplinger    : Optimizer, TS searches, QM/MM, DLPNO-CCSD(T), (RO)-DLPNO pert. Triples
   Tobias Risthaus        : Range-separated hybrids, TD-DFT gradient, RPA, STAB
   Michael Roemelt        : Original ROCIS implementation
   Masaaki Saitow         : Open-shell DLPNO-CCSD energy and density
   Barbara Sandhoefer     : DKH picture change effects
   Avijit Sen             : IP-ROCIS
   Kantharuban Sivalingam : CASSCF convergence, NEVPT2, FIC-MRCI
   Bernardo de Souza      : ESD, SOC TD-DFT
   Georgi Stoychev        : AutoAux, RI-MP2 NMR
   Willem Van den Heuvel  : Paramagnetic NMR
   Boris Wezisla          : Elementary symmetry handling
   Frank Wennmohs         : Technical directorship


 We gratefully acknowledge several colleagues who have allowed us to
 interface, adapt or use parts of their codes:
   Stefan Grimme, W. Hujo, H. Kruse,             : VdW corrections, initial TS optimization,
                  C. Bannwarth                     DFT functionals, gCP, sTDA/sTD-DF
   Ed Valeev, F. Pavosevic, A. Kumar             : LibInt (2-el integral package), F12 methods
   Garnet Chan, S. Sharma, J. Yang, R. Olivares  : DMRG
   Ulf Ekstrom                                   : XCFun DFT Library
   Mihaly Kallay                                 : mrcc  (arbitrary order and MRCC methods)
   Andreas Klamt, Michael Diedenhofen            : otool_cosmo (COSMO solvation model)
   Jiri Pittner, Ondrej Demel                    : Mk-CCSD
   Frank Weinhold                                : gennbo (NPA and NBO analysis)
   Christopher J. Cramer and Donald G. Truhlar   : smd solvation model
   Lars Goerigk                                  : TD-DFT with DH, B97 family of functionals
   V. Asgeirsson, H. Jonsson                     : NEB implementation
   FAccTs GmbH                                   : IRC, NEB, NEB-TS, Multilevel, MM, QM/MM, CI optimization
   S Lehtola, MJT Oliveira, MAL Marques          : LibXC Library


 Your calculation uses the libint2 library for the computation of 2-el integrals
 For citations please refer to: http://libint.valeyev.net

 Your ORCA version has been built with support for libXC version: 4.2.3
 For citations please refer to: https://tddft.org/programs/libxc/

 This ORCA versions uses:
   CBLAS   interface :  Fast vector & matrix operations
   LAPACKE interface :  Fast linear algebra routines
   SCALAPACK package :  Parallel linear algebra routines



Information: The global flag for chemical shieldings has been found
             ==>> will calculate the chemical shieldings for all atoms in the system

----- Orbital basis set information -----
Your calculation utilizes the basis: STO-3G
   H-Ne       : W. J. Hehre, R. F. Stewart and J. A. Pople, J. Chem. Phys. 2657 (1969).
   Na-Ar      : W. J. Hehre, R. Ditchfield, R. F. Stewart and J. A. Pople, J. Chem. Phys. 2769 (1970).
   K,Ca,Ga-Kr : W. J. Pietro, B. A. Levy, W. J. Hehre and R. F. Stewart, J. Am. Chem. Soc. 19, 2225 (1980).
   Sc-Zn,Y-Cd : W. J. Pietro and W. J. Hehre, J. Comp. Chem. 4, 241 (1983).

----- AuxJ basis set information -----
Your calculation utilizes the AutoAux generation procedure.
  G. L. Stoychev, A. A. Auer, F. Neese, J. Chem. Theory Comput. 13, 554 (2017)

----- AuxC basis set information -----
Your calculation utilizes the AutoAux generation procedure.
  G. L. Stoychev, A. A. Auer, F. Neese, J. Chem. Theory Comput. 13, 554 (2017)

----- AuxJK basis set information -----
Your calculation utilizes the AutoAux generation procedure.
  G. L. Stoychev, A. A. Auer, F. Neese, J. Chem. Theory Comput. 13, 554 (2017)

================================================================================
                                        WARNINGS
                       Please study these warnings very carefully!
================================================================================


INFO   : the flag for use of LIBINT has been found!

================================================================================
                                       INPUT FILE
================================================================================
NAME = dvb_nmr.inp
|  1> ! NMR B3LYP sto-3g autoaux noautostart
|  2> 
|  3> * xyz 0 1
|  4>  C       -1.4152533224   0.2302217854   0.0000000000
|  5>  C        1.4152533224  -0.2302217854   0.0000000000
|  6>  C       -0.4951331558   1.3144608674   0.0000000000
|  7>  C        0.4951331558  -1.3144608674   0.0000000000
|  8>  C        0.8894090436   1.0909493743   0.0000000000
|  9>  C       -0.8894090436  -1.0909493743   0.0000000000
| 10>  H       -0.8795511985   2.3437343748   0.0000000000
| 11>  H        0.8795511985  -2.3437343748   0.0000000000
| 12>  H        1.5779041557   1.9450061275   0.0000000000
| 13>  H       -1.5779041557  -1.9450061275   0.0000000000
| 14>  C        2.8845844962  -0.5210893778   0.0000000000
| 15>  C       -2.8845844962   0.5210893778   0.0000000000
| 16>  H        3.1403356810  -1.5919605685   0.0000000000
| 17>  H       -3.1403356810   1.5919605685   0.0000000000
| 18>  C        3.8800428103   0.3822535424   0.0000000000
| 19>  C       -3.8800428103  -0.3822535424   0.0000000000
| 20>  H        3.6946765858   1.4624389570   0.0000000000
| 21>  H       -3.6946765858  -1.4624389570   0.0000000000
| 22>  H        4.9316453546   0.0711049543   0.0000000000
| 23>  H       -4.9316453546  -0.0711049543   0.0000000000
| 24> *
| 25> 
| 26>                          ****END OF INPUT****
================================================================================

                       ****************************
                       * Single Point Calculation *
                       ****************************

---------------------------------
CARTESIAN COORDINATES (ANGSTROEM)
---------------------------------
  C     -1.415253    0.230222    0.000000
  C      1.415253   -0.230222    0.000000
  C     -0.495133    1.314461    0.000000
  C      0.495133   -1.314461    0.000000
  C      0.889409    1.090949    0.000000
  C     -0.889409   -1.090949    0.000000
  H     -0.879551    2.343734    0.000000
  H      0.879551   -2.343734    0.000000
  H      1.577904    1.945006    0.000000
  H     -1.577904   -1.945006    0.000000
  C      2.884584   -0.521089    0.000000
  C     -2.884584    0.521089    0.000000
  H      3.140336   -1.591961    0.000000
  H     -3.140336    1.591961    0.000000
  C      3.880043    0.382254    0.000000
  C     -3.880043   -0.382254    0.000000
  H      3.694677    1.462439    0.000000
  H     -3.694677   -1.462439    0.000000
  H      4.931645    0.071105    0.000000
  H     -4.931645   -0.071105    0.000000

----------------------------
CARTESIAN COORDINATES (A.U.)
----------------------------
  NO LB      ZA    FRAG     MASS         X           Y           Z
   0 C     6.0000    0    12.011   -2.674441    0.435056    0.000000
   1 C     6.0000    0    12.011    2.674441   -0.435056    0.000000
   2 C     6.0000    0    12.011   -0.935666    2.483971    0.000000
   3 C     6.0000    0    12.011    0.935666   -2.483971    0.000000
   4 C     6.0000    0    12.011    1.680740    2.061596    0.000000
   5 C     6.0000    0    12.011   -1.680740   -2.061596    0.000000
   6 H     1.0000    0     1.008   -1.662111    4.429016    0.000000
   7 H     1.0000    0     1.008    1.662111   -4.429016    0.000000
   8 H     1.0000    0     1.008    2.981807    3.675529    0.000000
   9 H     1.0000    0     1.008   -2.981807   -3.675529    0.000000
  10 C     6.0000    0    12.011    5.451075   -0.984716    0.000000
  11 C     6.0000    0    12.011   -5.451075    0.984716    0.000000
  12 H     1.0000    0     1.008    5.934374   -3.008369    0.000000
  13 H     1.0000    0     1.008   -5.934374    3.008369    0.000000
  14 C     6.0000    0    12.011    7.332218    0.722355    0.000000
  15 C     6.0000    0    12.011   -7.332218   -0.722355    0.000000
  16 H     1.0000    0     1.008    6.981927    2.763609    0.000000
  17 H     1.0000    0     1.008   -6.981927   -2.763609    0.000000
  18 H     1.0000    0     1.008    9.319459    0.134369    0.000000
  19 H     1.0000    0     1.008   -9.319459   -0.134369    0.000000

--------------------------------
INTERNAL COORDINATES (ANGSTROEM)
--------------------------------
 C      0   0   0     0.000000000000     0.00000000     0.00000000
 C      1   0   0     2.867712703209     0.00000000     0.00000000
 C      1   2   0     1.422039207589    58.92046780     0.00000000
 C      2   1   3     1.422039207589    58.92046780   180.00000085
 C      3   1   2     1.402467286416   121.14866524     0.00000000
 C      4   2   1     1.402467286416   121.14866524     0.00000000
 H      3   1   2     1.098717973180   119.20109491   180.00000000
 H      4   2   1     1.098717973180   119.20109491   180.00000000
 H      5   3   1     1.097013426113   119.70357006   180.00000000
 H      6   4   2     1.097013426113   119.70357006   180.00000000
 C      2   1   3     1.497844469432   178.04202002   180.00000000
 C      1   2   3     1.497844469432   178.04202002     0.00000000
 H     11   2   5     1.100987636442   114.62953459   180.00000000
 H     12   1   6     1.100987636442   114.62953459   180.00000000
 C     11   2   5     1.344234237991   126.57992264     0.00000000
 C     12   1   6     1.344234237991   126.57992264     0.00000000
 H     15  11   2     1.095974984705   122.48517186     0.00000000
 H     16  12   1     1.095974984705   122.48517186     0.00000000
 H     15  11   2     1.096668297643   121.29492471   180.00000085
 H     16  12   1     1.096668297643   121.29492471   180.00000085

---------------------------
INTERNAL COORDINATES (A.U.)
---------------------------
 C      0   0   0     0.000000000000     0.00000000     0.00000000
 C      1   0   0     5.419191639833     0.00000000     0.00000000
 C      1   2   0     2.687264654042    58.92046780     0.00000000
 C      2   1   3     2.687264654042    58.92046780   180.00000085
 C      3   1   2     2.650279083110   121.14866524     0.00000000
 C      4   2   1     2.650279083110   121.14866524     0.00000000
 H      3   1   2     2.076276067727   119.20109491   180.00000000
 H      4   2   1     2.076276067727   119.20109491   180.00000000
 H      5   3   1     2.073054940588   119.70357006   180.00000000
 H      6   4   2     2.073054940588   119.70357006   180.00000000
 C      2   1   3     2.830515838436   178.04202002   180.00000000
 C      1   2   3     2.830515838436   178.04202002     0.00000000
 H     11   2   5     2.080565109708   114.62953459   180.00000000
 H     12   1   6     2.080565109708   114.62953459   180.00000000
 C     11   2   5     2.540234569643   126.57992264     0.00000000
 C     12   1   6     2.540234569643   126.57992264     0.00000000
 H     15  11   2     2.071092570722   122.48517186     0.00000000
 H     16  12   1     2.071092570722   122.48517186     0.00000000
 H     15  11   2     2.072402742299   121.29492471   180.00000085
 H     16  12   1     2.072402742299   121.29492471   180.00000085

---------------------
BASIS SET INFORMATION
---------------------
There are 2 groups of distinct atoms

 Group   1 Type C   : 6s3p contracted to 2s1p pattern {33/3}
 Group   2 Type H   : 3s contracted to 1s pattern {3}

Atom   0C    basis set group =>   1
Atom   1C    basis set group =>   1
Atom   2C    basis set group =>   1
Atom   3C    basis set group =>   1
Atom   4C    basis set group =>   1
Atom   5C    basis set group =>   1
Atom   6H    basis set group =>   2
Atom   7H    basis set group =>   2
Atom   8H    basis set group =>   2
Atom   9H    basis set group =>   2
Atom  10C    basis set group =>   1
Atom  11C    basis set group =>   1
Atom  12H    basis set group =>   2
Atom  13H    basis set group =>   2
Atom  14C    basis set group =>   1
Atom  15C    basis set group =>   1
Atom  16H    basis set group =>   2
Atom  17H    basis set group =>   2
Atom  18H    basis set group =>   2
Atom  19H    basis set group =>   2
---------------------------------
AUXILIARY/J BASIS SET INFORMATION
---------------------------------
There are 2 groups of distinct atoms

 Group   1 Type C   : 11s10p5d contracted to 11s10p5d pattern {11111111111/1111111111/11111}
 Group   2 Type H   : 7s2p contracted to 7s2p pattern {1111111/11}

Atom   0C    basis set group =>   1
Atom   1C    basis set group =>   1
Atom   2C    basis set group =>   1
Atom   3C    basis set group =>   1
Atom   4C    basis set group =>   1
Atom   5C    basis set group =>   1
Atom   6H    basis set group =>   2
Atom   7H    basis set group =>   2
Atom   8H    basis set group =>   2
Atom   9H    basis set group =>   2
Atom  10C    basis set group =>   1
Atom  11C    basis set group =>   1
Atom  12H    basis set group =>   2
Atom  13H    basis set group =>   2
Atom  14C    basis set group =>   1
Atom  15C    basis set group =>   1
Atom  16H    basis set group =>   2
Atom  17H    basis set group =>   2
Atom  18H    basis set group =>   2
Atom  19H    basis set group =>   2
---------------------------------
AUXILIARY/C BASIS SET INFORMATION
---------------------------------
There are 2 groups of distinct atoms

 Group   1 Type C   : 11s10p5d contracted to 11s10p5d pattern {11111111111/1111111111/11111}
 Group   2 Type H   : 7s2p contracted to 7s2p pattern {1111111/11}

Atom   0C    basis set group =>   1
Atom   1C    basis set group =>   1
Atom   2C    basis set group =>   1
Atom   3C    basis set group =>   1
Atom   4C    basis set group =>   1
Atom   5C    basis set group =>   1
Atom   6H    basis set group =>   2
Atom   7H    basis set group =>   2
Atom   8H    basis set group =>   2
Atom   9H    basis set group =>   2
Atom  10C    basis set group =>   1
Atom  11C    basis set group =>   1
Atom  12H    basis set group =>   2
Atom  13H    basis set group =>   2
Atom  14C    basis set group =>   1
Atom  15C    basis set group =>   1
Atom  16H    basis set group =>   2
Atom  17H    basis set group =>   2
Atom  18H    basis set group =>   2
Atom  19H    basis set group =>   2
----------------------------------
AUXILIARY/JK BASIS SET INFORMATION
----------------------------------
There are 2 groups of distinct atoms

 Group   1 Type C   : 11s10p5d contracted to 11s10p5d pattern {11111111111/1111111111/11111}
 Group   2 Type H   : 7s2p contracted to 7s2p pattern {1111111/11}

Atom   0C    basis set group =>   1
Atom   1C    basis set group =>   1
Atom   2C    basis set group =>   1
Atom   3C    basis set group =>   1
Atom   4C    basis set group =>   1
Atom   5C    basis set group =>   1
Atom   6H    basis set group =>   2
Atom   7H    basis set group =>   2
Atom   8H    basis set group =>   2
Atom   9H    basis set group =>   2
Atom  10C    basis set group =>   1
Atom  11C    basis set group =>   1
Atom  12H    basis set group =>   2
Atom  13H    basis set group =>   2
Atom  14C    basis set group =>   1
Atom  15C    basis set group =>   1
Atom  16H    basis set group =>   2
Atom  17H    basis set group =>   2
Atom  18H    basis set group =>   2
Atom  19H    basis set group =>   2
------------------------------------------------------------------------------
                           ORCA GTO INTEGRAL CALCULATION
------------------------------------------------------------------------------

                         BASIS SET STATISTICS AND STARTUP INFO

 # of primitive gaussian shells          ...  120
 # of primitive gaussian functions       ...  180
 # of contracted shells                  ...   40
 # of contracted basis functions         ...   60
 Highest angular momentum                ...    1
 Maximum contraction depth               ...    3
 Integral package used                   ... LIBINT
 Integral threshhold            Thresh   ...  1.000e-10
 Primitive cut-off              TCut     ...  1.000e-11


------------------------------ INTEGRAL EVALUATION ----------------------------


 * One electron integrals 
 Pre-screening matrix                    ... done
 Shell pair data                         ... done (   0.000 sec)

-------------------------------------------------------------------------------
                                 ORCA SCF
-------------------------------------------------------------------------------

------------
SCF SETTINGS
------------
Hamiltonian:
 Density Functional     Method          .... DFT(GTOs)
 Exchange Functional    Exchange        .... B88
   X-Alpha parameter    XAlpha          ....  0.666667
   Becke's b parameter  XBeta           ....  0.004200
 Correlation Functional Correlation     .... LYP
 LDA part of GGA corr.  LDAOpt          .... VWN-5
 Gradients option       PostSCFGGA      .... off
 Hybrid DFT is turned on
   Fraction HF Exchange ScalHFX         ....  0.200000
   Scaling of DF-GGA-X  ScalDFX         ....  0.720000
   Scaling of DF-GGA-C  ScalDFC         ....  0.810000
   Scaling of DF-LDA-C  ScalLDAC        ....  1.000000
   Perturbative correction              ....  0.000000
   Density functional embedding theory  .... OFF
   NL short-range parameter             ....  4.800000


General Settings:
 Integral files         IntName         .... dvb_nmr
 Hartree-Fock type      HFTyp           .... RHF
 Total Charge           Charge          ....    0
 Multiplicity           Mult            ....    1
 Number of Electrons    NEL             ....   70
 Basis Dimension        Dim             ....   60
 Nuclear Repulsion      ENuc            ....    445.9369778699 Eh

Convergence Acceleration:
 DIIS                   CNVDIIS         .... on
   Start iteration      DIISMaxIt       ....    12
   Startup error        DIISStart       ....  0.200000
   # of expansion vecs  DIISMaxEq       ....     5
   Bias factor          DIISBfac        ....   1.050
   Max. coefficient     DIISMaxC        ....  10.000
 Newton-Raphson         CNVNR           .... off
 SOSCF                  CNVSOSCF        .... on
   Start iteration      SOSCFMaxIt      ....   150
   Startup grad/error   SOSCFStart      ....  0.003300
 Level Shifting         CNVShift        .... on
   Level shift para.    LevelShift      ....    0.2500
   Turn off err/grad.   ShiftErr        ....    0.0010
 Zerner damping         CNVZerner       .... off
 Static damping         CNVDamp         .... on
   Fraction old density DampFac         ....    0.7000
   Max. Damping (<1)    DampMax         ....    0.9800
   Min. Damping (>=0)   DampMin         ....    0.0000
   Turn off err/grad.   DampErr         ....    0.1000
 Fernandez-Rico         CNVRico         .... off

SCF Procedure:
 Maximum # iterations   MaxIter         ....   125
 SCF integral mode      SCFMode         .... Direct
   Integral package                     .... LIBINT
 Reset frequency        DirectResetFreq ....    20
 Integral Threshold     Thresh          ....  1.000e-10 Eh
 Primitive CutOff       TCut            ....  1.000e-11 Eh

Convergence Tolerance:
 Convergence Check Mode ConvCheckMode   .... Total+1el-Energy
 Convergence forced     ConvForced      .... 0
 Energy Change          TolE            ....  1.000e-06 Eh
 1-El. energy change                    ....  1.000e-03 Eh
 Orbital Gradient       TolG            ....  5.000e-05
 Orbital Rotation angle TolX            ....  5.000e-05
 DIIS Error             TolErr          ....  1.000e-06


Diagonalization of the overlap matrix:
Smallest eigenvalue                        ... 1.815e-01
Time for diagonalization                   ...    0.001 sec
Threshold for overlap eigenvalues          ... 1.000e-08
Number of eigenvalues below threshold      ... 0
Time for construction of square roots      ...    0.000 sec
Total time needed                          ...    0.001 sec

-------------------
DFT GRID GENERATION
-------------------

General Integration Accuracy     IntAcc      ...  4.340
Radial Grid Type                 RadialGrid  ... Gauss-Chebyshev
Angular Grid (max. acc.)         AngularGrid ... Lebedev-110
Angular grid pruning method      GridPruning ... 3 (G Style)
Weight generation scheme         WeightScheme... Becke
Basis function cutoff            BFCut       ...    1.0000e-10
Integration weight cutoff        WCut        ...    1.0000e-14
Grids for H and He will be reduced by one unit

# of grid points (after initial pruning)     ...  24500 (   0.0 sec)
# of grid points (after weights+screening)   ...  22584 (   0.1 sec)
nearest neighbour list constructed           ...    0.0 sec
Grid point re-assignment to atoms done       ...    0.0 sec
Grid point division into batches done        ...    0.0 sec
Reduced shell lists constructed in    0.1 sec

Total number of grid points                  ...    22584
Total number of batches                      ...      360
Average number of points per batch           ...       62
Average number of grid points per atom       ...     1129
Average number of shells per batch           ...    26.07 (65.17%)
Average number of basis functions per batch  ...    42.76 (71.27%)
Average number of large shells per batch     ...    19.45 (74.61%)
Average number of large basis fcns per batch ...    32.72 (76.52%)
Maximum spatial batch extension              ...  16.50, 21.02, 22.44 au
Average spatial batch extension              ...   3.25,  3.97,  5.12 au

Time for grid setup =    0.117 sec

------------------------------
INITIAL GUESS: MODEL POTENTIAL
------------------------------
Loading Hartree-Fock densities                     ... done
Calculating cut-offs                               ... done
Setting up the integral package                    ... done
Initializing the effective Hamiltonian             ... done
Starting the Coulomb interaction                   ... done (   0.0 sec)
Reading the grid                                   ... done
Mapping shells                                     ... done
Starting the XC term evaluation                    ... done (   0.1 sec)
  promolecular density results
     # of electrons  =     70.005505507
     EX              =    -54.264798496
     EC              =     -2.295147279
     EX+EC           =    -56.559945775
Transforming the Hamiltonian                       ... done (   0.0 sec)
Diagonalizing the Hamiltonian                      ... done (   0.0 sec)
Back transforming the eigenvectors                 ... done (   0.0 sec)
Now organizing SCF variables                       ... done
                      ------------------
                      INITIAL GUESS DONE (   0.3 sec)
                      ------------------
--------------
SCF ITERATIONS
--------------
ITER       Energy         Delta-E        Max-DP      RMS-DP      [F,P]     Damp
               ***  Starting incremental Fock matrix formation  ***
  0   -381.9972474004   0.000000000000 0.04234247  0.00317912  0.0762853 0.7000
  1   -382.0178339594  -0.020586559031 0.03328342  0.00251114  0.0477194 0.7000
                               ***Turning on DIIS***
  2   -382.0291574446  -0.011323485205 0.06525574  0.00497687  0.0256262 0.0000
  3   -382.0467146068  -0.017557162181 0.02207792  0.00161645  0.0169676 0.0000
  4   -382.0491693700  -0.002454763169 0.00554053  0.00038939  0.0040373 0.0000
                      *** Initiating the SOSCF procedure ***
                           *** Shutting down DIIS ***
                      *** Re-Reading the Fockian *** 
                      *** Removing any level shift *** 
ITER      Energy       Delta-E        Grad      Rot      Max-DP    RMS-DP
  5   -382.04928845  -0.0001190819  0.000381  0.000381  0.000969  0.000076
               *** Restarting incremental Fock matrix formation ***
  6   -382.04929522  -0.0000067682  0.000225  0.000902  0.000890  0.000048
  7   -382.04929535  -0.0000001280  0.000169  0.000356  0.000640  0.000028
  8   -382.04929582  -0.0000004702  0.000055  0.000119  0.000205  0.000014
                 **** Energy Check signals convergence ****
              ***Rediagonalizing the Fockian in SOSCF/NRSCF***

               *****************************************************
               *                     SUCCESS                       *
               *           SCF CONVERGED AFTER   9 CYCLES          *
               *****************************************************

Setting up the final grid:

General Integration Accuracy     IntAcc      ...  4.670
Radial Grid Type                 RadialGrid  ... Gauss-Chebyshev
Angular Grid (max. acc.)         AngularGrid ... Lebedev-302
Angular grid pruning method      GridPruning ... 3 (G Style)
Weight generation scheme         WeightScheme... Becke
Basis function cutoff            BFCut       ...    1.0000e-10
Integration weight cutoff        WCut        ...    1.0000e-14
Grids for H and He will be reduced by one unit

# of grid points (after initial pruning)     ...  96060 (   0.0 sec)
# of grid points (after weights+screening)   ...  87244 (   0.2 sec)
nearest neighbour list constructed           ...    0.0 sec
Grid point re-assignment to atoms done       ...    0.0 sec
Grid point division into batches done        ...    0.2 sec
Reduced shell lists constructed in    0.4 sec

Total number of grid points                  ...    87244
Total number of batches                      ...     1372
Average number of points per batch           ...       63
Average number of grid points per atom       ...     4362
Average number of shells per batch           ...    23.85 (59.62%)
Average number of basis functions per batch  ...    39.34 (65.57%)
Average number of large shells per batch     ...    17.08 (71.64%)
Average number of large basis fcns per batch ...    28.92 (73.50%)
Maximum spatial batch extension              ...  17.92, 17.18, 24.37 au
Average spatial batch extension              ...   2.34,  2.51,  2.86 au

Final grid set up in    0.6 sec
Final integration                            ... done (   0.2 sec)
Change in XC energy                          ...    -0.001441312
Integrated number of electrons               ...    69.999765751
Previous integrated no of electrons          ...    69.996766746

----------------
TOTAL SCF ENERGY
----------------

Total Energy       :         -382.05073715 Eh          -10396.12909 eV

Components:
Nuclear Repulsion  :          445.93697787 Eh           12134.56208 eV
Electronic Energy  :         -827.98771502 Eh          -22530.69116 eV
One Electron Energy:        -1400.63546996 Eh          -38113.22878 eV
Two Electron Energy:          572.64775494 Eh           15582.53761 eV

Virial components:
Potential Energy   :         -757.89242362 Eh          -20623.30132 eV
Kinetic Energy     :          375.84168647 Eh           10227.17223 eV
Virial Ratio       :            2.01652039


DFT components:
N(Alpha)           :       34.999882875671 electrons
N(Beta)            :       34.999882875671 electrons
N(Total)           :       69.999765751343 electrons
E(X)               :      -43.808344363297 Eh       
E(C)               :       -2.717827053075 Eh       
E(XC)              :      -46.526171416372 Eh       
DFET-embed. en.    :        0.000000000000 Eh       

---------------
SCF CONVERGENCE
---------------

  Last Energy change         ...   -2.0226e-08  Tolerance :   1.0000e-06
  Last MAX-Density change    ...    9.9315e-05  Tolerance :   1.0000e-05
  Last RMS-Density change    ...    6.5075e-06  Tolerance :   1.0000e-06
  Last Orbital Gradient      ...    3.7059e-05  Tolerance :   5.0000e-05
  Last Orbital Rotation      ...    3.7739e-05  Tolerance :   5.0000e-05

             **** THE GBW FILE WAS UPDATED (dvb_nmr.gbw) ****
             **** DENSITY FILE WAS UPDATED (dvb_nmr.scfp) ****
             **** ENERGY FILE WAS UPDATED (dvb_nmr.en.tmp) ****
             **** THE GBW FILE WAS UPDATED (dvb_nmr.gbw) ****
             **** DENSITY FILE WAS UPDATED (dvb_nmr.scfp) ****
----------------
ORBITAL ENERGIES
----------------

  NO   OCC          E(Eh)            E(eV) 
   0   2.0000     -10.016097      -272.5519 
   1   2.0000     -10.016049      -272.5505 
   2   2.0000     -10.004154      -272.2269 
   3   2.0000     -10.004153      -272.2268 
   4   2.0000     -10.003031      -272.1963 
   5   2.0000     -10.003029      -272.1962 
   6   2.0000     -10.002387      -272.1788 
   7   2.0000     -10.002244      -272.1749 
   8   2.0000      -9.988406      -271.7983 
   9   2.0000      -9.988405      -271.7983 
  10   2.0000      -0.805815       -21.9273 
  11   2.0000      -0.750313       -20.4171 
  12   2.0000      -0.714223       -19.4350 
  13   2.0000      -0.696274       -18.9466 
  14   2.0000      -0.663626       -18.0582 
  15   2.0000      -0.584900       -15.9159 
  16   2.0000      -0.555459       -15.1148 
  17   2.0000      -0.527894       -14.3647 
  18   2.0000      -0.506306       -13.7773 
  19   2.0000      -0.454008       -12.3542 
  20   2.0000      -0.435562       -11.8522 
  21   2.0000      -0.407453       -11.0874 
  22   2.0000      -0.394069       -10.7232 
  23   2.0000      -0.392405       -10.6779 
  24   2.0000      -0.370809       -10.0902 
  25   2.0000      -0.347374        -9.4525 
  26   2.0000      -0.343439        -9.3454 
  27   2.0000      -0.320833        -8.7303 
  28   2.0000      -0.307473        -8.3668 
  29   2.0000      -0.289375        -7.8743 
  30   2.0000      -0.283884        -7.7249 
  31   2.0000      -0.259772        -7.0688 
  32   2.0000      -0.208586        -5.6759 
  33   2.0000      -0.191512        -5.2113 
  34   2.0000      -0.149231        -4.0608 
  35   0.0000       0.041205         1.1212 
  36   0.0000       0.093857         2.5540 
  37   0.0000       0.114440         3.1141 
  38   0.0000       0.185909         5.0588 
  39   0.0000       0.276036         7.5113 
  40   0.0000       0.336067         9.1449 
  41   0.0000       0.344196         9.3660 
  42   0.0000       0.383197        10.4273 
  43   0.0000       0.384841        10.4721 
  44   0.0000       0.413983        11.2650 
  45   0.0000       0.414840        11.2884 
  46   0.0000       0.429333        11.6828 
  47   0.0000       0.443023        12.0553 
  48   0.0000       0.457418        12.4470 
  49   0.0000       0.481983        13.1154 
  50   0.0000       0.529254        14.4017 
  51   0.0000       0.549980        14.9657 
  52   0.0000       0.580105        15.7854 
  53   0.0000       0.602129        16.3848 
  54   0.0000       0.628561        17.1040 
  55   0.0000       0.643461        17.5095 
  56   0.0000       0.686473        18.6799 
  57   0.0000       0.720988        19.6191 
  58   0.0000       0.782754        21.2998 
  59   0.0000       0.797980        21.7142 

                    ********************************
                    * MULLIKEN POPULATION ANALYSIS *
                    ********************************

-----------------------
MULLIKEN ATOMIC CHARGES
-----------------------
   0 C :   -0.004786
   1 C :   -0.004786
   2 C :   -0.076182
   3 C :   -0.076182
   4 C :   -0.076714
   5 C :   -0.076714
   6 H :    0.077558
   7 H :    0.077558
   8 H :    0.079031
   9 H :    0.079031
  10 C :   -0.075766
  11 C :   -0.075766
  12 H :    0.076207
  13 H :    0.076207
  14 C :   -0.154124
  15 C :   -0.154124
  16 H :    0.075743
  17 H :    0.075743
  18 H :    0.079033
  19 H :    0.079033
Sum of atomic charges:   -0.0000000

--------------------------------
MULLIKEN REDUCED ORBITAL CHARGES
--------------------------------
  0 C s       :     3.136883  s :     3.136883
      pz      :     0.993624  p :     2.867902
      px      :     0.929578
      py      :     0.944700
  1 C s       :     3.136883  s :     3.136883
      pz      :     0.993624  p :     2.867902
      px      :     0.929578
      py      :     0.944700
  2 C s       :     3.150872  s :     3.150872
      pz      :     1.001379  p :     2.925310
      px      :     0.950736
      py      :     0.973195
  3 C s       :     3.150872  s :     3.150872
      pz      :     1.001379  p :     2.925310
      px      :     0.950736
      py      :     0.973195
  4 C s       :     3.148692  s :     3.148692
      pz      :     1.000802  p :     2.928022
      px      :     0.961773
      py      :     0.965447
  5 C s       :     3.148692  s :     3.148692
      pz      :     1.000802  p :     2.928022
      px      :     0.961773
      py      :     0.965447
  6 H s       :     0.922442  s :     0.922442
  7 H s       :     0.922442  s :     0.922442
  8 H s       :     0.920969  s :     0.920969
  9 H s       :     0.920969  s :     0.920969
 10 C s       :     3.153723  s :     3.153723
      pz      :     0.998069  p :     2.922043
      px      :     0.935454
      py      :     0.988521
 11 C s       :     3.153723  s :     3.153723
      pz      :     0.998069  p :     2.922043
      px      :     0.935454
      py      :     0.988521
 12 H s       :     0.923793  s :     0.923793
 13 H s       :     0.923793  s :     0.923793
 14 C s       :     3.168714  s :     3.168714
      pz      :     1.006126  p :     2.985410
      px      :     0.988110
      py      :     0.991174
 15 C s       :     3.168714  s :     3.168714
      pz      :     1.006126  p :     2.985410
      px      :     0.988110
      py      :     0.991174
 16 H s       :     0.924257  s :     0.924257
 17 H s       :     0.924257  s :     0.924257
 18 H s       :     0.920967  s :     0.920967
 19 H s       :     0.920967  s :     0.920967


                     *******************************
                     * LOEWDIN POPULATION ANALYSIS *
                     *******************************

----------------------
LOEWDIN ATOMIC CHARGES
----------------------
   0 C :    0.003404
   1 C :    0.003404
   2 C :   -0.043531
   3 C :   -0.043531
   4 C :   -0.043885
   5 C :   -0.043885
   6 H :    0.041893
   7 H :    0.041893
   8 H :    0.043540
   9 H :    0.043540
  10 C :   -0.038573
  11 C :   -0.038573
  12 H :    0.040679
  13 H :    0.040679
  14 C :   -0.091147
  15 C :   -0.091147
  16 H :    0.042767
  17 H :    0.042767
  18 H :    0.044853
  19 H :    0.044853

-------------------------------
LOEWDIN REDUCED ORBITAL CHARGES
-------------------------------
  0 C s       :     3.032346  s :     3.032346
      pz      :     0.992703  p :     2.964250
      px      :     0.975529
      py      :     0.996018
  1 C s       :     3.032346  s :     3.032346
      pz      :     0.992703  p :     2.964250
      px      :     0.975529
      py      :     0.996018
  2 C s       :     3.031742  s :     3.031742
      pz      :     1.001693  p :     3.011789
      px      :     1.003409
      py      :     1.006687
  3 C s       :     3.031742  s :     3.031742
      pz      :     1.001693  p :     3.011789
      px      :     1.003409
      py      :     1.006687
  4 C s       :     3.029430  s :     3.029430
      pz      :     1.001216  p :     3.014455
      px      :     1.007496
      py      :     1.005743
  5 C s       :     3.029430  s :     3.029430
      pz      :     1.001216  p :     3.014455
      px      :     1.007496
      py      :     1.005743
  6 H s       :     0.958107  s :     0.958107
  7 H s       :     0.958107  s :     0.958107
  8 H s       :     0.956460  s :     0.956460
  9 H s       :     0.956460  s :     0.956460
 10 C s       :     3.033445  s :     3.033445
      pz      :     0.997445  p :     3.005128
      px      :     0.986243
      py      :     1.021439
 11 C s       :     3.033445  s :     3.033445
      pz      :     0.997445  p :     3.005128
      px      :     0.986243
      py      :     1.021439
 12 H s       :     0.959321  s :     0.959321
 13 H s       :     0.959321  s :     0.959321
 14 C s       :     3.032995  s :     3.032995
      pz      :     1.006943  p :     3.058152
      px      :     1.025483
      py      :     1.025726
 15 C s       :     3.032995  s :     3.032995
      pz      :     1.006943  p :     3.058152
      px      :     1.025483
      py      :     1.025726
 16 H s       :     0.957233  s :     0.957233
 17 H s       :     0.957233  s :     0.957233
 18 H s       :     0.955147  s :     0.955147
 19 H s       :     0.955147  s :     0.955147


                      *****************************
                      * MAYER POPULATION ANALYSIS *
                      *****************************

  NA   - Mulliken gross atomic population
  ZA   - Total nuclear charge
  QA   - Mulliken gross atomic charge
  VA   - Mayer's total valence
  BVA  - Mayer's bonded valence
  FA   - Mayer's free valence

  ATOM       NA         ZA         QA         VA         BVA        FA
  0 C      6.0048     6.0000    -0.0048     3.9731     3.9731    -0.0000
  1 C      6.0048     6.0000    -0.0048     3.9731     3.9731    -0.0000
  2 C      6.0762     6.0000    -0.0762     3.9693     3.9693     0.0000
  3 C      6.0762     6.0000    -0.0762     3.9693     3.9693    -0.0000
  4 C      6.0767     6.0000    -0.0767     3.9701     3.9701    -0.0000
  5 C      6.0767     6.0000    -0.0767     3.9701     3.9701     0.0000
  6 H      0.9224     1.0000     0.0776     0.9940     0.9940    -0.0000
  7 H      0.9224     1.0000     0.0776     0.9940     0.9940    -0.0000
  8 H      0.9210     1.0000     0.0790     0.9938     0.9938    -0.0000
  9 H      0.9210     1.0000     0.0790     0.9938     0.9938    -0.0000
 10 C      6.0758     6.0000    -0.0758     3.9682     3.9682     0.0000
 11 C      6.0758     6.0000    -0.0758     3.9682     3.9682    -0.0000
 12 H      0.9238     1.0000     0.0762     0.9942     0.9942     0.0000
 13 H      0.9238     1.0000     0.0762     0.9942     0.9942    -0.0000
 14 C      6.1541     6.0000    -0.1541     3.9649     3.9649     0.0000
 15 C      6.1541     6.0000    -0.1541     3.9649     3.9649    -0.0000
 16 H      0.9243     1.0000     0.0757     0.9943     0.9943    -0.0000
 17 H      0.9243     1.0000     0.0757     0.9943     0.9943    -0.0000
 18 H      0.9210     1.0000     0.0790     0.9938     0.9938     0.0000
 19 H      0.9210     1.0000     0.0790     0.9938     0.9938    -0.0000

  Mayer bond orders larger than 0.100000
B(  0-C ,  2-C ) :   1.3630 B(  0-C ,  5-C ) :   1.3651 B(  0-C , 11-C ) :   1.0665 
B(  1-C ,  3-C ) :   1.3630 B(  1-C ,  4-C ) :   1.3651 B(  1-C , 10-C ) :   1.0665 
B(  2-C ,  4-C ) :   1.4652 B(  2-C ,  6-H ) :   0.9614 B(  3-C ,  5-C ) :   1.4652 
B(  3-C ,  7-H ) :   0.9614 B(  4-C ,  5-C ) :   0.1022 B(  4-C ,  8-H ) :   0.9595 
B(  5-C ,  9-H ) :   0.9595 B( 10-C , 12-H ) :   0.9592 B( 10-C , 14-C ) :   1.9012 
B( 11-C , 13-H ) :   0.9592 B( 11-C , 15-C ) :   1.9012 B( 14-C , 16-H ) :   0.9665 
B( 14-C , 18-H ) :   0.9693 B( 15-C , 17-H ) :   0.9665 B( 15-C , 19-H ) :   0.9693 


-------
TIMINGS
-------

Total SCF time: 0 days 0 hours 0 min 5 sec 

Total time                  ....       5.483 sec
Sum of individual times     ....       5.385 sec  ( 98.2%)

Fock matrix formation       ....       4.495 sec  ( 82.0%)
  XC integration            ....       0.779 sec  ( 17.3% of F)
    Basis function eval.    ....       0.338 sec  ( 43.3% of XC)
    Density eval.           ....       0.192 sec  ( 24.7% of XC)
    XC-Functional eval.     ....       0.108 sec  ( 13.8% of XC)
    XC-Potential eval.      ....       0.111 sec  ( 14.3% of XC)
Diagonalization             ....       0.003 sec  (  0.1%)
Density matrix formation    ....       0.000 sec  (  0.0%)
Population analysis         ....       0.001 sec  (  0.0%)
Initial guess               ....       0.136 sec  (  2.5%)
Orbital Transformation      ....       0.000 sec  (  0.0%)
Orbital Orthonormalization  ....       0.000 sec  (  0.0%)
DIIS solution               ....       0.001 sec  (  0.0%)
SOSCF solution              ....       0.054 sec  (  1.0%)
Grid generation             ....       0.695 sec  ( 12.7%)

-------------------------   --------------------
FINAL SINGLE POINT ENERGY      -382.050737150728
-------------------------   --------------------


                            ***************************************
                            *     ORCA property calculations      *
                            ***************************************

                                    ---------------------
                                    Active property flags
                                    ---------------------
   (+) Dipole Moment
   (+) Chemical Shifts
   (+) Nuclear properties (Hyperfine,Quadrupole)


------------------------------------------------------------------------------
                       ORCA ELECTRIC PROPERTIES CALCULATION
------------------------------------------------------------------------------

Dipole Moment Calculation                       ... on
Quadrupole Moment Calculation                   ... off
Polarizability Calculation                      ... off
GBWName                                         ... dvb_nmr.gbw
Electron density file                           ... dvb_nmr.scfp
The origin for moment calculation is the CENTER OF MASS  = ( 0.000000,  0.000000  0.000000)

-------------
DIPOLE MOMENT
-------------
                                X             Y             Z
Electronic contribution:      0.00000      -0.00000      -0.00000
Nuclear contribution   :      0.00000       0.00000       0.00000
                        -----------------------------------------
Total Dipole Moment    :      0.00000      -0.00000      -0.00000
                        -----------------------------------------
Magnitude (a.u.)       :      0.00000
Magnitude (Debye)      :      0.00000



--------------------
Rotational spectrum 
--------------------
 
Rotational constants in cm-1:     0.153923     0.022856     0.019901 
Rotational constants in MHz :  4614.497946   685.205544   596.614430 

 Dipole components along the rotational axes: 
x,y,z [a.u.] :    -0.000000    -0.000000    -0.000000 
x,y,z [Debye]:    -0.000000    -0.000000    -0.000000 

 
------------------------------------------------------------------------------
                                ORCA EPR/NMR CALCULATION
------------------------------------------------------------------------------

GBWName                      ... dvb_nmr.gbw
Electron density file        ... dvb_nmr.scfp
Spin density file            ... dvb_nmr.scfr
Treatment of gauge           ... GIAO (approximations 1/2el = 0,3)
Details of the CP(SCF) procedure:
       Solver   = POPLE   
       MaxIter  =    64   
       Tolerance=    1.000e-06
       Op-0     =   0- 34 =>  35- 59
Multiplicity                 ... 1
g-tensor                     ... 0
NMR chemical shifts          ... 1
Number of nuclei for epr/nmr ... 20
   Nucleus:   0C 
       Hyperfine : Isotope=   13 I=   0.500 P= 134.188
       Quadrupole: Isotope=   13 I=   0.500 Q=   0.000
       Spin-Orbit: Zeff=   3.600
       Ncuelar Spin-Spin: Gn=   0.000
       rho(0)=N f(grad)=N a(iso)=N a(dip)=N a(orb)=N sigma(nmr)=Y spin-spin(nmr)=all-N,DSO-N,PSO-N,FC-N,SD-N
   Nucleus:   1C 
       Hyperfine : Isotope=   13 I=   0.500 P= 134.188
       Quadrupole: Isotope=   13 I=   0.500 Q=   0.000
       Spin-Orbit: Zeff=   3.600
       Ncuelar Spin-Spin: Gn=   0.000
       rho(0)=N f(grad)=N a(iso)=N a(dip)=N a(orb)=N sigma(nmr)=Y spin-spin(nmr)=all-N,DSO-N,PSO-N,FC-N,SD-N
   Nucleus:   2C 
       Hyperfine : Isotope=   13 I=   0.500 P= 134.188
       Quadrupole: Isotope=   13 I=   0.500 Q=   0.000
       Spin-Orbit: Zeff=   3.600
       Ncuelar Spin-Spin: Gn=   0.000
       rho(0)=N f(grad)=N a(iso)=N a(dip)=N a(orb)=N sigma(nmr)=Y spin-spin(nmr)=all-N,DSO-N,PSO-N,FC-N,SD-N
   Nucleus:   3C 
       Hyperfine : Isotope=   13 I=   0.500 P= 134.188
       Quadrupole: Isotope=   13 I=   0.500 Q=   0.000
       Spin-Orbit: Zeff=   3.600
       Ncuelar Spin-Spin: Gn=   0.000
       rho(0)=N f(grad)=N a(iso)=N a(dip)=N a(orb)=N sigma(nmr)=Y spin-spin(nmr)=all-N,DSO-N,PSO-N,FC-N,SD-N
   Nucleus:   4C 
       Hyperfine : Isotope=   13 I=   0.500 P= 134.188
       Quadrupole: Isotope=   13 I=   0.500 Q=   0.000
       Spin-Orbit: Zeff=   3.600
       Ncuelar Spin-Spin: Gn=   0.000
       rho(0)=N f(grad)=N a(iso)=N a(dip)=N a(orb)=N sigma(nmr)=Y spin-spin(nmr)=all-N,DSO-N,PSO-N,FC-N,SD-N
   Nucleus:   5C 
       Hyperfine : Isotope=   13 I=   0.500 P= 134.188
       Quadrupole: Isotope=   13 I=   0.500 Q=   0.000
       Spin-Orbit: Zeff=   3.600
       Ncuelar Spin-Spin: Gn=   0.000
       rho(0)=N f(grad)=N a(iso)=N a(dip)=N a(orb)=N sigma(nmr)=Y spin-spin(nmr)=all-N,DSO-N,PSO-N,FC-N,SD-N
   Nucleus:   6H 
       Hyperfine : Isotope=    1 I=   0.500 P= 533.552
       Quadrupole: Isotope=    2 I=   1.000 Q=   0.003
       Spin-Orbit: Zeff=   1.000
       Ncuelar Spin-Spin: Gn=   0.000
       rho(0)=N f(grad)=N a(iso)=N a(dip)=N a(orb)=N sigma(nmr)=Y spin-spin(nmr)=all-N,DSO-N,PSO-N,FC-N,SD-N
   Nucleus:   7H 
       Hyperfine : Isotope=    1 I=   0.500 P= 533.552
       Quadrupole: Isotope=    2 I=   1.000 Q=   0.003
       Spin-Orbit: Zeff=   1.000
       Ncuelar Spin-Spin: Gn=   0.000
       rho(0)=N f(grad)=N a(iso)=N a(dip)=N a(orb)=N sigma(nmr)=Y spin-spin(nmr)=all-N,DSO-N,PSO-N,FC-N,SD-N
   Nucleus:   8H 
       Hyperfine : Isotope=    1 I=   0.500 P= 533.552
       Quadrupole: Isotope=    2 I=   1.000 Q=   0.003
       Spin-Orbit: Zeff=   1.000
       Ncuelar Spin-Spin: Gn=   0.000
       rho(0)=N f(grad)=N a(iso)=N a(dip)=N a(orb)=N sigma(nmr)=Y spin-spin(nmr)=all-N,DSO-N,PSO-N,FC-N,SD-N
   Nucleus:   9H 
       Hyperfine : Isotope=    1 I=   0.500 P= 533.552
       Quadrupole: Isotope=    2 I=   1.000 Q=   0.003
       Spin-Orbit: Zeff=   1.000
       Ncuelar Spin-Spin: Gn=   0.000
       rho(0)=N f(grad)=N a(iso)=N a(dip)=N a(orb)=N sigma(nmr)=Y spin-spin(nmr)=all-N,DSO-N,PSO-N,FC-N,SD-N
   Nucleus:  10C 
       Hyperfine : Isotope=   13 I=   0.500 P= 134.188
       Quadrupole: Isotope=   13 I=   0.500 Q=   0.000
       Spin-Orbit: Zeff=   3.600
       Ncuelar Spin-Spin: Gn=   0.000
       rho(0)=N f(grad)=N a(iso)=N a(dip)=N a(orb)=N sigma(nmr)=Y spin-spin(nmr)=all-N,DSO-N,PSO-N,FC-N,SD-N
   Nucleus:  11C 
       Hyperfine : Isotope=   13 I=   0.500 P= 134.188
       Quadrupole: Isotope=   13 I=   0.500 Q=   0.000
       Spin-Orbit: Zeff=   3.600
       Ncuelar Spin-Spin: Gn=   0.000
       rho(0)=N f(grad)=N a(iso)=N a(dip)=N a(orb)=N sigma(nmr)=Y spin-spin(nmr)=all-N,DSO-N,PSO-N,FC-N,SD-N
   Nucleus:  12H 
       Hyperfine : Isotope=    1 I=   0.500 P= 533.552
       Quadrupole: Isotope=    2 I=   1.000 Q=   0.003
       Spin-Orbit: Zeff=   1.000
       Ncuelar Spin-Spin: Gn=   0.000
       rho(0)=N f(grad)=N a(iso)=N a(dip)=N a(orb)=N sigma(nmr)=Y spin-spin(nmr)=all-N,DSO-N,PSO-N,FC-N,SD-N
   Nucleus:  13H 
       Hyperfine : Isotope=    1 I=   0.500 P= 533.552
       Quadrupole: Isotope=    2 I=   1.000 Q=   0.003
       Spin-Orbit: Zeff=   1.000
       Ncuelar Spin-Spin: Gn=   0.000
       rho(0)=N f(grad)=N a(iso)=N a(dip)=N a(orb)=N sigma(nmr)=Y spin-spin(nmr)=all-N,DSO-N,PSO-N,FC-N,SD-N
   Nucleus:  14C 
       Hyperfine : Isotope=   13 I=   0.500 P= 134.188
       Quadrupole: Isotope=   13 I=   0.500 Q=   0.000
       Spin-Orbit: Zeff=   3.600
       Ncuelar Spin-Spin: Gn=   0.000
       rho(0)=N f(grad)=N a(iso)=N a(dip)=N a(orb)=N sigma(nmr)=Y spin-spin(nmr)=all-N,DSO-N,PSO-N,FC-N,SD-N
   Nucleus:  15C 
       Hyperfine : Isotope=   13 I=   0.500 P= 134.188
       Quadrupole: Isotope=   13 I=   0.500 Q=   0.000
       Spin-Orbit: Zeff=   3.600
       Ncuelar Spin-Spin: Gn=   0.000
       rho(0)=N f(grad)=N a(iso)=N a(dip)=N a(orb)=N sigma(nmr)=Y spin-spin(nmr)=all-N,DSO-N,PSO-N,FC-N,SD-N
   Nucleus:  16H 
       Hyperfine : Isotope=    1 I=   0.500 P= 533.552
       Quadrupole: Isotope=    2 I=   1.000 Q=   0.003
       Spin-Orbit: Zeff=   1.000
       Ncuelar Spin-Spin: Gn=   0.000
       rho(0)=N f(grad)=N a(iso)=N a(dip)=N a(orb)=N sigma(nmr)=Y spin-spin(nmr)=all-N,DSO-N,PSO-N,FC-N,SD-N
   Nucleus:  17H 
       Hyperfine : Isotope=    1 I=   0.500 P= 533.552
       Quadrupole: Isotope=    2 I=   1.000 Q=   0.003
       Spin-Orbit: Zeff=   1.000
       Ncuelar Spin-Spin: Gn=   0.000
       rho(0)=N f(grad)=N a(iso)=N a(dip)=N a(orb)=N sigma(nmr)=Y spin-spin(nmr)=all-N,DSO-N,PSO-N,FC-N,SD-N
   Nucleus:  18H 
       Hyperfine : Isotope=    1 I=   0.500 P= 533.552
       Quadrupole: Isotope=    2 I=   1.000 Q=   0.003
       Spin-Orbit: Zeff=   1.000
       Ncuelar Spin-Spin: Gn=   0.000
       rho(0)=N f(grad)=N a(iso)=N a(dip)=N a(orb)=N sigma(nmr)=Y spin-spin(nmr)=all-N,DSO-N,PSO-N,FC-N,SD-N
   Nucleus:  19H 
       Hyperfine : Isotope=    1 I=   0.500 P= 533.552
       Quadrupole: Isotope=    2 I=   1.000 Q=   0.003
       Spin-Orbit: Zeff=   1.000
       Ncuelar Spin-Spin: Gn=   0.000
       rho(0)=N f(grad)=N a(iso)=N a(dip)=N a(orb)=N sigma(nmr)=Y spin-spin(nmr)=all-N,DSO-N,PSO-N,FC-N,SD-N
Forming RHS of the CP-SCF equations         ... 
Calculating right hand sides for GIAO treatment        ... 
  Entering RightHandSide GIAO. ScalHFX=    0.2000 NeedHFX=1
     -> 1-electron GIAO integrals will be done analytically
     -> SCF done analytically but RIJK chosen for GIAO calculation.
     Making grid for GIAO integrations   ... 
General Integration Accuracy     IntAcc      ...  4.340
Radial Grid Type                 RadialGrid  ... Gauss-Chebyshev
Angular Grid (max. acc.)         AngularGrid ... Lebedev-110
Angular grid pruning method      GridPruning ... 3 (G Style)
Weight generation scheme         WeightScheme... Becke
Basis function cutoff            BFCut       ...    1.0000e-10
Integration weight cutoff        WCut        ...    1.0000e-14
Grids for H and He will be reduced by one unit

# of grid points (after initial pruning)     ...  24500 (   0.0 sec)
# of grid points (after weights+screening)   ...  22584 (   0.1 sec)
nearest neighbour list constructed           ...    0.0 sec
Grid point re-assignment to atoms done       ...    0.0 sec
Grid point division into batches done        ...    0.0 sec
Reduced shell lists constructed in    0.1 sec

Total number of grid points                  ...    22584
Total number of batches                      ...      360
Average number of points per batch           ...       62
Average number of grid points per atom       ...     1129
Average number of shells per batch           ...    26.07 (65.17%)
Average number of basis functions per batch  ...    42.76 (71.27%)
Average number of large shells per batch     ...    19.45 (74.61%)
Average number of large basis fcns per batch ...    32.72 (76.52%)
Maximum spatial batch extension              ...  16.50, 21.02, 22.44 au
Average spatial batch extension              ...   3.25,  3.97,  5.12 au

done
  One-electron GIAO integrals             ... done
  Calculating G(B)[P]                     ... (RI-JK: P(aux)-ok JK-RI-ok) (add-J+K:ok) => dG/dB done
  DFT XC-terms                            ... done
  Extracting occupied and virtual blocks  ... 
  Operator  0  NO=  35 NV=  25 
  Transforming and RHS contribution       ... done
  Adding eps_i * S(B)_ai terms            ... done
  Projecting overlap derivatives          ... done
  Building G[dS/dB_ij] (Direct)           ... done
  Transforming to MO basis                ... done
  Summing G[dS/dB_ij] into RHS contribs.  ... done

  GIAO profiling information: 
    Total GIAO time               ...       2.1 sec
       GIAO 1-electron integrals  ...       0.0 sec (  0.7%)
       GIAO G(dS/dB) terms        ...       0.4 sec ( 20.0%)
       GIAO RI-JK                 ...       1.2 sec ( 58.9%)
       GIAO XC-terms              ...       0.2 sec ( 10.9%)

  GIAO right hand side done


------------------------------------------------------------------------------
                           ORCA CP-SCF CALCULATION
------------------------------------------------------------------------------

Input orbitals are from        ... dvb_nmr.gbw
Input Perturbation             ... dvb_nmr.pin.tmp
Wavefunction output            ... dvb_nmr.pout.tmp
Perturbation mode              ... Imaginary perturbation
Solver                         ... POPLE
Max. number of iterations      ... 64
Convergence tolerance          ... 1.000e-06
Integral handling              ... Direct
Number of perturbations        ... 3
Number of operators            ... 1
Orbital ranges used for CP-SCF:
 Operator 0:  Orbitals   0... 34  to  35... 59
DFT calculation                         ... on
Variables per vector in CP-SCF ... 875
Number of vectors sought       ... 3
     CP-SCF ITERATION   0: 
     CP-SCF ITERATION   1:      0.000181184086
     CP-SCF ITERATION   2:      0.000000230640

Forming final perturbed densities           ... done
Transforming perturbed density to AO basis  ... done

Magnetic field perturbation calculated in  3.303 sec

---------------
CHEMICAL SHIFTS
---------------

Note: using conversion factor for au to ppm alpha^2/2 =   26.625677252 
GIAO: Doing para- and diamagnetic shielding integrals analytically     ...done
 --------------
 Nucleus   0C :
 --------------

Diamagnetic contribution to the shielding tensor (ppm) : 
           267.122         -0.560         0.000
            -0.692        260.087         0.000
             0.000         -0.000       244.898

Paramagnetic contribution to the shielding tensor (ppm): 
          -217.451          5.103         0.000
             7.248       -179.998        -0.000
             0.000          0.000       -32.497

Total shielding tensor (ppm): 
            49.671          4.543         0.000
             6.557         80.090        -0.000
             0.000          0.000       212.401


 Diagonalized sT*s matrix:
 
 sDSO           267.113          260.096          244.898  iso=     257.369
 sPSO          -218.422         -179.027          -32.497  iso=    -143.315
        ---------------  ---------------  ---------------
 Total           48.692           81.069          212.401  iso=     114.054

 --------------
 Nucleus   1C :
 --------------

Diamagnetic contribution to the shielding tensor (ppm) : 
           267.122         -0.560         0.000
            -0.692        260.087        -0.000
             0.000          0.000       244.898

Paramagnetic contribution to the shielding tensor (ppm): 
          -217.451          5.103        -0.000
             7.248       -179.998        -0.000
            -0.000         -0.000       -32.497

Total shielding tensor (ppm): 
            49.671          4.543        -0.000
             6.557         80.090        -0.000
            -0.000         -0.000       212.401


 Diagonalized sT*s matrix:
 
 sDSO           267.113          260.096          244.898  iso=     257.369
 sPSO          -218.422         -179.027          -32.497  iso=    -143.315
        ---------------  ---------------  ---------------
 Total           48.692           81.069          212.401  iso=     114.054

 --------------
 Nucleus   2C :
 --------------

Diamagnetic contribution to the shielding tensor (ppm) : 
           266.968          2.153        -0.000
             2.138        259.515         0.000
             0.000         -0.000       243.740

Paramagnetic contribution to the shielding tensor (ppm): 
          -168.665         15.536        -0.000
            14.783       -210.561         0.000
            -0.000         -0.000       -37.836

Total shielding tensor (ppm): 
            98.303         17.689        -0.000
            16.921         48.954         0.000
            -0.000         -0.000       205.904


 Diagonalized sT*s matrix:
 
 sDSO           258.961          267.522          243.740  iso=     256.741
 sPSO          -215.470         -163.756          -37.836  iso=    -139.021
        ---------------  ---------------  ---------------
 Total           43.491          103.766          205.904  iso=     117.720

 --------------
 Nucleus   3C :
 --------------

Diamagnetic contribution to the shielding tensor (ppm) : 
           266.968          2.153         0.000
             2.138        259.515         0.000
             0.000          0.000       243.740

Paramagnetic contribution to the shielding tensor (ppm): 
          -168.665         15.536        -0.000
            14.783       -210.561         0.000
            -0.000          0.000       -37.836

Total shielding tensor (ppm): 
            98.303         17.689        -0.000
            16.921         48.954         0.000
            -0.000          0.000       205.904


 Diagonalized sT*s matrix:
 
 sDSO           258.961          267.522          243.740  iso=     256.741
 sPSO          -215.470         -163.756          -37.836  iso=    -139.021
        ---------------  ---------------  ---------------
 Total           43.491          103.766          205.904  iso=     117.720

 --------------
 Nucleus   4C :
 --------------

Diamagnetic contribution to the shielding tensor (ppm) : 
           265.574         -3.627        -0.000
            -3.696        261.196        -0.000
            -0.000         -0.000       245.266

Paramagnetic contribution to the shielding tensor (ppm): 
          -181.888        -27.061         0.000
           -24.565       -197.331        -0.000
            -0.000         -0.000       -29.233

Total shielding tensor (ppm): 
            83.687        -30.688         0.000
           -28.261         63.865        -0.000
            -0.000         -0.000       216.034


 Diagonalized sT*s matrix:
 
 sDSO           259.233          267.538          245.266  iso=     257.346
 sPSO          -216.549         -162.670          -29.233  iso=    -136.151
        ---------------  ---------------  ---------------
 Total           42.684          104.868          216.034  iso=     121.195

 --------------
 Nucleus   5C :
 --------------

Diamagnetic contribution to the shielding tensor (ppm) : 
           265.574         -3.627         0.000
            -3.696        261.196         0.000
             0.000         -0.000       245.266

Paramagnetic contribution to the shielding tensor (ppm): 
          -181.888        -27.061        -0.000
           -24.565       -197.331         0.000
             0.000          0.000       -29.233

Total shielding tensor (ppm): 
            83.687        -30.688        -0.000
           -28.261         63.865         0.000
             0.000          0.000       216.034


 Diagonalized sT*s matrix:
 
 sDSO           259.233          267.538          245.266  iso=     257.346
 sPSO          -216.549         -162.670          -29.233  iso=    -136.151
        ---------------  ---------------  ---------------
 Total           42.684          104.868          216.034  iso=     121.195

 --------------
 Nucleus   6H :
 --------------

Diamagnetic contribution to the shielding tensor (ppm) : 
            30.093         -4.395         0.000
            -4.525         41.533        -0.000
            -0.000         -0.000        28.803

Paramagnetic contribution to the shielding tensor (ppm): 
            -1.448          5.112         0.000
             5.282        -14.833         0.000
             0.000         -0.000        -7.443

Total shielding tensor (ppm): 
            28.645          0.718         0.000
             0.756         26.701         0.000
             0.000         -0.000        21.359


 Diagonalized sT*s matrix:
 
 sDSO            28.803           43.066           28.561  iso=      33.476
 sPSO            -7.443          -16.613            0.332  iso=      -7.908
        ---------------  ---------------  ---------------
 Total           21.359           26.453           28.893  iso=      25.568

 --------------
 Nucleus   7H :
 --------------

Diamagnetic contribution to the shielding tensor (ppm) : 
            30.093         -4.395         0.000
            -4.525         41.533        -0.000
             0.000         -0.000        28.803

Paramagnetic contribution to the shielding tensor (ppm): 
            -1.448          5.112         0.000
             5.282        -14.833        -0.000
            -0.000          0.000        -7.443

Total shielding tensor (ppm): 
            28.645          0.718         0.000
             0.756         26.701        -0.000
            -0.000          0.000        21.359


 Diagonalized sT*s matrix:
 
 sDSO            28.803           43.066           28.561  iso=      33.476
 sPSO            -7.443          -16.613            0.332  iso=      -7.908
        ---------------  ---------------  ---------------
 Total           21.359           26.453           28.893  iso=      25.568

 --------------
 Nucleus   8H :
 --------------

Diamagnetic contribution to the shielding tensor (ppm) : 
            35.037          6.423         0.000
             6.519         37.307         0.000
            -0.000         -0.000        32.328

Paramagnetic contribution to the shielding tensor (ppm): 
            -6.624         -7.578        -0.000
            -7.712        -10.638         0.000
             0.000         -0.000       -11.980

Total shielding tensor (ppm): 
            28.413         -1.155        -0.000
            -1.193         26.669         0.000
             0.000         -0.000        20.347


 Diagonalized sT*s matrix:
 
 sDSO            32.328           42.042           30.303  iso=      34.891
 sPSO           -11.980          -15.963           -1.299  iso=      -9.748
        ---------------  ---------------  ---------------
 Total           20.347           26.079           29.003  iso=      25.143

 --------------
 Nucleus   9H :
 --------------

Diamagnetic contribution to the shielding tensor (ppm) : 
            35.037          6.423        -0.000
             6.519         37.307        -0.000
             0.000         -0.000        32.328

Paramagnetic contribution to the shielding tensor (ppm): 
            -6.624         -7.578        -0.000
            -7.712        -10.638        -0.000
             0.000          0.000       -11.980

Total shielding tensor (ppm): 
            28.413         -1.155        -0.000
            -1.193         26.669        -0.000
             0.000          0.000        20.347


 Diagonalized sT*s matrix:
 
 sDSO            32.328           42.042           30.303  iso=      34.891
 sPSO           -11.980          -15.963           -1.299  iso=      -9.748
        ---------------  ---------------  ---------------
 Total           20.347           26.079           29.003  iso=      25.143

 --------------
 Nucleus  10C :
 --------------

Diamagnetic contribution to the shielding tensor (ppm) : 
           269.229          1.876        -0.000
             1.821        255.783        -0.000
             0.000         -0.000       228.345

Paramagnetic contribution to the shielding tensor (ppm): 
          -178.448         39.994        -0.000
            40.233       -192.581        -0.000
             0.000         -0.000       -34.100

Total shielding tensor (ppm): 
            90.782         41.870        -0.000
            42.055         63.202        -0.000
             0.000         -0.000       194.244


 Diagonalized sT*s matrix:
 
 sDSO           258.644          266.369          228.345  iso=     251.119
 sPSO          -225.822         -145.207          -34.100  iso=    -135.043
        ---------------  ---------------  ---------------
 Total           32.822          121.162          194.244  iso=     116.076

 --------------
 Nucleus  11C :
 --------------

Diamagnetic contribution to the shielding tensor (ppm) : 
           269.229          1.876        -0.000
             1.821        255.783         0.000
             0.000          0.000       228.345

Paramagnetic contribution to the shielding tensor (ppm): 
          -178.448         39.994        -0.000
            40.233       -192.581         0.000
            -0.000         -0.000       -34.100

Total shielding tensor (ppm): 
            90.782         41.870        -0.000
            42.055         63.202         0.000
            -0.000         -0.000       194.244


 Diagonalized sT*s matrix:
 
 sDSO           258.644          266.369          228.345  iso=     251.119
 sPSO          -225.822         -145.207          -34.100  iso=    -135.043
        ---------------  ---------------  ---------------
 Total           32.822          121.162          194.244  iso=     116.076

 --------------
 Nucleus  12H :
 --------------

Diamagnetic contribution to the shielding tensor (ppm) : 
            31.175         -4.495         0.000
            -4.209         40.292        -0.000
             0.000         -0.000        19.488

Paramagnetic contribution to the shielding tensor (ppm): 
            -2.183          6.940         0.000
             4.840        -13.623         0.000
            -0.000         -0.000         3.083

Total shielding tensor (ppm): 
            28.993          2.445         0.000
             0.631         26.669         0.000
            -0.000         -0.000        22.572


 Diagonalized sT*s matrix:
 
 sDSO            19.488           41.918           29.550  iso=      30.319
 sPSO             3.083          -16.013            0.207  iso=      -4.241
        ---------------  ---------------  ---------------
 Total           22.572           25.905           29.757  iso=      26.078

 --------------
 Nucleus  13H :
 --------------

Diamagnetic contribution to the shielding tensor (ppm) : 
            31.175         -4.495        -0.000
            -4.209         40.292         0.000
             0.000         -0.000        19.488

Paramagnetic contribution to the shielding tensor (ppm): 
            -2.183          6.940        -0.000
             4.840        -13.623         0.000
             0.000          0.000         3.083

Total shielding tensor (ppm): 
            28.993          2.445        -0.000
             0.631         26.669         0.000
             0.000         -0.000        22.572


 Diagonalized sT*s matrix:
 
 sDSO            19.488           41.918           29.550  iso=      30.319
 sPSO             3.083          -16.013            0.207  iso=      -4.241
        ---------------  ---------------  ---------------
 Total           22.572           25.905           29.757  iso=      26.078

 --------------
 Nucleus  14C :
 --------------

Diamagnetic contribution to the shielding tensor (ppm) : 
           264.505          4.614         0.000
             4.620        258.374        -0.000
             0.000         -0.000       230.001

Paramagnetic contribution to the shielding tensor (ppm): 
          -175.417         39.894        -0.000
            35.899       -174.566        -0.000
            -0.000         -0.000       -17.475

Total shielding tensor (ppm): 
            89.087         44.508        -0.000
            40.519         83.808        -0.000
            -0.000         -0.000       212.526


 Diagonalized sT*s matrix:
 
 sDSO           256.706          266.172          230.001  iso=     250.960
 sPSO          -212.843         -137.141          -17.475  iso=    -122.486
        ---------------  ---------------  ---------------
 Total           43.864          129.032          212.526  iso=     128.474

 --------------
 Nucleus  15C :
 --------------

Diamagnetic contribution to the shielding tensor (ppm) : 
           264.505          4.614         0.000
             4.620        258.374        -0.000
             0.000         -0.000       230.001

Paramagnetic contribution to the shielding tensor (ppm): 
          -175.417         39.894         0.000
            35.899       -174.566        -0.000
            -0.000         -0.000       -17.475

Total shielding tensor (ppm): 
            89.087         44.508         0.000
            40.519         83.808        -0.000
            -0.000         -0.000       212.526


 Diagonalized sT*s matrix:
 
 sDSO           256.706          266.172          230.001  iso=     250.960
 sPSO          -212.843         -137.141          -17.475  iso=    -122.486
        ---------------  ---------------  ---------------
 Total           43.864          129.032          212.526  iso=     128.474

 --------------
 Nucleus  16H :
 --------------

Diamagnetic contribution to the shielding tensor (ppm) : 
            30.356          0.144         0.000
             0.568         39.961         0.000
            -0.000         -0.000        25.646

Paramagnetic contribution to the shielding tensor (ppm): 
            -1.275          3.891        -0.000
             0.996        -12.595         0.000
             0.000         -0.000        -1.724

Total shielding tensor (ppm): 
            29.081          4.035        -0.000
             1.565         27.366         0.000
             0.000         -0.000        23.923


 Diagonalized sT*s matrix:
 
 sDSO            25.646           36.018           34.299  iso=      31.988
 sPSO            -1.724          -10.720           -3.150  iso=      -5.198
        ---------------  ---------------  ---------------
 Total           23.923           25.298           31.149  iso=      26.790

 --------------
 Nucleus  17H :
 --------------

Diamagnetic contribution to the shielding tensor (ppm) : 
            30.356          0.144        -0.000
             0.568         39.961         0.000
             0.000         -0.000        25.646

Paramagnetic contribution to the shielding tensor (ppm): 
            -1.275          3.891        -0.000
             0.996        -12.595         0.000
             0.000         -0.000        -1.724

Total shielding tensor (ppm): 
            29.081          4.035        -0.000
             1.565         27.366         0.000
             0.000         -0.000        23.923


 Diagonalized sT*s matrix:
 
 sDSO            25.646           36.018           34.299  iso=      31.988
 sPSO            -1.724          -10.720           -3.150  iso=      -5.198
        ---------------  ---------------  ---------------
 Total           23.923           25.298           31.149  iso=      26.790

 --------------
 Nucleus  18H :
 --------------

Diamagnetic contribution to the shielding tensor (ppm) : 
            42.540         -2.338        -0.000
            -2.793         26.339         0.000
             0.000          0.000        13.137

Paramagnetic contribution to the shielding tensor (ppm): 
           -13.185          3.611         0.000
             5.946          0.267         0.000
            -0.000         -0.000        12.274

Total shielding tensor (ppm): 
            29.355          1.273         0.000
             3.153         26.606         0.000
            -0.000         -0.000        25.411


 Diagonalized sT*s matrix:
 
 sDSO            32.069           13.137           36.810  iso=      27.339
 sPSO            -6.692           12.274           -6.226  iso=      -0.215
        ---------------  ---------------  ---------------
 Total           25.377           25.411           30.584  iso=      27.124

 --------------
 Nucleus  19H :
 --------------

Diamagnetic contribution to the shielding tensor (ppm) : 
            42.540         -2.338        -0.000
            -2.793         26.339         0.000
             0.000          0.000        13.137

Paramagnetic contribution to the shielding tensor (ppm): 
           -13.185          3.611         0.000
             5.946          0.267         0.000
            -0.000          0.000        12.274

Total shielding tensor (ppm): 
            29.355          1.273         0.000
             3.153         26.606         0.000
            -0.000          0.000        25.411


 Diagonalized sT*s matrix:
 
 sDSO            32.069           13.137           36.810  iso=      27.339
 sPSO            -6.692           12.274           -6.226  iso=      -0.215
        ---------------  ---------------  ---------------
 Total           25.377           25.411           30.584  iso=      27.124



--------------------------------
CHEMICAL SHIELDING SUMMARY (ppm)
--------------------------------


  Nucleus  Element    Isotropic     Anisotropy
  -------  -------  ------------   ------------
      0       C          114.054        147.521 
      1       C          114.054        147.521 
      2       C          117.720        132.276 
      3       C          117.720        132.276 
      4       C          121.195        142.258 
      5       C          121.195        142.258 
      6       H           25.568          4.987 
      7       H           25.568          4.987 
      8       H           25.143          5.790 
      9       H           25.143          5.790 
     10       C          116.076        117.252 
     11       C          116.076        117.252 
     12       H           26.078          5.519 
     13       H           26.078          5.519 
     14       C          128.474        126.078 
     15       C          128.474        126.078 
     16       H           26.790          6.539 
     17       H           26.790          6.539 
     18       H           27.124          5.190 
     19       H           27.124          5.190 



Timings for individual modules:

Sum of individual times         ...        9.273 sec (=   0.155 min)
GTO integral calculation        ...        0.153 sec (=   0.003 min)   1.7 %
SCF iterations                  ...        5.514 sec (=   0.092 min)  59.5 %
EPR/NMR calculation             ...        3.605 sec (=   0.060 min)  38.9 %
                             ****ORCA TERMINATED NORMALLY****
TOTAL RUN TIME: 0 days 0 hours 0 minutes 9 seconds 421 msec
