
                                 *****************
                                 * O   R   C   A *
                                 *****************

           --- An Ab Initio, DFT and Semiempirical electronic structure package ---

                  #######################################################
                  #                        -***-                        #
                  #          Department of theory and spectroscopy      #
                  #               Directorship: Frank Neese             #
                  #        Max Planck Institute fuer Kohlenforschung    #
                  #                Kaiser Wilhelm Platz 1               #
                  #                 D-45470 Muelheim/Ruhr               #
                  #                      Germany                        #
                  #                                                     #
                  #                  All rights reserved                #
                  #                        -***-                        #
                  #######################################################


                         Program Version 4.2.0 -  RELEASE  -


 With contributions from (in alphabetic order):
   Daniel Aravena         : Magnetic Suceptibility
   Michael Atanasov       : Ab Initio Ligand Field Theory (pilot matlab implementation)
   Alexander A. Auer      : GIAO ZORA, VPT2
   Ute Becker             : Parallelization
   Giovanni Bistoni       : ED, misc. LED, open-shell LED, HFLED
   Martin Brehm           : Molecular dynamics
   Dmytro Bykov           : SCF Hessian
   Vijay G. Chilkuri      : MRCI spin determinant printing, contributions to CSF-ICE
   Dipayan Datta          : RHF DLPNO-CCSD density
   Achintya Kumar Dutta   : EOM-CC, STEOM-CC
   Dmitry Ganyushin       : Spin-Orbit,Spin-Spin,Magnetic field MRCI
   Miquel Garcia          : C-PCM Hessian, Gaussian charge scheme
   Yang Guo               : DLPNO-NEVPT2, CIM, IAO-localization
   Andreas Hansen         : Spin unrestricted coupled pair/coupled cluster methods
   Benjamin Helmich-Paris : CASSCF linear response (MC-RPA)
   Lee Huntington         : MR-EOM, pCC
   Robert Izsak           : Overlap fitted RIJCOSX, COSX-SCS-MP3, EOM
   Christian Kollmar      : KDIIS, OOCD, Brueckner-CCSD(T), CCSD density
   Simone Kossmann        : Meta GGA functionals, TD-DFT gradient, OOMP2, MP2 Hessian
   Martin Krupicka        : AUTO-CI
   Lucas Lang             : DCDCAS
   Dagmar Lenk            : GEPOL surface, SMD
   Dimitrios Liakos       : Extrapolation schemes; Compound Job, initial MDCI parallelization
   Dimitrios Manganas     : Further ROCIS development; embedding schemes
   Dimitrios Pantazis     : SARC Basis sets
   Taras Petrenko         : DFT Hessian,TD-DFT gradient, ASA, ECA, R-Raman, ABS, FL, XAS/XES, NRVS
   Peter Pinski           : DLPNO-MP2, DLPNO-MP2 Gradient
   Christoph Reimann      : Effective Core Potentials
   Marius Retegan         : Local ZFS, SOC
   Christoph Riplinger    : Optimizer, TS searches, QM/MM, DLPNO-CCSD(T), (RO)-DLPNO pert. Triples
   Tobias Risthaus        : Range-separated hybrids, TD-DFT gradient, RPA, STAB
   Michael Roemelt        : Original ROCIS implementation
   Masaaki Saitow         : Open-shell DLPNO-CCSD energy and density
   Barbara Sandhoefer     : DKH picture change effects
   Avijit Sen             : IP-ROCIS
   Kantharuban Sivalingam : CASSCF convergence, NEVPT2, FIC-MRCI
   Bernardo de Souza      : ESD, SOC TD-DFT
   Georgi Stoychev        : AutoAux, RI-MP2 NMR
   Willem Van den Heuvel  : Paramagnetic NMR
   Boris Wezisla          : Elementary symmetry handling
   Frank Wennmohs         : Technical directorship


 We gratefully acknowledge several colleagues who have allowed us to
 interface, adapt or use parts of their codes:
   Stefan Grimme, W. Hujo, H. Kruse,             : VdW corrections, initial TS optimization,
                  C. Bannwarth                     DFT functionals, gCP, sTDA/sTD-DF
   Ed Valeev, F. Pavosevic, A. Kumar             : LibInt (2-el integral package), F12 methods
   Garnet Chan, S. Sharma, J. Yang, R. Olivares  : DMRG
   Ulf Ekstrom                                   : XCFun DFT Library
   Mihaly Kallay                                 : mrcc  (arbitrary order and MRCC methods)
   Andreas Klamt, Michael Diedenhofen            : otool_cosmo (COSMO solvation model)
   Jiri Pittner, Ondrej Demel                    : Mk-CCSD
   Frank Weinhold                                : gennbo (NPA and NBO analysis)
   Christopher J. Cramer and Donald G. Truhlar   : smd solvation model
   Lars Goerigk                                  : TD-DFT with DH, B97 family of functionals
   V. Asgeirsson, H. Jonsson                     : NEB implementation
   FAccTs GmbH                                   : IRC, NEB, NEB-TS, Multilevel, MM, QM/MM, CI optimization
   S Lehtola, MJT Oliveira, MAL Marques          : LibXC Library


 Your calculation uses the libint2 library for the computation of 2-el integrals
 For citations please refer to: http://libint.valeyev.net

 Your ORCA version has been built with support for libXC version: 4.2.3
 For citations please refer to: https://tddft.org/programs/libxc/

 This ORCA versions uses:
   CBLAS   interface :  Fast vector & matrix operations
   LAPACKE interface :  Fast linear algebra routines
   SCALAPACK package :  Parallel linear algebra routines


----- Orbital basis set information -----
Your calculation utilizes the basis: 6-31G
   H-He, Li-Ne : W. J. Hehre, R. Ditchfield and J.A. Pople, J. Chem. Phys. 56, 2257 (1972).
                 Note: He and Ne are unpublished basis sets taken from the Gaussian program.
                 Note: Li and B from J. D. Dill and J. A. Pople, J. Chem. Phys. 62, 2921 (1975).
   Na - Ar     : M. M. Francl, W. J. Pietro, W. J. Hehre, J. S. Binkley, M. S. Gordon, 
                 D. J. DeFrees and J. A. Pople, J. Chem. Phys. 77, 3654 (1982).
   K - Zn      : V. A. Rassolov, J. A. Pople, M. A. Ratner, and T. L. Windus, J. Chem. Phys. 109, 1223 (1998).

================================================================================
                                        WARNINGS
                       Please study these warnings very carefully!
================================================================================


INFO   : the flag for use of LIBINT has been found!

================================================================================
                                       INPUT FILE
================================================================================
NAME = water_mp3.inp
|  1> ! MP3 6-31G
|  2> 
|  3> %pal nprocs 4 end
|  4> 
|  5> %scf ConvForced True end
|  6> 
|  7> *xyz 0 1
|  8>   O      1.784914    1.262422    0.511985
|  9>   H      2.648237    1.072929    0.131631
| 10>   H      1.183168    1.256816   -0.238835
| 11> *
| 12> 
| 13>                          ****END OF INPUT****
================================================================================

                       ****************************
                       * Single Point Calculation *
                       ****************************

---------------------------------
CARTESIAN COORDINATES (ANGSTROEM)
---------------------------------
  O      1.784914    1.262422    0.511985
  H      2.648237    1.072929    0.131631
  H      1.183168    1.256816   -0.238835

----------------------------
CARTESIAN COORDINATES (A.U.)
----------------------------
  NO LB      ZA    FRAG     MASS         X           Y           Z
   0 O     8.0000    0    15.999    3.372999    2.385632    0.967511
   1 H     1.0000    0     1.008    5.004443    2.027542    0.248747
   2 H     1.0000    0     1.008    2.235863    2.375038   -0.451333

--------------------------------
INTERNAL COORDINATES (ANGSTROEM)
--------------------------------
 O      0   0   0     0.000000000000     0.00000000     0.00000000
 H      1   0   0     0.962238725418     0.00000000     0.00000000
 H      1   2   0     0.962216372835   104.56643206     0.00000000

---------------------------
INTERNAL COORDINATES (A.U.)
---------------------------
 O      0   0   0     0.000000000000     0.00000000     0.00000000
 H      1   0   0     1.818367666493     0.00000000     0.00000000
 H      1   2   0     1.818325426233   104.56643206     0.00000000

---------------------
BASIS SET INFORMATION
---------------------
There are 2 groups of distinct atoms

 Group   1 Type O   : 10s4p contracted to 3s2p pattern {631/31}
 Group   2 Type H   : 4s contracted to 2s pattern {31}

Atom   0O    basis set group =>   1
Atom   1H    basis set group =>   2
Atom   2H    basis set group =>   2


           ************************************************************
           *        Program running with 4 parallel MPI-processes     *
           *              working on a common directory               *
           ************************************************************
------------------------------------------------------------------------------
                           ORCA GTO INTEGRAL CALCULATION
------------------------------------------------------------------------------

                         BASIS SET STATISTICS AND STARTUP INFO

 # of primitive gaussian shells          ...   22
 # of primitive gaussian functions       ...   30
 # of contracted shells                  ...    9
 # of contracted basis functions         ...   13
 Highest angular momentum                ...    1
 Maximum contraction depth               ...    6
 Integral package used                   ... LIBINT
 Integral threshhold            Thresh   ...  1.000e-10
 Primitive cut-off              TCut     ...  1.000e-11


------------------------------ INTEGRAL EVALUATION ----------------------------


 * One electron integrals 
 Pre-screening matrix                    ... done
 Shell pair data                         ... done (   0.000 sec)



           ************************************************************
           *        Program running with 4 parallel MPI-processes     *
           *              working on a common directory               *
           ************************************************************
-------------------------------------------------------------------------------
                                 ORCA SCF
-------------------------------------------------------------------------------

------------
SCF SETTINGS
------------
Hamiltonian:
 Ab initio Hamiltonian  Method          .... Hartree-Fock(GTOs)


General Settings:
 Integral files         IntName         .... water_mp3
 Hartree-Fock type      HFTyp           .... RHF
 Total Charge           Charge          ....    0
 Multiplicity           Mult            ....    1
 Number of Electrons    NEL             ....   10
 Basis Dimension        Dim             ....   13
 Nuclear Repulsion      ENuc            ....      9.1468129872 Eh

Convergence Acceleration:
 DIIS                   CNVDIIS         .... on
   Start iteration      DIISMaxIt       ....    12
   Startup error        DIISStart       ....  0.200000
   # of expansion vecs  DIISMaxEq       ....     5
   Bias factor          DIISBfac        ....   1.050
   Max. coefficient     DIISMaxC        ....  10.000
 Newton-Raphson         CNVNR           .... off
 SOSCF                  CNVSOSCF        .... on
   Start iteration      SOSCFMaxIt      ....   150
   Startup grad/error   SOSCFStart      ....  0.003300
 Level Shifting         CNVShift        .... on
   Level shift para.    LevelShift      ....    0.2500
   Turn off err/grad.   ShiftErr        ....    0.0010
 Zerner damping         CNVZerner       .... off
 Static damping         CNVDamp         .... on
   Fraction old density DampFac         ....    0.7000
   Max. Damping (<1)    DampMax         ....    0.9800
   Min. Damping (>=0)   DampMin         ....    0.0000
   Turn off err/grad.   DampErr         ....    0.1000
 Fernandez-Rico         CNVRico         .... off

SCF Procedure:
 Maximum # iterations   MaxIter         ....   125
 SCF integral mode      SCFMode         .... Direct
   Integral package                     .... LIBINT
 Reset frequency        DirectResetFreq ....    20
 Integral Threshold     Thresh          ....  1.000e-10 Eh
 Primitive CutOff       TCut            ....  1.000e-11 Eh

Convergence Tolerance:
 Convergence Check Mode ConvCheckMode   .... Total+1el-Energy
 Convergence forced     ConvForced      .... 1
 Energy Change          TolE            ....  1.000e-06 Eh
 1-El. energy change                    ....  1.000e-03 Eh
 Orbital Gradient       TolG            ....  5.000e-05
 Orbital Rotation angle TolX            ....  5.000e-05
 DIIS Error             TolErr          ....  1.000e-06


Diagonalization of the overlap matrix:
Smallest eigenvalue                        ... 6.847e-02
Time for diagonalization                   ...    0.000 sec
Threshold for overlap eigenvalues          ... 1.000e-08
Number of eigenvalues below threshold      ... 0
Time for construction of square roots      ...    0.011 sec
Total time needed                          ...    0.011 sec

-------------------
DFT GRID GENERATION
-------------------

General Integration Accuracy     IntAcc      ...  4.340
Radial Grid Type                 RadialGrid  ... Gauss-Chebyshev
Angular Grid (max. acc.)         AngularGrid ... Lebedev-110
Angular grid pruning method      GridPruning ... 3 (G Style)
Weight generation scheme         WeightScheme... Becke
Basis function cutoff            BFCut       ...    1.0000e-10
Integration weight cutoff        WCut        ...    1.0000e-14
Grids for H and He will be reduced by one unit

# of grid points (after initial pruning)     ...   3304 (   0.0 sec)
# of grid points (after weights+screening)   ...   3279 (   0.0 sec)
nearest neighbour list constructed           ...    0.0 sec
Grid point re-assignment to atoms done       ...    0.0 sec
Grid point division into batches done        ...    0.0 sec
Reduced shell lists constructed in    0.0 sec

Total number of grid points                  ...     3279
Total number of batches                      ...       53
Average number of points per batch           ...       61
Average number of grid points per atom       ...     1093
Average number of shells per batch           ...     8.00 (88.89%)
Average number of basis functions per batch  ...    11.60 (89.23%)
Average number of large shells per batch     ...     7.73 (96.67%)
Average number of large basis fcns per batch ...    11.33 (97.70%)
Maximum spatial batch extension              ...  15.12, 16.41, 14.11 au
Average spatial batch extension              ...   1.41,  1.49,  1.38 au

Time for grid setup =    0.020 sec

------------------------------
INITIAL GUESS: MODEL POTENTIAL
------------------------------
Loading Hartree-Fock densities                     ... done
Calculating cut-offs                               ... done
Setting up the integral package                    ... done
Initializing the effective Hamiltonian             ... done
Starting the Coulomb interaction                   ... done (   0.0 sec)
Reading the grid                                   ... done
Mapping shells                                     ... done
Starting the XC term evaluation                    ... done (   0.0 sec)
Transforming the Hamiltonian                       ... done (   0.0 sec)
Diagonalizing the Hamiltonian                      ... done (   0.0 sec)
Back transforming the eigenvectors                 ... done (   0.0 sec)
Now organizing SCF variables                       ... done
                      ------------------
                      INITIAL GUESS DONE (   0.2 sec)
                      ------------------
--------------
SCF ITERATIONS
--------------
ITER       Energy         Delta-E        Max-DP      RMS-DP      [F,P]     Damp
               ***  Starting incremental Fock matrix formation  ***
  0    -75.8870287663   0.000000000000 0.06855445  0.01158603  0.3201193 0.7000
  1    -75.9251150549  -0.038086288622 0.04763710  0.00791017  0.1932583 0.7000
                               ***Turning on DIIS***
  2    -75.9453780505  -0.020262995550 0.02795248  0.00435158  0.1068688 0.7000
  3    -76.1145010109  -0.169122960473 0.04447106  0.00606067  0.0590238 0.0000
  4    -75.9628275847   0.151673426256 0.00902050  0.00129857  0.0148378 0.0000
                      *** Initiating the SOSCF procedure ***
                           *** Shutting down DIIS ***
                      *** Re-Reading the Fockian *** 
                      *** Removing any level shift *** 
ITER      Energy       Delta-E        Grad      Rot      Max-DP    RMS-DP
  5    -75.98661913  -0.0237915498  0.001730  0.001730  0.002076  0.000380
               *** Restarting incremental Fock matrix formation ***
  6    -75.98390058   0.0027185586  0.000564  0.000685  0.000767  0.000179
  7    -75.98390289  -0.0000023135  0.000350  0.000455  0.000836  0.000129
  8    -75.98390333  -0.0000004404  0.000107  0.000053  0.000130  0.000020
                 **** Energy Check signals convergence ****
              ***Rediagonalizing the Fockian in SOSCF/NRSCF***

               *****************************************************
               *                     SUCCESS                       *
               *           SCF CONVERGED AFTER   9 CYCLES          *
               *****************************************************


----------------
TOTAL SCF ENERGY
----------------

Total Energy       :          -75.98390336 Eh           -2067.62713 eV

Components:
Nuclear Repulsion  :            9.14681299 Eh             248.89744 eV
Electronic Energy  :          -85.13071634 Eh           -2316.52456 eV
One Electron Energy:         -122.89468004 Eh           -3344.13426 eV
Two Electron Energy:           37.76396369 Eh            1027.60969 eV

Virial components:
Potential Energy   :         -151.96032335 Eh           -4135.05062 eV
Kinetic Energy     :           75.97641999 Eh            2067.42349 eV
Virial Ratio       :            2.00009850


---------------
SCF CONVERGENCE
---------------

  Last Energy change         ...   -2.5469e-08  Tolerance :   1.0000e-06
  Last MAX-Density change    ...    3.4251e-05  Tolerance :   1.0000e-05
  Last RMS-Density change    ...    4.3393e-06  Tolerance :   1.0000e-06
  Last Orbital Gradient      ...    2.8560e-05  Tolerance :   5.0000e-05
  Last Orbital Rotation      ...    1.9518e-05  Tolerance :   5.0000e-05

             **** THE GBW FILE WAS UPDATED (water_mp3.gbw) ****
             **** DENSITY FILE WAS UPDATED (water_mp3.scfp) ****
             **** ENERGY FILE WAS UPDATED (water_mp3.en.tmp) ****
             **** THE GBW FILE WAS UPDATED (water_mp3.gbw) ****
             **** DENSITY FILE WAS UPDATED (water_mp3.scfp) ****
----------------
ORBITAL ENERGIES
----------------

  NO   OCC          E(Eh)            E(eV) 
   0   2.0000     -20.561403      -559.5042 
   1   2.0000      -1.353679       -36.8355 
   2   2.0000      -0.707508       -19.2523 
   3   2.0000      -0.559807       -15.2331 
   4   2.0000      -0.501106       -13.6358 
   5   0.0000       0.202618         5.5135 
   6   0.0000       0.298511         8.1229 
   7   0.0000       1.056054        28.7367 
   8   0.0000       1.164462        31.6866 
   9   0.0000       1.180474        32.1223 
  10   0.0000       1.215697        33.0808 
  11   0.0000       1.377959        37.4962 
  12   0.0000       1.695718        46.1428 

                    ********************************
                    * MULLIKEN POPULATION ANALYSIS *
                    ********************************

-----------------------
MULLIKEN ATOMIC CHARGES
-----------------------
   0 O :   -0.792965
   1 H :    0.396483
   2 H :    0.396482
Sum of atomic charges:   -0.0000000

--------------------------------
MULLIKEN REDUCED ORBITAL CHARGES
--------------------------------
  0 O s       :     3.895115  s :     3.895115
      pz      :     1.619514  p :     4.897850
      px      :     1.299113
      py      :     1.979224
  1 H s       :     0.603517  s :     0.603517
  2 H s       :     0.603518  s :     0.603518


                     *******************************
                     * LOEWDIN POPULATION ANALYSIS *
                     *******************************

----------------------
LOEWDIN ATOMIC CHARGES
----------------------
   0 O :   -0.583283
   1 H :    0.291644
   2 H :    0.291639

-------------------------------
LOEWDIN REDUCED ORBITAL CHARGES
-------------------------------
  0 O s       :     3.641265  s :     3.641265
      pz      :     1.631911  p :     4.942018
      px      :     1.330093
      py      :     1.980014
  1 H s       :     0.708356  s :     0.708356
  2 H s       :     0.708361  s :     0.708361


                      *****************************
                      * MAYER POPULATION ANALYSIS *
                      *****************************

  NA   - Mulliken gross atomic population
  ZA   - Total nuclear charge
  QA   - Mulliken gross atomic charge
  VA   - Mayer's total valence
  BVA  - Mayer's bonded valence
  FA   - Mayer's free valence

  ATOM       NA         ZA         QA         VA         BVA        FA
  0 O      8.7930     8.0000    -0.7930     1.6058     1.6058    -0.0000
  1 H      0.6035     1.0000     0.3965     0.8042     0.8042    -0.0000
  2 H      0.6035     1.0000     0.3965     0.8042     0.8042    -0.0000

  Mayer bond orders larger than 0.100000
B(  0-O ,  1-H ) :   0.8029 B(  0-O ,  2-H ) :   0.8029 

-------
TIMINGS
-------

Total SCF time: 0 days 0 hours 0 min 1 sec 

Total time                  ....       1.442 sec
Sum of individual times     ....       1.156 sec  ( 80.1%)

Fock matrix formation       ....       0.952 sec  ( 66.0%)
Diagonalization             ....       0.001 sec  (  0.0%)
Density matrix formation    ....       0.011 sec  (  0.7%)
Population analysis         ....       0.001 sec  (  0.0%)
Initial guess               ....       0.165 sec  ( 11.4%)
Orbital Transformation      ....       0.000 sec  (  0.0%)
Orbital Orthonormalization  ....       0.000 sec  (  0.0%)
DIIS solution               ....       0.007 sec  (  0.5%)
SOSCF solution              ....       0.001 sec  (  0.0%)


           ************************************************************
           *        Program running with 4 parallel MPI-processes     *
           *              working on a common directory               *
           ************************************************************


------------------------------------------------------------------------------- 
                              ORCA-MATRIX DRIVEN CI                            
------------------------------------------------------------------------------- 

--------------------------------
AUTOMATIC CHOICE OF INCORE LEVEL
--------------------------------

Memory available                           ...    256.00 MB
Memory needed for S+T                      ...      0.01 MB
Memory needed for J+K                      ...      0.02 MB
Memory needed for DIIS                     ...      0.14 MB
Memory needed for 3-ext                    ...      0.02 MB
Memory needed for 4-ext                    ...      0.02 MB
Memory needed for triples                  ...      0.00 MB
 -> Final InCoreLevel    ... 5

Wavefunction type
-----------------
Correlation treatment                      ...      MP       
Order of perturbation theory               ... 3
Single excitations                         ... OFF
Orbital optimization                       ... OFF
Calculation of Brueckner orbitals          ... OFF
Perturbative triple excitations            ... OFF
Calculation of F12 correction              ... OFF
Frozen core treatment                      ... chemical core (2 el)
Reference Wavefunction                     ... RHF
  Internal Orbitals:     1 ...    4 (  4 MO's/  8 electrons)
  Virtual  Orbitals:     5 ...   12 (  8 MO's              )
Number of AO's                             ...     13
Number of electrons                        ...     10
Number of correlated electrons             ...      8

Algorithmic settings
--------------------
Integral transformation                    ... AO direct full transformation
K(C) Formation                             ... FULL-MO TRAFO
Maximum number of iterations               ...        50
Convergence tolerance (max. residuum)      ... 2.500e-05
Level shift for amplitude update           ... 2.000e-01
Maximum number of DIIS vectors             ...         7
DIIS turned on at iteration                ...         0
Damping before turning on DIIS             ...     0.500
Damping after turning on DIIS              ...     0.000
Pair specific amplitude update             ... OFF
Natural orbital iterations                 ... OFF
Perturbative natural orbital generation    ... OFF
Printlevel                                 ... 2

Memory handling:
----------------
Maximum memory for working arrays          ...    256 MB
Data storage in matrix containers          ... UNCOMPRESSED
Data type for integral storage             ... DOUBLE
In-Core Storage of quantities:
   Amplitudes+Sigma Vector      ... YES
   J+K operators                ... YES
   DIIS vectors                 ... YES
   3-external integrals         ... YES
   4-external integrals         ... YES


Initializing the integral package          ... done
Warning: reference  - re-canonicalizations have been set to INT 1 VIRT 1

--------------------------
CLOSED-SHELL FOCK OPERATOR
--------------------------

<ss|ss>:          406 b            0 skpd (  0.0%)    0.000 s ( 0.001 ms/b)
<ss|sp>:          392 b            0 skpd (  0.0%)    0.000 s ( 0.001 ms/b)
<ss|pp>:           84 b            0 skpd (  0.0%)    0.000 s ( 0.002 ms/b)
<sp|sp>:          105 b            0 skpd (  0.0%)    0.000 s ( 0.001 ms/b)
<sp|pp>:           42 b            0 skpd (  0.0%)    0.000 s ( 0.002 ms/b)
<pp|pp>:            6 b            0 skpd (  0.0%)    0.000 s ( 0.007 ms/b)
Recanonicalizing the internal orbitals
<pp|**>: <sp|**>: <ss|**>: Recanonicalizing the virtual orbitals
Time needed for Fock operator              ...            0.048 sec
Reference energy                           ...    -75.983903357

------------------------------
PARTIAL COULOMB TRANSFORMATION
------------------------------

Transformation type                        ... one-operator
Dimension of the basis                     ...   13
Number of internal MOs                     ...   12 (1-12)
Pair cutoff                                ... 0.000e+00 Eh
Number of AO pairs included in the trafo   ...   91
Total Number of distinct AO pairs          ...   91
Memory devoted for trafo                   ...  256.0 MB 
Max. Number of MO pairs treated together   ... 368730      
Max. Number of MOs treated per batch       ... 28363      
Number Format for Storage                  ... Double (8 Byte)
AO-integral source                         ... DIRECT
Integral package used                      ... LIBINT

Starting integral evaluation:
        1260 b        0 skpd     0.001 s (  0.001 ms/b)
         630 b        0 skpd     0.001 s (  0.002 ms/b)
         135 b        0 skpd     0.000 s (  0.003 ms/b)
Closing buffer AOJ ( 0.00 GB; CompressionRatio= 0.98)
Collecting buffer AOJ 
    ... done with AO integral generation
Number of MO pairs included in the trafo   ...   78
    ... Now sorting integrals
IBATCH = 1 of  1
Closing buffer JAO ( 0.00 GB; CompressionRatio= 0.98)
Collecting buffer JAO 
TOTAL TIME for half transformation         ...     0.003 sec
AO-integral generation                     ...     0.002 sec
Half transformation                        ...     0.000 sec
J-integral sorting                         ...     0.000 sec

-------------------------- SECOND HALF TRANSFORMATION -------------------------
Formation of (pq|rs)                       ... ok (     0.001 sec)
Integral sorting                           ... ok (     0.007 sec)

----------------------
MOELLER-PLESSET THEORY
----------------------

Making MP2 energy and amplitudes       ...     0.000 sec
Number of amplitudes                   ... 640
Forming H*T(1)                         ...     0.022 sec
E(MP2)  =    -76.112119775   EC(MP2)=    -0.128216417
E(MP3)  =    -76.113783480   EC(MP3)=    -0.129880122  E3=    -0.001663705
------------------
LARGEST AMPLITUDES
------------------
   4->  8   4->  8       0.047740
   2->  6   2->  6       0.035608
   3-> 10   3-> 10       0.031630
   4->  8   3-> 10       0.028520
   4->  8   2-> 11       0.026490
   2-> 11   2-> 11       0.026128
   4->  8   2->  6       0.026056
   2->  7   2->  7       0.022792
   2->  6   2-> 11       0.022123
   2-> 11   2->  6       0.022123
   2->  9   2->  9       0.019669
   4->  8   1-> 12       0.019186
   4->  8   3->  9       0.019081
   3->  9   3->  9       0.019071
   3->  5   2->  6       0.018868
   3-> 10   2-> 11       0.018857



------------------------------------------------------------------------------- 
                                     TIMINGS                                   
------------------------------------------------------------------------------- 


Total execution time                   ...        0.233 sec

Fock Matrix Formation                  ...        0.048 sec ( 20.7%)
Initial Guess                          ...        0.000 sec (  0.1%)
Sigma-vector construction              ...        0.022 sec (  9.3%)
  <D|H|D>(2-ext Fock)                  ...        0.017 sec ( 78.8% of sigma)
  <D|H|D>(4-ext)                       ...        0.001 sec (  6.1% of sigma)
  Pair energies                        ...        0.003 sec ( 13.1% of sigma)


-------------------------   --------------------
FINAL SINGLE POINT ENERGY       -76.113783479699
-------------------------   --------------------


                            ***************************************
                            *     ORCA property calculations      *
                            ***************************************

                                    ---------------------
                                    Active property flags
                                    ---------------------
   (+) Dipole Moment


------------------------------------------------------------------------------
                       ORCA ELECTRIC PROPERTIES CALCULATION
------------------------------------------------------------------------------

Dipole Moment Calculation                       ... on
Quadrupole Moment Calculation                   ... off
Polarizability Calculation                      ... off
GBWName                                         ... water_mp3.gbw
Electron density file                           ... water_mp3.scfp
The origin for moment calculation is the CENTER OF MASS  = ( 3.400657,  2.365003  0.847905)

-------------
DIPOLE MOMENT
-------------
                                X             Y             Z
Electronic contribution:      0.01227      -0.00916      -0.05310
Nuclear contribution   :      0.21773      -0.16239      -0.94154
                        -----------------------------------------
Total Dipole Moment    :      0.22999      -0.17155      -0.99464
                        -----------------------------------------
Magnitude (a.u.)       :      1.03520
Magnitude (Debye)      :      2.63127



--------------------
Rotational spectrum 
--------------------
 
Rotational constants in cm-1:    27.172637    14.432751     9.426085 
Rotational constants in MHz : 814615.168427 432682.991980 282586.906303 

 Dipole components along the rotational axes: 
x,y,z [a.u.] :     0.000041    -1.035202    -0.000001 
x,y,z [Debye]:     0.000105    -2.631274    -0.000002 

 

Timings for individual modules:

Sum of individual times         ...        8.906 sec (=   0.148 min)
GTO integral calculation        ...        3.220 sec (=   0.054 min)  36.2 %
SCF iterations                  ...        2.803 sec (=   0.047 min)  31.5 %
MDCI module                     ...        2.883 sec (=   0.048 min)  32.4 %
                             ****ORCA TERMINATED NORMALLY****
TOTAL RUN TIME: 0 days 0 hours 0 minutes 10 seconds 81 msec
