      -----------------------------------------------------------      
     |                   =====================                   |     
     |                           x T B                           |     
     |                   =====================                   |     
     |                         S. Grimme                         |     
     |          Mulliken Center for Theoretical Chemistry        |     
     |                    University of Bonn                     |     
      -----------------------------------------------------------      

   * xtb version 6.6.1 (8d0f1dd) compiled by 'conda@1efc2f54142f' on 2023-08-01

   xtb is free software: you can redistribute it and/or modify it under
   the terms of the GNU Lesser General Public License as published by
   the Free Software Foundation, either version 3 of the License, or
   (at your option) any later version.
   
   xtb is distributed in the hope that it will be useful,
   but WITHOUT ANY WARRANTY; without even the implied warranty of
   MERCHANTABILITY or FITNESS FOR A PARTICULAR PURPOSE.  See the
   GNU Lesser General Public License for more details.
   
   Cite this work as:
   * C. Bannwarth, E. Caldeweyher, S. Ehlert, A. Hansen, P. Pracht,
     J. Seibert, S. Spicher, S. Grimme, WIREs Comput. Mol. Sci., 2020, 11,
     e01493. DOI: 10.1002/wcms.1493
   
   for GFN2-xTB:
   * C. Bannwarth, S. Ehlert and S. Grimme., J. Chem. Theory Comput., 2019,
     15, 1652-1671. DOI: 10.1021/acs.jctc.8b01176
   for GFN1-xTB:
   * S. Grimme, C. Bannwarth, P. Shushkov, J. Chem. Theory Comput., 2017,
     13, 1989-2009. DOI: 10.1021/acs.jctc.7b00118
   for GFN0-xTB:
   * P. Pracht, E. Caldeweyher, S. Ehlert, S. Grimme, ChemRxiv, 2019, preprint.
     DOI: 10.26434/chemrxiv.8326202.v1
   for GFN-FF:
   * S. Spicher and S. Grimme, Angew. Chem. Int. Ed., 2020, 59, 15665-15673.
     DOI: 10.1002/anie.202004239
   
   for ALPB and GBSA implicit solvation:
   * S. Ehlert, M. Stahn, S. Spicher, S. Grimme, J. Chem. Theory Comput.,
     2021, 17, 4250-4261. DOI: 10.1021/acs.jctc.1c00471
   
   for DFT-D4:
   * E. Caldeweyher, C. Bannwarth and S. Grimme, J. Chem. Phys., 2017,
     147, 034112. DOI: 10.1063/1.4993215
   * E. Caldeweyher, S. Ehlert, A. Hansen, H. Neugebauer, S. Spicher,
     C. Bannwarth and S. Grimme, J. Chem. Phys., 2019, 150, 154122.
     DOI: 10.1063/1.5090222
   * E. Caldeweyher, J.-M. Mewes, S. Ehlert and S. Grimme, Phys. Chem. Chem. Phys.
     2020, 22, 8499-8512. DOI: 10.1039/D0CP00502A
   
   for sTDA-xTB:
   * S. Grimme and C. Bannwarth, J. Chem. Phys., 2016, 145, 054103.
     DOI: 10.1063/1.4959605
   
   in the mass-spec context:
   * V. Asgeirsson, C. Bauer and S. Grimme, Chem. Sci., 2017, 8, 4879.
     DOI: 10.1039/c7sc00601b
   * J. Koopman and S. Grimme, ACS Omega 2019, 4, 12, 15120-15133.
     DOI: 10.1021/acsomega.9b02011
   
   for metadynamics refer to:
   * S. Grimme, J. Chem. Theory Comput., 2019, 155, 2847-2862
     DOI: 10.1021/acs.jctc.9b00143
   
   for SPH calculations refer to:
   * S. Spicher and S. Grimme, J. Chem. Theory Comput., 2021, 17, 1701-1714
     DOI: 10.1021/acs.jctc.0c01306
   
   with help from (in alphabetical order)
   P. Atkinson, C. Bannwarth, F. Bohle, G. Brandenburg, E. Caldeweyher
   M. Checinski, S. Dohm, S. Ehlert, S. Ehrlich, I. Gerasimov, C. Hölzer
   A. Katbashev, J. Koopman, C. Lavigne, S. Lehtola, F. März, M. Müller,
   F. Musil, H. Neugebauer, J. Pisarek, C. Plett, P. Pracht, F. Pultar,
   J. Seibert, P. Shushkov, S. Spicher, M. Stahn, M. Steiner, T. Strunk,
   J. Stückrath, T. Rose, and J. Unsleber
   
 * started run on 2026/07/01 at 11:19:17.155     

           -------------------------------------------------
          |                Calculation Setup                |
           -------------------------------------------------

          program call               : xtb water_solvent_gbsa.xyz --gbsa toluene
          coordinate file            : water_solvent_gbsa.xyz
          omp threads                :                    16

   ID    Z sym.   atoms
    1    8 O      1
    2    1 H      2, 3

           -------------------------------------------------
          |                 G F N 2 - x T B                 |
           -------------------------------------------------

        Reference                      10.1021/acs.jctc.8b01176
      * Hamiltonian:
        H0-scaling (s, p, d)           1.850000    2.230000    2.230000
        zeta-weighting                 0.500000
      * Dispersion:
        s8                             2.700000
        a1                             0.520000
        a2                             5.000000
        s9                             5.000000
      * Repulsion:
        kExp                           1.500000    1.000000
        rExp                           1.000000
      * Coulomb:
        alpha                          2.000000
        third order                    shell-resolved
        anisotropic                    true
        a3                             3.000000
        a5                             4.000000
        cn-shift                       1.200000
        cn-exp                         4.000000
        max-rad                        5.000000

      * Solvation model:               GBSA
        Solvent                        toluene
        Parameter file                 internal GFN2-xTB/GBSA
        Dielectric constant                7.0000E+00
        Reference state                gsolv [1 M gas/solution]
        Free energy shift                  4.5239E-03 Eh       2.8388E+00 kcal/mol
        Temperature                        2.9815E+02 K
        Density                            8.6700E-01 kg/L
        Solvent mass                       9.2140E+01 g/mol
        Interaction kernel             Still
        Born radius scaling (c1)           1.5686E+00
        Born radii integrator          GBOBC
        Born offset                        0.0000E+00 a0       0.0000E+00 AA
        H-bond correction              false
        Ion screening                  false
        Surface tension                    1.0000E-05 Eh       1.5569E+01 dyn/cm
        Grid points                               230 per atom

          ...................................................
          :                      SETUP                      :
          :.................................................:
          :  # basis functions                   6          :
          :  # atomic orbitals                   6          :
          :  # shells                            4          :
          :  # electrons                         8          :
          :  max. iterations                   250          :
          :  Hamiltonian                  GFN2-xTB          :
          :  restarted?                      false          :
          :  GBSA solvation                   true          :
          :  PC potential                    false          :
          :  electronic temp.          300.0000000     K    :
          :  accuracy                    1.0000000          :
          :  -> integral cutoff          0.2500000E+02      :
          :  -> integral neglect         0.1000000E-07      :
          :  -> SCF convergence          0.1000000E-05 Eh   :
          :  -> wf. convergence          0.1000000E-03 e    :
          :  Broyden damping             0.4000000          :
          ...................................................

 iter      E             dE          RMSdq      gap      omega  full diag
   1     -5.0940857 -0.509409E+01  0.421E+00   13.80       0.0  T
   2     -5.0962801 -0.219447E-02  0.234E+00   13.42       1.0  T
   3     -5.0966569 -0.376763E-03  0.467E-01   13.12       1.0  T
   4     -5.0967235 -0.666481E-04  0.103E-01   13.27       1.0  T
   5     -5.0967271 -0.358337E-05  0.696E-02   13.22       1.0  T
   6     -5.0967303 -0.315209E-05  0.101E-03   13.24      57.3  T
   7     -5.0967303  0.804254E-09  0.115E-03   13.24      50.2  T
   8     -5.0967303 -0.837218E-09  0.269E-05   13.24    2145.8  T
   9     -5.0967303 -0.461853E-12  0.227E-07   13.24  100000.0  T

   *** convergence criteria satisfied after 9 iterations ***

         #    Occupation            Energy/Eh            Energy/eV
      -------------------------------------------------------------
         1        2.0000           -0.6801874             -18.5088
         2        2.0000           -0.5668868             -15.4258
         3        2.0000           -0.5145625             -14.0020
         4        2.0000           -0.4489520             -12.2166 (HOMO)
         5                          0.0376977               1.0258 (LUMO)
         6                          0.1885739               5.1314
      -------------------------------------------------------------
                  HL-Gap            0.4866497 Eh           13.2424 eV
             Fermi-level           -0.2056272 Eh           -5.5954 eV

 SCC (total)                   0 d,  0 h,  0 min,  0.001 sec
 SCC setup                      ...        0 min,  0.000 sec (  8.767%)
 Dispersion                     ...        0 min,  0.000 sec (  5.333%)
 classical contributions        ...        0 min,  0.000 sec (  1.378%)
 integral evaluation            ...        0 min,  0.000 sec (  6.226%)
 iterations                     ...        0 min,  0.000 sec ( 58.940%)
 molecular gradient             ...        0 min,  0.000 sec (  9.842%)
 printout                       ...        0 min,  0.000 sec (  8.865%)

         :::::::::::::::::::::::::::::::::::::::::::::::::::::
         ::                     SUMMARY                     ::
         :::::::::::::::::::::::::::::::::::::::::::::::::::::
         :: total energy              -5.070979298321 Eh    ::
         :: total w/o Gsasa/hb        -5.072058527301 Eh    ::
         :: gradient norm              0.041946423036 Eh/a0 ::
         :: HOMO-LUMO gap             13.242412206171 eV    ::
         ::.................................................::
         :: SCC energy                -5.096730277406 Eh    ::
         :: -> isotropic ES            0.034364482645 Eh    ::
         :: -> anisotropic ES          0.000508830114 Eh    ::
         :: -> anisotropic XC         -0.000378353074 Eh    ::
         :: -> dispersion             -0.000139033166 Eh    ::
         :: -> Gsolv                  -0.002076325281 Eh    ::
         ::    -> Gelec               -0.003155554261 Eh    ::
         ::    -> Gsasa               -0.003444650892 Eh    ::
         ::    -> Ghb                  0.000000000000 Eh    ::
         ::    -> Gshift               0.004523879872 Eh    ::
         :: repulsion energy           0.025750979050 Eh    ::
         :: add. restraining           0.000000000000 Eh    ::
         :: total charge               0.000000000000 e     ::
         :::::::::::::::::::::::::::::::::::::::::::::::::::::

           -------------------------------------------------
          |                Property Printout                |
           -------------------------------------------------

    * Orbital Energies and Occupations

         #    Occupation            Energy/Eh            Energy/eV
      -------------------------------------------------------------
         1        2.0000           -0.6801874             -18.5088
         2        2.0000           -0.5668868             -15.4258
         3        2.0000           -0.5145625             -14.0020
         4        2.0000           -0.4489520             -12.2166 (HOMO)
         5                          0.0376977               1.0258 (LUMO)
         6                          0.1885739               5.1314
      -------------------------------------------------------------
                  HL-Gap            0.4866497 Eh           13.2424 eV
             Fermi-level           -0.2056272 Eh           -5.5954 eV

     #   Z          covCN         q      C6AA      α(0)
     1   8 O        1.602    -0.586    24.853     6.728
     2   1 H        0.801     0.293     0.744     1.355
     3   1 H        0.801     0.293     0.744     1.355

 Mol. C6AA /au·bohr⁶  :         44.702197
 Mol. C8AA /au·bohr⁸  :        801.070845
 Mol. α(0) /au        :          9.437739


Wiberg/Mayer (AO) data.
largest (>0.10) Wiberg bond orders for each atom

 ---------------------------------------------------------------------------
     #   Z sym  total        # sym  WBO       # sym  WBO       # sym  WBO
 ---------------------------------------------------------------------------
     1   8 O    1.828 --     3 H    0.914     2 H    0.914
     2   1 H    0.914 --     1 O    0.914
     3   1 H    0.914 --     1 O    0.914
 ---------------------------------------------------------------------------

Topologies differ in total number of bonds
Writing topology from bond orders to xtbtopo.mol

molecular dipole:
                 x           y           z       tot (Debye)
 q only:       -0.000       0.659       0.000
   full:       -0.000       0.907      -0.000       2.306
molecular quadrupole (traceless):
                xx          xy          yy          xz          yz          zz
 q only:        1.085      -0.000      -0.208       0.000       0.000      -0.877
  q+dip:        1.409       0.000      -0.288       0.000      -0.000      -1.121
   full:        1.589       0.000      -0.223      -0.000       0.000      -1.367


           -------------------------------------------------
          | TOTAL ENERGY               -5.070979298321 Eh   |
          | GRADIENT NORM               0.041946423036 Eh/α |
          | HOMO-LUMO GAP              13.242412206171 eV   |
           -------------------------------------------------

------------------------------------------------------------------------
 * finished run on 2026/07/01 at 11:19:17.160     
------------------------------------------------------------------------
 total:
 * wall-time:     0 d,  0 h,  0 min,  0.005 sec
 *  cpu-time:     0 d,  0 h,  0 min,  0.059 sec
 * ratio c/w:    12.727 speedup
 SCF:
 * wall-time:     0 d,  0 h,  0 min,  0.001 sec
 *  cpu-time:     0 d,  0 h,  0 min,  0.013 sec
 * ratio c/w:    15.714 speedup

