3
water_solvent_cpcm.log	Energy:     -74.9676726
O         -0.00000       -0.11916        0.00000
H         -0.79065        0.47664        0.00000
H          0.79065        0.47664       -0.00000
