
                                 *****************
                                 * O   R   C   A *
                                 *****************

           --- An Ab Initio, DFT and Semiempirical electronic structure package ---

                  #######################################################
                  #                        -***-                        #
                  #  Department of molecular theory and spectroscopy    #
                  #              Directorship: Frank Neese              #
                  # Max Planck Institute for Chemical Energy Conversion #
                  #                  D-45470 Muelheim/Ruhr              #
                  #                       Germany                       #
                  #                                                     #
                  #                  All rights reserved                #
                  #                        -***-                        #
                  #######################################################


                         Program Version 3.0.0 -  RELEASE  -


 With contributions from (in alphabetic order):
   Ute Becker             : Parallelization
   Dmytro Bykov           : SCF Hessian
   Dmitry Ganyushin       : Spin-Orbit,Spin-Spin,Magnetic field MRCI
   Andreas Hansen         : Spin unrestricted coupled pair/coupled cluster methods
   Dimitrios Liakos       : Extrapolation schemes; parallel MDCI
   Robert Izsak           : Overlap fitted RIJCOSX, COSX-SCS-MP3
   Christian Kollmar      : KDIIS, OOCD, Brueckner-CCSD(T), CCSD density
   Simone Kossmann        : Meta GGA functionals, TD-DFT gradient, OOMP2, MP2 Hessian
   Taras Petrenko         : DFT Hessian,TD-DFT gradient, ASA and ECA modules, normal mode analysis, Resonance Raman, ABS, FL, XAS/XES, NRVS
   Christoph Reimann      : Effective Core Potentials
   Michael Roemelt        : Restricted open shell CIS
   Christoph Riplinger    : Improved optimizer, TS searches, QM/MM, DLPNO-CCSD
   Barbara Sandhoefer     : DKH picture change effects
   Igor Schapiro          : Molecular dynamics
   Kantharuban Sivalingam : CASSCF convergence, NEVPT2
   Boris Wezisla          : Elementary symmetry handling
   Frank Wennmohs         : Technical directorship


 We gratefully acknowledge several colleagues who have allowed us to
 interface, adapt or use parts of their codes:
   Stefan Grimme, W. Hujo, H. Kruse, T. Risthaus : VdW corrections, initial TS optimization,
                                                   DFT functionals, gCP
   Ed Valeev                                     : LibInt (2-el integral package), F12 methods
   Garnet Chan, S. Sharma, R. Olivares           : DMRG
   Ulf Ekstrom                                   : XCFun DFT Library
   Mihaly Kallay                                 : mrcc  (arbitrary order and MRCC methods)
   Andreas Klamt, Michael Diedenhofen            : otool_cosmo (COSMO solvation model)
   Frank Weinhold                                : gennbo (NPA and NBO analysis)


 Your calculation uses the libint2 library for the computation of 2-el integrals
 For citations please refer to: http://libint.valeyev.net

 This ORCA versions uses:
   CBLAS   interface :  Fast vector & matrix operations
   LAPACKE interface :  Fast linear algebra routines
   SCALAPACK package :  Parallel linear algebra routines


================================================================================
                                        WARNINGS
                       Please study these warnings very carefully!
================================================================================
Now building the actual basis set

WARNING: Geometry Optimization
  ===> : Switching off AutoStart
         For restart on a previous wavefunction, please use MOREAD


INFO   : the flag for use of LIBINT has been found!

================================================================================
                                       INPUT FILE
================================================================================
NAME = dvb_scan
|  1> # Scan dihedral restricted B3LYP/sto-3g calc
|  2> ! RKS STO-3G B3LYP UseSym Opt
|  3> 
|  4> %output
|  5>  PrintLevel Normal
|  6> end 
|  7> 
|  8> % geom
|  9>   Scan
| 10>     D 4 3 10 11 = -180.0, 180.0, 13
| 11>   end
| 12> end
| 13> 
| 14> * xyz 0 1
| 15> C          1.43509       -0.04780       -0.00010
| 16> C          0.73780        1.19228       -0.00002
| 17> C         -0.66368        1.24151       -0.00001
| 18> C         -1.43515        0.04767        0.00006
| 19> C         -0.73787       -1.19242       -0.00002
| 20> C          0.66362       -1.24165       -0.00002
| 21> H          1.31386        2.12801        0.00015
| 22> H         -1.16822        2.21645        0.00014
| 23> H         -1.31393       -2.12815        0.00006
| 24> H          1.16816       -2.21659        0.00006
| 25> C         -2.93303        0.04344       -0.00002
| 26> C         -3.73731        1.12067        0.00003
| 27> H         -3.38578       -0.95970       -0.00014
| 28> H         -4.82871        1.01517       -0.00009
| 29> H         -3.35133        2.14657       -0.00007
| 30> C          2.93296       -0.04343        0.00003
| 31> C          3.73745       -1.12051       -0.00004
| 32> H          3.38556        0.95978       -0.00003
| 33> H          4.82882       -1.01477       -0.00007
| 34> H          3.35169       -2.14649        0.00009
| 35> *
| 36> 
| 37> 
| 38>                          ****END OF INPUT****
================================================================================

------------------------------------------------------------------------------
                            SYMMETRY HANDLING SETUP
------------------------------------------------------------------------------

------------------
SYMMETRY DETECTION
------------------
Preparing Data                    ... done
Detection Threshold:    SymThresh ... 1.0000e-04

Point Group will now be determined:
Moving molecule to center of mass ... done

POINT GROUP                       ... C1

The coordinates will now be cleaned:
Moving to standard coord frame    ... done
(Changed atom 0 to z axis and atom 1 in xz plane)
Structure cleanup requested       ... skipped (C1)

------------------
SYMMETRY REDUCTION
------------------
ORCA supports only abelian point groups.
It is now checked, if the determined point group is supported:
Point Group ( C1    ) is          ... supported

The point group is C1 - hence turning off symmetry
If this is a round-off problem, please increase the symmetry
        detection tolerance (%method SymThresh)

Storing the symmetry object:
Symmetry file                     ... dvb_scan.sym.tmp
Writing symmetry information      ... done

                       ******************************
                       *    Relaxed Surface Scan    *
                       ******************************

        Dihedral ( 11,  10,   3,   4):   range= -180.00000000 .. 180.00000000  steps =   13

There is 1 parameter to be scanned
There will be   13 energy evaluations


         *************************************************************
         *               RELAXED SURFACE SCAN STEP   1               *
         *                                                           *
         *   Dihedral ( 11,  10,   3,   4)  : -180.00000000           *
         *************************************************************

Geometry optimization settings:
Update method            Update   .... BFGS
Choice of coordinates    CoordSys .... Redundant Internals
Initial Hessian          InHess   .... Almoef's Model

Convergence Tolerances:
Energy Change            TolE     ....  5.0000e-06 Eh
Max. Gradient            TolMAXG  ....  3.0000e-04 Eh/bohr
RMS Gradient             TolRMSG  ....  1.0000e-04 Eh/bohr
Max. Displacement        TolMAXD  ....  4.0000e-03 bohr
RMS Displacement         TolRMSD  ....  2.0000e-03 bohr

------------------------------------------------------------------------------
                        ORCA OPTIMIZATION COORDINATE SETUP
------------------------------------------------------------------------------

The optimization will be done in new redundant internal coordinates
Making redundant internal coordinates   ...  (new redundants) done
Evaluating the initial hessian          ...  (Almloef) done
Evaluating the coordinates              ...  done
Calculating the B-matrix                .... done
Calculating the G-matrix                .... done
Diagonalizing the G-matrix              .... done
Imposing constraints:
 Iter   0:  RMS(Cart)=    0.0000016136 RMS(Int)=    0.0000045540
 Iter   1:  RMS(Cart)=    0.0000008876 RMS(Int)=    0.0000025050
 Iter   2:  RMS(Cart)=    0.0000004882 RMS(Int)=    0.0000013779
 Iter   3:  RMS(Cart)=    0.0000002686 RMS(Int)=    0.0000007579
 Iter   4:  RMS(Cart)=    0.0000001477 RMS(Int)=    0.0000004169
 Iter   5:  RMS(Cart)=    0.0000000813 RMS(Int)=    0.0000002293
 Iter   6:  RMS(Cart)=    0.0000000447 RMS(Int)=    0.0000001261
 Iter   7:  RMS(Cart)=    0.0000000246 RMS(Int)=    0.0000000694
CONVERGED
Small eigenvalue found = 1.561e-02
The first mode is                       ....   36
The number of degrees of freedom        ....   54
Storing new coordinates                 .... done

    -----------------------------------------------------------------
                    Redundant Internal Coordinates


    -----------------------------------------------------------------
         Definition                    Initial Value    Approx d2E/dq
    -----------------------------------------------------------------
      1. B(C   1,C   0)                  1.4227         0.554119   
      2. B(C   2,C   1)                  1.4023         0.597096   
      3. B(C   3,C   2)                  1.4214         0.556696   
      4. B(C   4,C   3)                  1.4227         0.554112   
      5. B(C   5,C   0)                  1.4214         0.556679   
      6. B(C   5,C   4)                  1.4024         0.597074   
      7. B(H   6,C   1)                  1.0988         0.348602   
      8. B(H   7,C   2)                  1.0978         0.349984   
      9. B(H   8,C   4)                  1.0988         0.348602   
     10. B(H   9,C   5)                  1.0978         0.349984   
     11. B(C  10,C   3)                  1.4979         0.420352   
     12. B(C  11,C  10)                  1.3444         0.738860   
     13. B(H  12,C  10)                  1.1006         0.346375   
     14. B(H  13,C  11)                  1.0965         0.351620   
     15. B(H  14,C  11)                  1.0961         0.352111   
     16. B(C  15,C   0)                  1.4979         0.420367   
     17. B(C  16,C  15)                  1.3444         0.738845   
     18. B(H  17,C  15)                  1.1006         0.346372   
     19. B(H  18,C  16)                  1.0965         0.351628   
     20. B(H  19,C  16)                  1.0961         0.352114   
     21. A(C   5,C   0,C  15)          123.0378         0.397401   
     22. A(C   1,C   0,C   5)          117.7805         0.417299   
     23. A(C   1,C   0,C  15)          119.1816         0.397079   
     24. A(C   0,C   1,C   2)          121.3606         0.422549   
     25. A(C   0,C   1,H   6)          119.0337         0.344400   
     26. A(C   2,C   1,H   6)          119.6057         0.348755   
     27. A(C   3,C   2,H   7)          119.7671         0.344898   
     28. A(C   1,C   2,C   3)          120.8591         0.422899   
     29. A(C   1,C   2,H   7)          119.3738         0.348988   
     30. A(C   2,C   3,C  10)          123.0327         0.397400   
     31. A(C   4,C   3,C  10)          119.1865         0.397076   
     32. A(C   2,C   3,C   4)          117.7808         0.417301   
     33. A(C   3,C   4,C   5)          121.3601         0.422545   
     34. A(C   3,C   4,H   8)          119.0342         0.344400   
     35. A(C   5,C   4,H   8)          119.6057         0.348753   
     36. A(C   0,C   5,C   4)          120.8589         0.422894   
     37. A(C   0,C   5,H   9)          119.7674         0.344896   
     38. A(C   4,C   5,H   9)          119.3738         0.348986   
     39. A(C   3,C  10,C  11)          126.5839         0.417807   
     40. A(C   3,C  10,H  12)          114.4530         0.328571   
     41. A(C  11,C  10,H  12)          118.9631         0.361191   
     42. A(C  10,C  11,H  13)          121.2244         0.362119   
     43. A(C  10,C  11,H  14)          122.6362         0.362205   
     44. A(H  13,C  11,H  14)          116.1394         0.288737   
     45. A(C   0,C  15,C  16)          126.5895         0.417808   
     46. A(C   0,C  15,H  17)          114.4498         0.328572   
     47. A(C  16,C  15,H  17)          118.9607         0.361190   
     48. A(C  15,C  16,H  18)          121.2227         0.362119   
     49. A(C  15,C  16,H  19)          122.6375         0.362204   
     50. A(H  18,C  16,H  19)          116.1398         0.288738   
     51. D(H   6,C   1,C   0,C  15)     -0.0009         0.021016   
     52. D(C   2,C   1,C   0,C  15)   -179.9940         0.021016   
     53. D(C   2,C   1,C   0,C   5)     -0.0068         0.021016   
     54. D(H   6,C   1,C   0,C   5)    179.9863         0.021016   
     55. D(H   7,C   2,C   1,C   0)    179.9947         0.024565   
     56. D(C   3,C   2,C   1,H   6)   -179.9866         0.024565   
     57. D(H   7,C   2,C   1,H   6)      0.0017         0.024565   
     58. D(C   3,C   2,C   1,C   0)      0.0065         0.024565   
     59. D(C   4,C   3,C   2,C   1)     -0.0063         0.021219   
     60. D(C   4,C   3,C   2,H   7)   -179.9944         0.021219   
     61. D(C  10,C   3,C   2,C   1)   -179.9958         0.021219   
     62. D(C  10,C   3,C   2,H   7)      0.0160         0.021219   
     63. D(C   5,C   4,C   3,C   2)      0.0068         0.021015   
     64. D(C   5,C   4,C   3,C  10)    179.9967         0.021015   
     65. D(H   8,C   4,C   3,C   2)    179.9983         0.021015   
     66. D(H   8,C   4,C   3,C  10)     -0.0118         0.021015   
     67. D(C   4,C   5,C   0,C   1)      0.0073         0.021218   
     68. D(H   9,C   5,C   4,C   3)    179.9915         0.024563   
     69. D(H   9,C   5,C   0,C   1)   -179.9917         0.021218   
     70. D(H   9,C   5,C   0,C  15)     -0.0051         0.021218   
     71. D(C   0,C   5,C   4,C   3)     -0.0075         0.024563   
     72. D(C   4,C   5,C   0,C  15)    179.9939         0.021218   
     73. D(C   0,C   5,C   4,H   8)   -179.9989         0.024563   
     74. D(H   9,C   5,C   4,H   8)      0.0000         0.024563   
     75. D(C  11,C  10,C   3,C   2)     -0.0106         0.012092   
     76. D(C  11,C  10,C   3,C   4)   -180.0000         0.012092 C 
     77. D(H  12,C  10,C   3,C   2)    179.9891         0.012092   
     78. D(H  12,C  10,C   3,C   4)     -0.0003         0.012092   
     79. D(H  13,C  11,C  10,C   3)    179.9969         0.038821   
     80. D(H  13,C  11,C  10,H  12)     -0.0028         0.038821   
     81. D(H  14,C  11,C  10,C   3)      0.0131         0.038821   
     82. D(H  14,C  11,C  10,H  12)   -179.9866         0.038821   
     83. D(C  16,C  15,C   0,C   1)   -179.9991         0.012093   
     84. D(C  16,C  15,C   0,C   5)      0.0145         0.012093   
     85. D(H  17,C  15,C   0,C   1)     -0.0122         0.012093   
     86. D(H  17,C  15,C   0,C   5)   -179.9986         0.012093   
     87. D(H  18,C  16,C  15,C   0)    179.9916         0.038819   
     88. D(H  18,C  16,C  15,H  17)      0.0052         0.038819   
     89. D(H  19,C  16,C  15,C   0)     -0.0184         0.038819   
     90. D(H  19,C  16,C  15,H  17)    179.9952         0.038819   
    -----------------------------------------------------------------

Number of atoms                         .... 20
Number of degrees of freedom            .... 90

         *************************************************************
         *                GEOMETRY OPTIMIZATION CYCLE   1            *
         *************************************************************
---------------------------------
CARTESIAN COORDINATES (ANGSTROEM)
---------------------------------
  C     -0.000000   -0.000001    1.435895
  C      1.216191   -0.000002    0.697727
  C      1.218759   -0.000082   -0.704615
  C     -0.000091   -0.000025   -1.435932
  C     -1.216292   -0.000023   -0.697774
  C     -1.218860    0.000067    0.704578
  H      2.170571    0.000176    1.242331
  H      2.176370    0.000007   -1.241317
  H     -2.170673    0.000050   -1.242378
  H     -2.176471    0.000209    1.241281
  C     -0.054162   -0.000197   -2.932842
  C      0.995709   -0.000222   -3.772522
  H     -1.071812   -0.000317   -3.351961
  H      0.853951   -0.000405   -4.859807
  H      2.033885   -0.000325   -3.420893
  C      0.054210    0.000224    2.932790
  C     -0.995504    0.000237    3.772675
  H      1.071925    0.000162    3.351758
  H     -0.853507    0.000272    4.859922
  H     -2.033752    0.000374    3.421269

----------------------------
CARTESIAN COORDINATES (A.U.)
----------------------------
  NO LB      ZA    FRAG    MASS        X           Y           Z
   0 C     6.0000    0    12.011         -0.000000000201265         -0.000001394952675          2.713448902991233
   1 C     6.0000    0    12.011          2.298267251043002         -0.000004118379363          1.318513454252506
   2 C     6.0000    0    12.011          2.303119866173507         -0.000154848803963         -1.331528937875466
   3 C     6.0000    0    12.011         -0.000172578268516         -0.000047440142041         -2.713518248198723
   4 C     6.0000    0    12.011         -2.298459345175961         -0.000042905744397         -1.318601057899581
   5 C     6.0000    0    12.011         -2.303311330760224          0.000126751797433          1.331460219808106
   6 H     1.0000    0     1.008          4.101784943335020          0.000332545535479          2.347666176483070
   7 H     1.0000    0     1.008          4.112742999243095          0.000013529454582         -2.345749010327547
   8 H     1.0000    0     1.008         -4.101977024154879          0.000094263431674         -2.347753810349683
   9 H     1.0000    0     1.008         -4.112934451563369          0.000394476607166          2.345680264446661
  10 C     6.0000    0    12.011         -0.102350552539079         -0.000373005077648         -5.542267705145590
  11 C     6.0000    0    12.011          1.881617531290529         -0.000420186452472         -7.129032743846187
  12 H     1.0000    0     1.008         -2.025430225811061         -0.000599611527325         -6.334288509329627
  13 H     1.0000    0     1.008          1.613733016846087         -0.000765421895514         -9.183703694316883
  14 H     1.0000    0     1.008          3.843484949380732         -0.000613795567104         -6.464550235858322
  15 C     6.0000    0    12.011          0.102441763191088          0.000422363960271          5.542170663261012
  16 C     6.0000    0    12.011         -1.881229815444433          0.000447698178435          7.129322893300074
  17 H     1.0000    0     1.008          2.025644202550491          0.000305282366361          6.333903785724454
  18 H     1.0000    0     1.008         -1.612893911906301          0.000514881642793          9.183922108994537
  19 H     1.0000    0     1.008         -3.843234490844830          0.000706326038785          6.465260919677996

--------------------------------
INTERNAL COORDINATES (ANGSTROEM)
--------------------------------
 C      0   0   0   0.000000     0.000     0.000
 C      1   0   0   1.422678     0.000     0.000
 C      2   1   0   1.402344   121.361     0.000
 C      3   2   1   1.421415   120.859     0.000
 C      4   3   2   1.422681   117.781     0.000
 C      5   4   3   1.402354   121.360     0.000
 H      2   1   3   1.098834   119.034   179.993
 H      3   2   1   1.097756   119.374   179.995
 H      5   4   3   1.098834   119.034   179.998
 H      6   5   4   1.097756   119.374   179.991
 C      4   3   2   1.497886   123.033   180.004
 C     11   4   3   1.344355   126.584     0.000
 H     11   4   3   1.100578   114.453   179.989
 H     12  11   4   1.096487   121.224   179.997
 H     12  11   4   1.096107   122.636     0.000
 C      1   2   3   1.497876   119.182   180.006
 C     16   1   2   1.344361   126.590   180.001
 H     16   1   2   1.100580   114.450     0.000
 H     17  16   1   1.096480   121.223   179.992
 H     17  16   1   1.096105   122.637     0.000

---------------------------
INTERNAL COORDINATES (A.U.)
---------------------------
 C      0   0   0   0.000000     0.000     0.000
 C      1   0   0   2.688471     0.000     0.000
 C      2   1   0   2.650047   121.361     0.000
 C      3   2   1   2.686085   120.859     0.000
 C      4   3   2   2.688478   117.781     0.000
 C      5   4   3   2.650066   121.360     0.000
 H      2   1   3   2.076495   119.034   179.993
 H      3   2   1   2.074459   119.374   179.995
 H      5   4   3   2.076495   119.034   179.998
 H      6   5   4   2.074459   119.374   179.991
 C      4   3   2   2.830594   123.033   180.004
 C     11   4   3   2.540463   126.584     0.000
 H     11   4   3   2.079791   114.453   179.989
 H     12  11   4   2.072061   121.224   179.997
 H     12  11   4   2.071343   122.636     0.000
 C      1   2   3   2.830576   119.182   180.006
 C     16   1   2   2.540473   126.590   180.001
 H     16   1   2   2.079795   114.450     0.000
 H     17  16   1   2.072048   121.223   179.992
 H     17  16   1   2.071338   122.637     0.000

---------------------
BASIS SET INFORMATION
---------------------
There are 2 groups of distinct atoms

 Group   1 Type C   : 6s3p contracted to 2s1p pattern {33/3}
 Group   2 Type H   : 3s contracted to 1s pattern {3}

Atom   0C    basis set group =>   1
Atom   1C    basis set group =>   1
Atom   2C    basis set group =>   1
Atom   3C    basis set group =>   1
Atom   4C    basis set group =>   1
Atom   5C    basis set group =>   1
Atom   6H    basis set group =>   2
Atom   7H    basis set group =>   2
Atom   8H    basis set group =>   2
Atom   9H    basis set group =>   2
Atom  10C    basis set group =>   1
Atom  11C    basis set group =>   1
Atom  12H    basis set group =>   2
Atom  13H    basis set group =>   2
Atom  14H    basis set group =>   2
Atom  15C    basis set group =>   1
Atom  16C    basis set group =>   1
Atom  17H    basis set group =>   2
Atom  18H    basis set group =>   2
Atom  19H    basis set group =>   2
------------------------------------------------------------------------------
                           ORCA GTO INTEGRAL CALCULATION
------------------------------------------------------------------------------

                         BASIS SET STATISTICS AND STARTUP INFO

 # of primitive gaussian shells          ...  120
 # of primitive gaussian functions       ...  180
 # of contracted shell                   ...   40
 # of contracted basis functions         ...   60
 Highest angular momentum                ...    1
 Maximum contraction depth               ...    3
 Integral package used                   ... LIBINT
 Integral threshhold            Thresh   ...  2.500e-11
 Primitive cut-off              TCut     ...  2.500e-12


                              INTEGRAL EVALUATION

 One electron integrals                  ... done
 Pre-screening matrix                    ... done
 Shell pair data                         ... done (   0.001 sec)

-------------------------------------------------------------------------------
                                 ORCA SCF
-------------------------------------------------------------------------------

------------
SCF SETTINGS
------------
Hamiltonian:
 Density Functional     Method          .... DFT(GTOs)
 Exchange Functional    Exchange        .... B88
   X-Alpha parameter    XAlpha          ....  0.666667
   Becke's b parameter  XBeta           ....  0.004200
 Correlation Functional Correlation     .... LYP
 LDA part of GGA corr.  LDAOpt          .... VWN-5
 Gradients option       PostSCFGGA      .... off
 Hybrid DFT is turned on
   Fraction HF Exchange ScalHFX         ....  0.200000
   Scaling of DF-GGA-X  ScalDFX         ....  0.720000
   Scaling of DF-GGA-C  ScalDFC         ....  0.810000
   Scaling of DF-LDA-C  ScalLDAC        ....  1.000000
   Perturbative correction              ....  0.000000
   NL short-range parameter             ....  4.800000


General Settings:
 Integral files         IntName         .... dvb_scan
 Hartree-Fock type      HFTyp           .... RHF
 Total Charge           Charge          ....    0
 Multiplicity           Mult            ....    1
 Number of Electrons    NEL             ....   70
 Basis Dimension        Dim             ....   60
 Nuclear Repulsion      ENuc            ....    445.8321397269 Eh

Convergence Acceleration:
 DIIS                   CNVDIIS         .... on
   Start iteration      DIISMaxIt       ....    12
   Startup error        DIISStart       ....  0.200000
   # of expansion vecs  DIISMaxEq       ....     5
   Bias factor          DIISBfac        ....   1.050
   Max. coefficient     DIISMaxC        ....  10.000
 Newton-Raphson         CNVNR           .... off
 SOSCF                  CNVSOSCF        .... on
   Start iteration      SOSCFMaxIt      ....   150
   Startup grad/error   SOSCFStart      ....  0.003300
 Level Shifting         CNVShift        .... on
   Level shift para.    LevelShift      ....    0.2500
   Turn off err/grad.   ShiftErr        ....    0.0010
 Zerner damping         CNVZerner       .... off
 Static damping         CNVDamp         .... on
   Fraction old density DampFac         ....    0.7000
   Max. Damping (<1)    DampMax         ....    0.9800
   Min. Damping (>=0)   DampMin         ....    0.0000
   Turn off err/grad.   DampErr         ....    0.1000
 Fernandez-Rico         CNVRico         .... off

SCF Procedure:
 Maximum # iterations   MaxIter         ....   125
 SCF integral mode      SCFMode         .... Direct
   Integral package                     .... LIBINT
 Reset frequeny         DirectResetFreq ....    20
 Integral Threshold     Thresh          ....  2.500e-11 Eh
 Primitive CutOff       TCut            ....  2.500e-12 Eh

Convergence Tolerance:
 Convergence Check Mode ConvCheckMode   .... Total+1el-Energy
 Energy Change          TolE            ....  1.000e-08 Eh
 1-El. energy change                    ....  1.000e-05 Eh
 Orbital Gradient       TolG            ....  1.000e-05
 Orbital Rotation angle TolX            ....  1.000e-05
 DIIS Error             TolErr          ....  5.000e-07


Diagonalization of the overlap matrix:
Smallest eigenvalue                        ... 1.815e-01
Time for diagonalization                   ...    0.002 sec
Threshold for overlap eigenvalues          ... 1.000e-08
Number of eigenvalues below threshold      ... 0
Time for construction of square roots      ...    0.001 sec
Total time needed                          ...    0.003 sec

-------------------
DFT GRID GENERATION
-------------------

General Integration Accuracy     IntAcc      ...  4.340
Radial Grid Type                 RadialGrid  ... Gauss-Chebyshev
Angular Grid (max. acc.)         AngularGrid ... Lebedev-110
Angular grid pruning method      GridPruning ... 3 (G Style)
Weight generation scheme         WeightScheme... Becke
Basis function cutoff            BFCut       ...    1.0000e-11
Integration weight cutoff        WCut        ...    1.0000e-14
Grids for H and He will be reduced by one unit

# of grid points (after initial pruning)     ...  24500 (   0.0 sec)
# of grid points (after weights+screening)   ...  22571 (   0.2 sec)
nearest neighbour list constructed           ...    0.0 sec
Grid point re-assignment to atoms done       ...    0.0 sec
Grid point division into batches done        ...    0.0 sec
Reduced shell lists constructed in    0.4 sec

Total number of grid points                  ...    22571
Total number of batches                      ...      362
Average number of points per batch           ...       62
Average number of grid points per atom       ...     1129
Average number of shells per batch           ...    26.98 (67.45%)
Average number of basis functions per batch  ...    44.12 (73.53%)
Average number of large shells per batch     ...    20.50 (76.00%)
Average number of large basis fcns per batch ...    34.34 (77.84%)
Maximum spatial batch extension              ...  20.53, 44.34, 18.54 au
Average spatial batch extension              ...   3.93,  5.57,  3.21 au

Time for grid setup =    0.629 sec

------------------------------
INITIAL GUESS: MODEL POTENTIAL
------------------------------
Loading Hartree-Fock densities                     ... done
Calculating cut-offs                               ... done
Setting up the integral package                    ... done
Initializing the effective Hamiltonian             ... done
Starting the Coulomb interaction                   ... done (   0.2 sec)
Reading the grid                                   ... done
Mapping shells                                     ... done
Starting the XC term evaluation                    ... done (   0.4 sec)
  promolecular density results
     # of electrons  =     69.999792741
     EX              =    -54.263801741
     EC              =     -2.295092441
     EX+EC           =    -56.558894182
Transforming the Hamiltonian                       ... done (   0.0 sec)
Diagonalizing the Hamiltonian                      ... done (   0.0 sec)
Back transforming the eigenvectors                 ... done (   0.0 sec)
Now organizing SCF variables                       ... done
                      ------------------
                      INITIAL GUESS DONE (   1.5 sec)
                      ------------------
--------------
SCF ITERATIONS
--------------
ITER       Energy         Delta-E        Max-DP      RMS-DP      [F,P]     Damp
               ***  Starting incremental Fock matrix formation  ***
  0   -381.9976512237   0.000000000000 0.04228777  0.00317401  0.0772676 0.7000
  1   -382.0182510938  -0.020599870103 0.03324153  0.00250705  0.0483934 0.7000
                               ***Turning on DIIS***
  2   -382.0295807973  -0.011329703520 0.06531629  0.00496854  0.0258975 0.0000
  3   -382.0471443153  -0.017563518023 0.02203575  0.00161390  0.0173290 0.0000
  4   -382.0496019629  -0.002457647625 0.00552792  0.00038927  0.0038551 0.0000
                      *** Initiating the SOSCF procedure ***
                           *** Shutting down DIIS ***
                      *** Re-Reading the Fockian *** 
                      *** Removing any level shift *** 
ITER      Energy       Delta-E        Grad      Rot      Max-DP    RMS-DP
  5   -382.04972099  -0.0001190251  0.000380  0.000380  0.000971  0.000076
               *** Restarting incremental Fock matrix formation ***
  6   -382.04972778  -0.0000067896  0.000223  0.000893  0.000876  0.000048
  7   -382.04972791  -0.0000001310  0.000165  0.000352  0.000633  0.000028
  8   -382.04972837  -0.0000004648  0.000055  0.000121  0.000207  0.000014
  9   -382.04972839  -0.0000000200  0.000038  0.000038  0.000101  0.000007
 10   -382.04972842  -0.0000000306  0.000008  0.000024  0.000030  0.000002
 11   -382.04972842  -0.0000000003  0.000006  0.000011  0.000015  0.000001
                  ***Gradient check signals convergence***
              ***Rediagonalizing the Fockian in SOSCF/NRSCF***

               *****************************************************
               *                     SUCCESS                       *
               *           SCF CONVERGED AFTER  12 CYCLES          *
               *****************************************************

Setting up the final grid:

General Integration Accuracy     IntAcc      ...  4.670
Radial Grid Type                 RadialGrid  ... Gauss-Chebyshev
Angular Grid (max. acc.)         AngularGrid ... Lebedev-302
Angular grid pruning method      GridPruning ... 3 (G Style)
Weight generation scheme         WeightScheme... Becke
Basis function cutoff            BFCut       ...    1.0000e-11
Integration weight cutoff        WCut        ...    1.0000e-14
Grids for H and He will be reduced by one unit

# of grid points (after initial pruning)     ...  96060 (   0.1 sec)
# of grid points (after weights+screening)   ...  87175 (   0.9 sec)
nearest neighbour list constructed           ...    0.0 sec
Grid point re-assignment to atoms done       ...    0.0 sec
Grid point division into batches done        ...    0.4 sec
Reduced shell lists constructed in    1.7 sec

Total number of grid points                  ...    87175
Total number of batches                      ...     1374
Average number of points per batch           ...       63
Average number of grid points per atom       ...     4359
Average number of shells per batch           ...    24.84 (62.11%)
Average number of basis functions per batch  ...    40.84 (68.06%)
Average number of large shells per batch     ...    18.30 (73.66%)
Average number of large basis fcns per batch ...    30.85 (75.55%)
Maximum spatial batch extension              ...  18.36, 23.20, 19.80 au
Average spatial batch extension              ...   2.49,  2.84,  2.27 au

Final grid set up in    2.7 sec
Final integration                            ... done (   1.4 sec)
Change in XC energy                          ...    -0.001056231
Integrated number of electrons               ...    69.999941768
Previous integrated no of electrons          ...    69.996566710

----------------
TOTAL SCF ENERGY
----------------

Total Energy       :         -382.05078466 Eh          -10396.13038 eV

Components:
Nuclear Repulsion  :          445.83213973 Eh           12131.70929 eV
Electronic Energy  :         -827.88292438 Eh          -22527.83967 eV

One Electron Energy:        -1400.42949567 Eh          -38107.62393 eV
Two Electron Energy:          572.54657129 Eh           15579.78427 eV

Virial components:
Potential Energy   :         -757.89105249 Eh          -20623.26400 eV
Kinetic Energy     :          375.84026783 Eh           10227.13363 eV
Virial Ratio       :            2.01652435


DFT components:
N(Alpha)           :       34.999970884148 electrons
N(Beta)            :       34.999970884148 electrons
N(Total)           :       69.999941768297 electrons
E(X)               :      -43.808064261034 Eh       
E(C)               :       -2.717769428297 Eh       
E(XC)              :      -46.525833689332 Eh       

---------------
SCF CONVERGENCE
---------------

  Last Energy change         ...   -6.2926e-10  Tolerance :   1.0000e-08
  Last MAX-Density change    ...    2.9200e-06  Tolerance :   1.0000e-07
  Last RMS-Density change    ...    1.9311e-07  Tolerance :   5.0000e-09
  Last Orbital Gradient      ...    5.9481e-07  Tolerance :   1.0000e-05
  Last Orbital Rotation      ...    1.7237e-06  Tolerance :   1.0000e-05

             **** THE GBW FILE WAS UPDATED (dvb_scan.gbw) ****
             **** DENSITY FILE WAS UPDATED (dvb_scan.scfp.tmp) ****
             **** ENERGY FILE WAS UPDATED (dvb_scan.en.tmp) ****
----------------
ORBITAL ENERGIES
----------------

  NO   OCC          E(Eh)            E(eV) 
   0   2.0000     -10.016201      -272.5547 
   1   2.0000     -10.016153      -272.5534 
   2   2.0000     -10.004145      -272.2266 
   3   2.0000     -10.004143      -272.2266 
   4   2.0000     -10.002869      -272.1919 
   5   2.0000     -10.002865      -272.1918 
   6   2.0000     -10.002147      -272.1723 
   7   2.0000     -10.002008      -272.1685 
   8   2.0000      -9.988572      -271.8029 
   9   2.0000      -9.988570      -271.8028 
  10   2.0000      -0.805781       -21.9264 
  11   2.0000      -0.750226       -20.4147 
  12   2.0000      -0.714213       -19.4347 
  13   2.0000      -0.696038       -18.9401 
  14   2.0000      -0.663784       -18.0625 
  15   2.0000      -0.584990       -15.9184 
  16   2.0000      -0.555208       -15.1080 
  17   2.0000      -0.527997       -14.3675 
  18   2.0000      -0.506474       -13.7819 
  19   2.0000      -0.453722       -12.3464 
  20   2.0000      -0.435632       -11.8541 
  21   2.0000      -0.406943       -11.0735 
  22   2.0000      -0.394252       -10.7281 
  23   2.0000      -0.392475       -10.6798 
  24   2.0000      -0.370263       -10.0754 
  25   2.0000      -0.347535        -9.4569 
  26   2.0000      -0.343665        -9.3516 
  27   2.0000      -0.320727        -8.7274 
  28   2.0000      -0.307585        -8.3698 
  29   2.0000      -0.289128        -7.8676 
  30   2.0000      -0.283764        -7.7216 
  31   2.0000      -0.259765        -7.0686 
  32   2.0000      -0.208640        -5.6774 
  33   2.0000      -0.191314        -5.2059 
  34   2.0000      -0.149327        -4.0634 
  35   0.0000       0.041124         1.1190 
  36   0.0000       0.094097         2.5605 
  37   0.0000       0.114338         3.1113 
  38   0.0000       0.185854         5.0573 
  39   0.0000       0.276145         7.5143 
  40   0.0000       0.335716         9.1353 
  41   0.0000       0.344200         9.3662 
  42   0.0000       0.382873        10.4185 
  43   0.0000       0.384828        10.4717 
  44   0.0000       0.414376        11.2757 
  45   0.0000       0.415332        11.3018 
  46   0.0000       0.430138        11.7047 
  47   0.0000       0.443017        12.0551 
  48   0.0000       0.456285        12.4162 
  49   0.0000       0.481692        13.1075 
  50   0.0000       0.529764        14.4156 
  51   0.0000       0.549238        14.9455 
  52   0.0000       0.579473        15.7683 
  53   0.0000       0.602913        16.4061 
  54   0.0000       0.628430        17.1005 
  55   0.0000       0.643168        17.5015 
  56   0.0000       0.686261        18.6741 
  57   0.0000       0.720673        19.6105 
  58   0.0000       0.782934        21.3047 
  59   0.0000       0.797918        21.7124 

                    ********************************
                    * MULLIKEN POPULATION ANALYSIS *
                    ********************************

-----------------------
MULLIKEN ATOMIC CHARGES
-----------------------
   0 C :   -0.004532
   1 C :   -0.076235
   2 C :   -0.076887
   3 C :   -0.004529
   4 C :   -0.076237
   5 C :   -0.076886
   6 H :    0.077303
   7 H :    0.078916
   8 H :    0.077304
   9 H :    0.078917
  10 C :   -0.076211
  11 C :   -0.154031
  12 H :    0.076580
  13 H :    0.079022
  14 H :    0.076074
  15 C :   -0.076209
  16 C :   -0.154035
  17 H :    0.076577
  18 H :    0.079024
  19 H :    0.076073
Sum of atomic charges:   -0.0000000

--------------------------------
MULLIKEN REDUCED ORBITAL CHARGES
--------------------------------
  0 C s       :     3.136842  s :     3.136842
      pz      :     0.928818  p :     2.867690
      px      :     0.945375
      py      :     0.993497
  1 C s       :     3.151001  s :     3.151001
      pz      :     0.956063  p :     2.925234
      px      :     0.967834
      py      :     1.001336
  2 C s       :     3.148637  s :     3.148637
      pz      :     0.955525  p :     2.928250
      px      :     0.971718
      py      :     1.001007
  3 C s       :     3.136843  s :     3.136843
      pz      :     0.928816  p :     2.867686
      px      :     0.945375
      py      :     0.993494
  4 C s       :     3.151003  s :     3.151003
      pz      :     0.956059  p :     2.925234
      px      :     0.967833
      py      :     1.001341
  5 C s       :     3.148642  s :     3.148642
      pz      :     0.955521  p :     2.928244
      px      :     0.971715
      py      :     1.001007
  6 H s       :     0.922697  s :     0.922697
  7 H s       :     0.921084  s :     0.921084
  8 H s       :     0.922696  s :     0.922696
  9 H s       :     0.921083  s :     0.921083
 10 C s       :     3.153714  s :     3.153714
      pz      :     0.934907  p :     2.922496
      px      :     0.989335
      py      :     0.998254
 11 C s       :     3.168766  s :     3.168766
      pz      :     0.992159  p :     2.985264
      px      :     0.987204
      py      :     1.005901
 12 H s       :     0.923420  s :     0.923420
 13 H s       :     0.920978  s :     0.920978
 14 H s       :     0.923926  s :     0.923926
 15 C s       :     3.153714  s :     3.153714
      pz      :     0.934905  p :     2.922495
      px      :     0.989336
      py      :     0.998255
 16 C s       :     3.168766  s :     3.168766
      pz      :     0.992155  p :     2.985269
      px      :     0.987208
      py      :     1.005906
 17 H s       :     0.923423  s :     0.923423
 18 H s       :     0.920976  s :     0.920976
 19 H s       :     0.923927  s :     0.923927


                     *******************************
                     * LOEWDIN POPULATION ANALYSIS *
                     *******************************

----------------------
LOEWDIN ATOMIC CHARGES
----------------------
   0 C :    0.003595
   1 C :   -0.043628
   2 C :   -0.044039
   3 C :    0.003597
   4 C :   -0.043630
   5 C :   -0.044037
   6 H :    0.041671
   7 H :    0.043462
   8 H :    0.041672
   9 H :    0.043462
  10 C :   -0.038864
  11 C :   -0.090979
  12 H :    0.040953
  13 H :    0.044818
  14 H :    0.043012
  15 C :   -0.038863
  16 C :   -0.090982
  17 H :    0.040950
  18 H :    0.044818
  19 H :    0.043011

-------------------------------
LOEWDIN REDUCED ORBITAL CHARGES
-------------------------------
  0 C s       :     3.032328  s :     3.032328
      pz      :     0.974587  p :     2.964078
      px      :     0.996914
      py      :     0.992576
  1 C s       :     3.031965  s :     3.031965
      pz      :     1.005581  p :     3.011663
      px      :     1.004414
      py      :     1.001668
  2 C s       :     3.029380  s :     3.029380
      pz      :     1.005188  p :     3.014659
      px      :     1.008063
      py      :     1.001408
  3 C s       :     3.032329  s :     3.032329
      pz      :     0.974586  p :     2.964074
      px      :     0.996915
      py      :     0.992573
  4 C s       :     3.031967  s :     3.031967
      pz      :     1.005577  p :     3.011663
      px      :     1.004414
      py      :     1.001673
  5 C s       :     3.029384  s :     3.029384
      pz      :     1.005184  p :     3.014652
      px      :     1.008060
      py      :     1.001408
  6 H s       :     0.958329  s :     0.958329
  7 H s       :     0.956538  s :     0.956538
  8 H s       :     0.958328  s :     0.958328
  9 H s       :     0.956538  s :     0.956538
 10 C s       :     3.033393  s :     3.033393
      pz      :     0.982707  p :     3.005471
      px      :     1.025140
      py      :     0.997623
 11 C s       :     3.033009  s :     3.033009
      pz      :     1.025083  p :     3.057970
      px      :     1.026166
      py      :     1.006721
 12 H s       :     0.959047  s :     0.959047
 13 H s       :     0.955182  s :     0.955182
 14 H s       :     0.956988  s :     0.956988
 15 C s       :     3.033393  s :     3.033393
      pz      :     0.982708  p :     3.005469
      px      :     1.025137
      py      :     0.997624
 16 C s       :     3.033008  s :     3.033008
      pz      :     1.025085  p :     3.057974
      px      :     1.026164
      py      :     1.006725
 17 H s       :     0.959050  s :     0.959050
 18 H s       :     0.955182  s :     0.955182
 19 H s       :     0.956989  s :     0.956989


                      *****************************
                      * MAYER POPULATION ANALYSIS *
                      *****************************

  NA   - Mulliken gross atomic population
  ZA   - Total nuclear charge
  QA   - Mulliken gross atomic charge
  VA   - Mayer's total valence
  BVA  - Mayer's bonded valence
  FA   - Mayer's free valence

  ATOM       NA         ZA         QA         VA         BVA        FA
  0 C      6.0045     6.0000    -0.0045     3.9731     3.9731     0.0000
  1 C      6.0762     6.0000    -0.0762     3.9693     3.9693    -0.0000
  2 C      6.0769     6.0000    -0.0769     3.9701     3.9701     0.0000
  3 C      6.0045     6.0000    -0.0045     3.9731     3.9731    -0.0000
  4 C      6.0762     6.0000    -0.0762     3.9693     3.9693     0.0000
  5 C      6.0769     6.0000    -0.0769     3.9701     3.9701     0.0000
  6 H      0.9227     1.0000     0.0773     0.9940     0.9940    -0.0000
  7 H      0.9211     1.0000     0.0789     0.9938     0.9938     0.0000
  8 H      0.9227     1.0000     0.0773     0.9940     0.9940    -0.0000
  9 H      0.9211     1.0000     0.0789     0.9938     0.9938     0.0000
 10 C      6.0762     6.0000    -0.0762     3.9682     3.9682     0.0000
 11 C      6.1540     6.0000    -0.1540     3.9649     3.9649     0.0000
 12 H      0.9234     1.0000     0.0766     0.9941     0.9941     0.0000
 13 H      0.9210     1.0000     0.0790     0.9938     0.9938     0.0000
 14 H      0.9239     1.0000     0.0761     0.9942     0.9942     0.0000
 15 C      6.0762     6.0000    -0.0762     3.9682     3.9682    -0.0000
 16 C      6.1540     6.0000    -0.1540     3.9649     3.9649    -0.0000
 17 H      0.9234     1.0000     0.0766     0.9941     0.9941    -0.0000
 18 H      0.9210     1.0000     0.0790     0.9938     0.9938    -0.0000
 19 H      0.9239     1.0000     0.0761     0.9942     0.9942    -0.0000

  Mayer bond orders larger than 0.1
B(  0-C ,  1-C ) :   1.3625 B(  0-C ,  5-C ) :   1.3654 B(  0-C , 15-C ) :   1.0665 
B(  1-C ,  2-C ) :   1.4653 B(  1-C ,  6-H ) :   0.9614 B(  2-C ,  3-C ) :   1.3654 
B(  2-C ,  5-C ) :   0.1019 B(  2-C ,  7-H ) :   0.9595 B(  3-C ,  4-C ) :   1.3626 
B(  3-C , 10-C ) :   1.0665 B(  4-C ,  5-C ) :   1.4653 B(  4-C ,  8-H ) :   0.9614 
B(  5-C ,  9-H ) :   0.9596 B( 10-C , 11-C ) :   1.9012 B( 10-C , 12-H ) :   0.9592 
B( 11-C , 13-H ) :   0.9693 B( 11-C , 14-H ) :   0.9665 B( 15-C , 16-C ) :   1.9012 
B( 15-C , 17-H ) :   0.9592 B( 16-C , 18-H ) :   0.9693 B( 16-C , 19-H ) :   0.9665 


-------
TIMINGS
-------

Total SCF time: 0 days 0 hours 0 min 34 sec 

Total time                  ....      34.811 sec
Sum of individual times     ....      36.864 sec  (105.9%)

Fock matrix formation       ....      32.031 sec  ( 92.0%)
  Coulomb formation         ....      25.669 sec  ( 80.1% of F)
  XC integration            ....       6.358 sec  ( 19.8% of F)
    Basis function eval.    ....       3.675 sec  ( 57.8% of XC)
    Density eval.           ....       0.930 sec  ( 14.6% of XC)
    XC-Functional eval.     ....       0.888 sec  ( 14.0% of XC)
    XC-Potential eval.      ....       0.701 sec  ( 11.0% of XC)
Diagonalization             ....       0.015 sec  (  0.0%)
Density matrix formation    ....       0.002 sec  (  0.0%)
Population analysis         ....       0.004 sec  (  0.0%)
Initial guess               ....       1.451 sec  (  4.2%)
Orbital Transformation      ....       0.000 sec  (  0.0%)
Orbital Orthonormalization  ....       0.000 sec  (  0.0%)
DIIS solution               ....       0.004 sec  (  0.0%)
SOSCF solution              ....       0.014 sec  (  0.0%)
Grid generation             ....       3.343 sec  (  9.6%)

-------------------------   --------------------
FINAL SINGLE POINT ENERGY      -382.050784655913
-------------------------   --------------------

------------------------------------------------------------------------------
                         ORCA SCF GRADIENT CALCULATION
------------------------------------------------------------------------------

Gradient of the Kohn-Sham DFT energy:
Kohn-Sham wavefunction type      ... RKS
Hartree-Fock exchange scaling    ...    0.200
Number of operators              ...    1
Number of atoms                  ...   20
Basis set dimensions             ...   60
Integral neglect threshold       ... 2.5e-11
Integral primitive cutoff        ... 2.5e-12

Nuclear repulsion gradient       ... done
One Electron Gradient            ... done
Pre-screening matrix             ... done
Starting the two electron gradient:
Two electron gradient done
Exchange-correlation gradient    ... done

------------------
CARTESIAN GRADIENT
------------------

   1   C   :   -0.000005841   -0.000029088   -0.000046782
   2   C   :   -0.000049205   -0.000000423   -0.000019718
   3   C   :   -0.000037025   -0.000018306    0.000022713
   4   C   :    0.000010493    0.000028024    0.000052403
   5   C   :    0.000044689   -0.000013254    0.000018065
   6   C   :    0.000032197    0.000007987   -0.000024671
   7   H   :    0.000006797    0.000008110   -0.000031996
   8   H   :    0.000052669    0.000004973   -0.000041801
   9   H   :   -0.000006692    0.000002443    0.000032254
  10   H   :   -0.000051834    0.000003684    0.000039639
  11   C   :   -0.000070118   -0.000007544   -0.000023110
  12   C   :    0.000063437    0.000018830    0.000018324
  13   H   :   -0.000007771   -0.000005948   -0.000009039
  14   H   :    0.000010147   -0.000002744    0.000002748
  15   H   :   -0.000066928   -0.000010650    0.000059251
  16   C   :    0.000072493    0.000024080    0.000010351
  17   C   :   -0.000067017   -0.000014857   -0.000003533
  18   H   :    0.000009115   -0.000001581    0.000008749
  19   H   :   -0.000009310   -0.000001660   -0.000008177
  20   H   :    0.000069704    0.000007924   -0.000055670

Norm of the cartesian gradient     ...    0.000254208
RMS gradient                       ...    0.000032818
MAX gradient                       ...    0.000072493

-------
TIMINGS
-------

Total SCF gradient time            ...       18.842 sec

One electron gradient       ....       0.189 sec  (  1.0%)
Prescreening matrices       ....       0.039 sec  (  0.2%)
Two electron gradient       ....       6.481 sec  ( 34.4%)
XC gradient                 ....      11.950 sec  ( 63.4%)
------------------------------------------------------------------------------
                         ORCA GEOMETRY RELAXATION STEP
------------------------------------------------------------------------------

Reading the OPT-File                    .... done
Getting information on internals        .... done
Copying old internal coords+grads       .... done
Making the new internal coordinates     .... (new redundants).... done
Validating the new internal coordinates .... (new redundants).... done
Calculating the B-matrix                .... done
Calculating the G,G- and P matrices     .... done
Transforming gradient to internals      .... done
Projecting the internal gradient        .... done
Number of atoms                         ....  20
Number of internal coordinates          ....  90
Current Energy                          ....  -382.050784656 Eh
Current gradient norm                   ....     0.000254208 Eh/bohr
Maximum allowed component of the step   ....  0.300
Current trust radius                    ....  0.300
Evaluating the initial hessian          ....  (Almloef) done
Projecting the Hessian                  .... done
Forming the augmented Hessian           .... done
Diagonalizing the augmented Hessian     .... done
Last element of RFO vector              ....  0.999998358
Lowest eigenvalues of augmented Hessian:
 -0.000000904  0.012093102  0.016468327  0.018442532  0.021115259
Length of the computed step             ....  0.001812345
The final length of the internal step   ....  0.001812345
Converting the step to cartesian space:
 Initial RMS(Int)=    0.0001910379
Transforming coordinates:
 Iter   0:  RMS(Cart)=    0.0010025001 RMS(Int)=    2.2942322432
 Iter   1:  RMS(Cart)=    0.0000003590 RMS(Int)=    0.0000002148
 Iter   2:  RMS(Cart)=    0.0000000003 RMS(Int)=    0.0000000001
Imposing constraints:
 Iter   0:  RMS(Cart)=    0.0000000128 RMS(Int)=    0.0000000361
CONVERGED
done
Storing new coordinates                 .... done

                                .--------------------.
          ----------------------|Geometry convergence|---------------------
          Item                value                 Tolerance   Converged
          -----------------------------------------------------------------
          RMS gradient        0.00006205            0.00010000      YES
          MAX gradient        0.00026922            0.00030000      YES
          RMS step            0.00019104            0.00200000      YES
          MAX step            0.00068528            0.00400000      YES
          ....................................................
          Max(Bonds)      0.0001      Max(Angles)    0.04
          Max(Dihed)        0.02      Max(Improp)    0.00
          -----------------------------------------------------------------

                    ***********************HURRAY********************
                    ***        THE OPTIMIZATION HAS CONVERGED     ***
                    *************************************************


    ---------------------------------------------------------------------------
                         Redundant Internal Coordinates

                          --- Optimized Parameters ---  
                            (Angstroem and degrees)

        Definition                    OldVal   dE/dq     Step     FinalVal
    ----------------------------------------------------------------------------
     1. B(C   1,C   0)                1.4227 -0.000041  0.0000    1.4227   
     2. B(C   2,C   1)                1.4023 -0.000072  0.0001    1.4024   
     3. B(C   3,C   2)                1.4214 -0.000039  0.0000    1.4215   
     4. B(C   4,C   3)                1.4227 -0.000035  0.0000    1.4227   
     5. B(C   5,C   0)                1.4214 -0.000028  0.0000    1.4214   
     6. B(C   5,C   4)                1.4024 -0.000063  0.0001    1.4024   
     7. B(H   6,C   1)                1.0988 -0.000010  0.0000    1.0988   
     8. B(H   7,C   2)                1.0978  0.000066 -0.0001    1.0977   
     9. B(H   8,C   4)                1.0988 -0.000010  0.0000    1.0988   
    10. B(H   9,C   5)                1.0978  0.000065 -0.0001    1.0977   
    11. B(C  10,C   3)                1.4979 -0.000050  0.0001    1.4979   
    12. B(C  11,C  10)                1.3444 -0.000037  0.0000    1.3444   
    13. B(H  12,C  10)                1.1006  0.000007 -0.0000    1.1006   
    14. B(H  13,C  11)                1.0965 -0.000006  0.0000    1.0965   
    15. B(H  14,C  11)                1.0961 -0.000040  0.0001    1.0962   
    16. B(C  15,C   0)                1.4979 -0.000050  0.0001    1.4979   
    17. B(C  16,C  15)                1.3444 -0.000029  0.0000    1.3444   
    18. B(H  17,C  15)                1.1006  0.000009 -0.0000    1.1006   
    19. B(H  18,C  16)                1.0965 -0.000011  0.0000    1.0965   
    20. B(H  19,C  16)                1.0961 -0.000044  0.0001    1.0962   
    21. A(C   5,C   0,C  15)          123.04 -0.000129    0.02    123.06   
    22. A(C   1,C   0,C   5)          117.78  0.000039   -0.01    117.78   
    23. A(C   1,C   0,C  15)          119.18  0.000091   -0.01    119.17   
    24. A(C   0,C   1,C   2)          121.36 -0.000021    0.00    121.36   
    25. A(C   0,C   1,H   6)          119.03  0.000040   -0.01    119.03   
    26. A(C   2,C   1,H   6)          119.61 -0.000019    0.00    119.61   
    27. A(C   3,C   2,H   7)          119.77 -0.000000    0.00    119.77   
    28. A(C   1,C   2,C   3)          120.86 -0.000015    0.00    120.86   
    29. A(C   1,C   2,H   7)          119.37  0.000016   -0.00    119.37   
    30. A(C   2,C   3,C  10)          123.03 -0.000154    0.02    123.05   
    31. A(C   4,C   3,C  10)          119.19  0.000112   -0.02    119.17   
    32. A(C   2,C   3,C   4)          117.78  0.000041   -0.01    117.78   
    33. A(C   3,C   4,C   5)          121.36 -0.000025    0.00    121.36   
    34. A(C   3,C   4,H   8)          119.03  0.000042   -0.01    119.03   
    35. A(C   5,C   4,H   8)          119.61 -0.000017    0.00    119.61   
    36. A(C   0,C   5,C   4)          120.86 -0.000018    0.00    120.86   
    37. A(C   0,C   5,H   9)          119.77  0.000003   -0.00    119.77   
    38. A(C   4,C   5,H   9)          119.37  0.000016   -0.00    119.37   
    39. A(C   3,C  10,C  11)          126.58 -0.000269    0.04    126.62   
    40. A(C   3,C  10,H  12)          114.45  0.000143   -0.02    114.43   
    41. A(C  11,C  10,H  12)          118.96  0.000126   -0.02    118.95   
    42. A(C  10,C  11,H  13)          121.22  0.000075   -0.01    121.21   
    43. A(C  10,C  11,H  14)          122.64 -0.000119    0.02    122.66   
    44. A(H  13,C  11,H  14)          116.14  0.000044   -0.01    116.13   
    45. A(C   0,C  15,C  16)          126.59 -0.000246    0.04    126.63   
    46. A(C   0,C  15,H  17)          114.45  0.000131   -0.02    114.43   
    47. A(C  16,C  15,H  17)          118.96  0.000115   -0.02    118.94   
    48. A(C  15,C  16,H  18)          121.22  0.000071   -0.01    121.21   
    49. A(C  15,C  16,H  19)          122.64 -0.000114    0.02    122.66   
    50. A(H  18,C  16,H  19)          116.14  0.000043   -0.01    116.13   
    51. D(H   6,C   1,C   0,C  15)     -0.00 -0.000001   -0.00     -0.00   
    52. D(C   2,C   1,C   0,C  15)   -179.99  0.000003   -0.01   -180.00   
    53. D(C   2,C   1,C   0,C   5)     -0.01 -0.000002    0.01      0.00   
    54. D(H   6,C   1,C   0,C   5)    179.99 -0.000006    0.02    180.00   
    55. D(H   7,C   2,C   1,C   0)    179.99 -0.000002    0.01    180.00   
    56. D(C   3,C   2,C   1,H   6)   -179.99  0.000007   -0.02   -180.00   
    57. D(H   7,C   2,C   1,H   6)      0.00  0.000001   -0.00     -0.00   
    58. D(C   3,C   2,C   1,C   0)      0.01  0.000003   -0.01     -0.00   
    59. D(C   4,C   3,C   2,C   1)     -0.01 -0.000003    0.01      0.00   
    60. D(C   4,C   3,C   2,H   7)   -179.99  0.000002   -0.01   -180.00   
    61. D(C  10,C   3,C   2,C   1)   -180.00  0.000001   -0.00   -180.00   
    62. D(C  10,C   3,C   2,H   7)      0.02  0.000006   -0.02      0.00   
    63. D(C   5,C   4,C   3,C   2)      0.01  0.000004   -0.01     -0.00   
    64. D(C   5,C   4,C   3,C  10)    180.00 -0.000000    0.00    180.00   
    65. D(H   8,C   4,C   3,C   2)    180.00 -0.000000    0.00    180.00   
    66. D(H   8,C   4,C   3,C  10)     -0.01 -0.000004    0.01     -0.00   
    67. D(C   4,C   5,C   0,C   1)      0.01  0.000003   -0.01     -0.00   
    68. D(H   9,C   5,C   4,C   3)    179.99 -0.000004    0.01    180.00   
    69. D(H   9,C   5,C   0,C   1)   -179.99  0.000004   -0.01   -180.00   
    70. D(H   9,C   5,C   0,C  15)     -0.01 -0.000002    0.01      0.00   
    71. D(C   0,C   5,C   4,C   3)     -0.01 -0.000003    0.01      0.00   
    72. D(C   4,C   5,C   0,C  15)    179.99 -0.000003    0.01    180.00   
    73. D(C   0,C   5,C   4,H   8)   -180.00  0.000001   -0.00   -180.00   
    74. D(H   9,C   5,C   4,H   8)      0.00 -0.000001    0.00      0.00   
    75. D(C  11,C  10,C   3,C   2)     -0.01 -0.000002    0.01     -0.00   
    76. D(C  11,C  10,C   3,C   4)   -180.00  0.000002   -0.00   -180.00 C 
    77. D(H  12,C  10,C   3,C   2)    179.99 -0.000003    0.01    180.00   
    78. D(H  12,C  10,C   3,C   4)     -0.00  0.000001    0.00      0.00   
    79. D(H  13,C  11,C  10,C   3)    180.00 -0.000003    0.00    180.00   
    80. D(H  13,C  11,C  10,H  12)     -0.00 -0.000002    0.00     -0.00   
    81. D(H  14,C  11,C  10,C   3)      0.01  0.000009   -0.01      0.00   
    82. D(H  14,C  11,C  10,H  12)   -179.99  0.000010   -0.01   -180.00   
    83. D(C  16,C  15,C   0,C   1)   -180.00 -0.000000    0.00   -179.99   
    84. D(C  16,C  15,C   0,C   5)      0.01  0.000005   -0.01      0.00   
    85. D(H  17,C  15,C   0,C   1)     -0.01 -0.000006    0.02      0.00   
    86. D(H  17,C  15,C   0,C   5)   -180.00 -0.000000   -0.00   -180.00   
    87. D(H  18,C  16,C  15,C   0)    179.99 -0.000004    0.01    180.00   
    88. D(H  18,C  16,C  15,H  17)      0.01  0.000001   -0.00      0.00   
    89. D(H  19,C  16,C  15,C   0)     -0.02 -0.000010    0.02     -0.00   
    90. D(H  19,C  16,C  15,H  17)    180.00 -0.000004    0.00    180.00   
    ----------------------------------------------------------------------------
                 *******************************************************
                 *** FINAL ENERGY EVALUATION AT THE STATIONARY POINT ***
                 ***               (AFTER    1 CYCLES)               ***
                 *******************************************************
---------------------------------
CARTESIAN COORDINATES (ANGSTROEM)
---------------------------------
  C     -0.000423    0.000185    1.436021
  C      1.216005    0.000094    0.698169
  C      1.219034   -0.000014   -0.704236
  C      0.000421   -0.000061   -1.436020
  C     -1.216006    0.000043   -0.698169
  C     -1.219034    0.000148    0.704238
  H      2.170188    0.000072    1.243150
  H      2.176756   -0.000092   -1.240534
  H     -2.170191    0.000016   -1.243146
  H     -2.176757    0.000181    1.240540
  C     -0.053679   -0.000220   -2.932991
  C      0.995622   -0.000332   -3.773426
  H     -1.071486   -0.000219   -3.351698
  H      0.852883   -0.000423   -4.860591
  H      2.034220   -0.000321   -3.422859
  C      0.053718    0.000225    2.932981
  C     -0.995526    0.000209    3.773486
  H      1.071547    0.000247    3.351636
  H     -0.852693    0.000240    4.860640
  H     -2.034153    0.000198    3.422997

----------------------------
CARTESIAN COORDINATES (A.U.)
----------------------------
  NO LB      ZA    FRAG    MASS        X           Y           Z
   0 C     6.0000    0    12.011         -0.000799602424827          0.000350253111367          2.713686733869321
   1 C     6.0000    0    12.011          2.297916698992584          0.000178471537479          1.319347676436060
   2 C     6.0000    0    12.011          2.303639827922733         -0.000026676071662         -1.330813622870918
   3 C     6.0000    0    12.011          0.000795020107570         -0.000116126686346         -2.713684845671039
   4 C     6.0000    0    12.011         -2.297917494660569          0.000080878952889         -1.319347620033730
   5 C     6.0000    0    12.011         -2.303639608349642          0.000280011900992          1.330817369295858
   6 H     1.0000    0     1.008          4.101060686639880          0.000136935688311          2.349212660709963
   7 H     1.0000    0     1.008          4.113473577906421         -0.000173270207671         -2.344269537465830
   8 H     1.0000    0     1.008         -4.101066522765457          0.000030708658875         -2.349205011815687
   9 H     1.0000    0     1.008         -4.113475346087874          0.000342305559736          2.344280154947425
  10 C     6.0000    0    12.011         -0.101437713833434         -0.000416255889652         -5.542550305475512
  11 C     6.0000    0    12.011          1.881453073223392         -0.000627458249959         -7.130741070919472
  12 H     1.0000    0     1.008         -2.024814810758521         -0.000414281818899         -6.333791778798396
  13 H     1.0000    0     1.008          1.611714365714850         -0.000798821714615         -9.185185962935611
  14 H     1.0000    0     1.008          3.844118416197040         -0.000605959647091         -6.468265194268986
  15 C     6.0000    0    12.011          0.101512173128389          0.000424454460131          5.542531117227124
  16 C     6.0000    0    12.011         -1.881271243903926          0.000395895496244          7.130855046162853
  17 H     1.0000    0     1.008          2.024930820948740          0.000467379083889          6.333673445200629
  18 H     1.0000    0     1.008         -1.611356777134807          0.000452593009187          9.185279137269809
  19 H     1.0000    0     1.008         -3.843992744478906          0.000374353297271          6.468527044928176

--------------------------------
INTERNAL COORDINATES (ANGSTROEM)
--------------------------------
 C      0   0   0   0.000000     0.000     0.000
 C      1   0   0   1.422717     0.000     0.000
 C      2   1   0   1.402408   121.364     0.000
 C      3   2   1   1.421452   120.861     0.000
 C      4   3   2   1.422715   117.775     0.000
 C      5   4   3   1.402410   121.364     0.000
 H      2   1   3   1.098849   119.027   180.002
 H      3   2   1   1.097656   119.371   180.001
 H      5   4   3   1.098849   119.028   180.000
 H      6   5   4   1.097658   119.371   180.003
 C      4   3   2   1.497948   123.055   180.002
 C     11   4   3   1.344382   126.623     0.000
 H     11   4   3   1.100567   114.431   180.001
 H     12  11   4   1.096496   121.213   180.001
 H     12  11   4   1.096167   122.656     0.000
 C      1   2   3   1.497939   119.169   179.997
 C     16   1   2   1.344381   126.625   180.005
 H     16   1   2   1.100567   114.430     0.000
 H     17  16   1   1.096497   121.212   180.000
 H     17  16   1   1.096170   122.656     0.000

---------------------------
INTERNAL COORDINATES (A.U.)
---------------------------
 C      0   0   0   0.000000     0.000     0.000
 C      1   0   0   2.688546     0.000     0.000
 C      2   1   0   2.650167   121.364     0.000
 C      3   2   1   2.686155   120.861     0.000
 C      4   3   2   2.688542   117.775     0.000
 C      5   4   3   2.650171   121.364     0.000
 H      2   1   3   2.076524   119.027   180.002
 H      3   2   1   2.074269   119.371   180.001
 H      5   4   3   2.076524   119.028   180.000
 H      6   5   4   2.074274   119.371   180.003
 C      4   3   2   2.830712   123.055   180.002
 C     11   4   3   2.540513   126.623     0.000
 H     11   4   3   2.079770   114.431   180.001
 H     12  11   4   2.072077   121.213   180.001
 H     12  11   4   2.071456   122.656     0.000
 C      1   2   3   2.830694   119.169   179.997
 C     16   1   2   2.540512   126.625   180.005
 H     16   1   2   2.079771   114.430     0.000
 H     17  16   1   2.072079   121.212   180.000
 H     17  16   1   2.071462   122.656     0.000

---------------------
BASIS SET INFORMATION
---------------------
There are 2 groups of distinct atoms

 Group   1 Type C   : 6s3p contracted to 2s1p pattern {33/3}
 Group   2 Type H   : 3s contracted to 1s pattern {3}

Atom   0C    basis set group =>   1
Atom   1C    basis set group =>   1
Atom   2C    basis set group =>   1
Atom   3C    basis set group =>   1
Atom   4C    basis set group =>   1
Atom   5C    basis set group =>   1
Atom   6H    basis set group =>   2
Atom   7H    basis set group =>   2
Atom   8H    basis set group =>   2
Atom   9H    basis set group =>   2
Atom  10C    basis set group =>   1
Atom  11C    basis set group =>   1
Atom  12H    basis set group =>   2
Atom  13H    basis set group =>   2
Atom  14H    basis set group =>   2
Atom  15C    basis set group =>   1
Atom  16C    basis set group =>   1
Atom  17H    basis set group =>   2
Atom  18H    basis set group =>   2
Atom  19H    basis set group =>   2
------------------------------------------------------------------------------
                           ORCA GTO INTEGRAL CALCULATION
------------------------------------------------------------------------------

                         BASIS SET STATISTICS AND STARTUP INFO

 # of primitive gaussian shells          ...  120
 # of primitive gaussian functions       ...  180
 # of contracted shell                   ...   40
 # of contracted basis functions         ...   60
 Highest angular momentum                ...    1
 Maximum contraction depth               ...    3
 Integral package used                   ... LIBINT
 Integral threshhold            Thresh   ...  2.500e-11
 Primitive cut-off              TCut     ...  2.500e-12


                              INTEGRAL EVALUATION

 One electron integrals                  ... done
 Pre-screening matrix                    ... done
 Shell pair data                         ... done (   0.001 sec)

-------------------------------------------------------------------------------
                                 ORCA SCF
-------------------------------------------------------------------------------

------------
SCF SETTINGS
------------
Hamiltonian:
 Density Functional     Method          .... DFT(GTOs)
 Exchange Functional    Exchange        .... B88
   X-Alpha parameter    XAlpha          ....  0.666667
   Becke's b parameter  XBeta           ....  0.004200
 Correlation Functional Correlation     .... LYP
 LDA part of GGA corr.  LDAOpt          .... VWN-5
 Gradients option       PostSCFGGA      .... off
 Hybrid DFT is turned on
   Fraction HF Exchange ScalHFX         ....  0.200000
   Scaling of DF-GGA-X  ScalDFX         ....  0.720000
   Scaling of DF-GGA-C  ScalDFC         ....  0.810000
   Scaling of DF-LDA-C  ScalLDAC        ....  1.000000
   Perturbative correction              ....  0.000000
   NL short-range parameter             ....  4.800000


General Settings:
 Integral files         IntName         .... dvb_scan
 Hartree-Fock type      HFTyp           .... RHF
 Total Charge           Charge          ....    0
 Multiplicity           Mult            ....    1
 Number of Electrons    NEL             ....   70
 Basis Dimension        Dim             ....   60
 Nuclear Repulsion      ENuc            ....    445.8012400259 Eh

Convergence Acceleration:
 DIIS                   CNVDIIS         .... on
   Start iteration      DIISMaxIt       ....    12
   Startup error        DIISStart       ....  0.200000
   # of expansion vecs  DIISMaxEq       ....     5
   Bias factor          DIISBfac        ....   1.050
   Max. coefficient     DIISMaxC        ....  10.000
 Newton-Raphson         CNVNR           .... off
 SOSCF                  CNVSOSCF        .... on
   Start iteration      SOSCFMaxIt      ....   150
   Startup grad/error   SOSCFStart      ....  0.003300
 Level Shifting         CNVShift        .... on
   Level shift para.    LevelShift      ....    0.2500
   Turn off err/grad.   ShiftErr        ....    0.0010
 Zerner damping         CNVZerner       .... off
 Static damping         CNVDamp         .... on
   Fraction old density DampFac         ....    0.7000
   Max. Damping (<1)    DampMax         ....    0.9800
   Min. Damping (>=0)   DampMin         ....    0.0000
   Turn off err/grad.   DampErr         ....    0.1000
 Fernandez-Rico         CNVRico         .... off

SCF Procedure:
 Maximum # iterations   MaxIter         ....   125
 SCF integral mode      SCFMode         .... Direct
   Integral package                     .... LIBINT
 Reset frequeny         DirectResetFreq ....    20
 Integral Threshold     Thresh          ....  2.500e-11 Eh
 Primitive CutOff       TCut            ....  2.500e-12 Eh

Convergence Tolerance:
 Convergence Check Mode ConvCheckMode   .... Total+1el-Energy
 Energy Change          TolE            ....  1.000e-08 Eh
 1-El. energy change                    ....  1.000e-05 Eh
 Orbital Gradient       TolG            ....  1.000e-05
 Orbital Rotation angle TolX            ....  1.000e-05
 DIIS Error             TolErr          ....  5.000e-07


Diagonalization of the overlap matrix:
Smallest eigenvalue                        ... 1.815e-01
Time for diagonalization                   ...    0.002 sec
Threshold for overlap eigenvalues          ... 1.000e-08
Number of eigenvalues below threshold      ... 0
Time for construction of square roots      ...    0.001 sec
Total time needed                          ...    0.003 sec

---------------------
INITIAL GUESS: MOREAD
---------------------
Guess MOs are being read from file: dvb_scan.gbw
Input Geometry matches current geometry (good)
Input basis set matches current basis set (good)
MOs were renormalized
MOs were reorthogonalized (Schmidt)
                      ------------------
                      INITIAL GUESS DONE (   0.0 sec)
                      ------------------
-------------------
DFT GRID GENERATION
-------------------

General Integration Accuracy     IntAcc      ...  4.340
Radial Grid Type                 RadialGrid  ... Gauss-Chebyshev
Angular Grid (max. acc.)         AngularGrid ... Lebedev-110
Angular grid pruning method      GridPruning ... 3 (G Style)
Weight generation scheme         WeightScheme... Becke
Basis function cutoff            BFCut       ...    1.0000e-11
Integration weight cutoff        WCut        ...    1.0000e-14
Grids for H and He will be reduced by one unit

# of grid points (after initial pruning)     ...  24500 (   0.0 sec)
# of grid points (after weights+screening)   ...  22572 (   0.2 sec)
nearest neighbour list constructed           ...    0.0 sec
Grid point re-assignment to atoms done       ...    0.0 sec
Grid point division into batches done        ...    0.0 sec
Reduced shell lists constructed in    0.4 sec

Total number of grid points                  ...    22572
Total number of batches                      ...      362
Average number of points per batch           ...       62
Average number of grid points per atom       ...     1129
Average number of shells per batch           ...    26.96 (67.41%)
Average number of basis functions per batch  ...    44.09 (73.49%)
Average number of large shells per batch     ...    20.47 (75.92%)
Average number of large basis fcns per batch ...    34.28 (77.74%)
Maximum spatial batch extension              ...  20.53, 44.34, 18.54 au
Average spatial batch extension              ...   3.93,  5.57,  3.22 au

Time for grid setup =    0.626 sec

--------------
SCF ITERATIONS
--------------
ITER       Energy         Delta-E        Max-DP      RMS-DP      [F,P]     Damp
               ***  Starting incremental Fock matrix formation  ***
                      *** Initiating the SOSCF procedure ***
                      *** Re-Reading the Fockian *** 
                      *** Removing any level shift *** 
ITER      Energy       Delta-E        Grad      Rot      Max-DP    RMS-DP
  0   -382.04973008 -382.0497300826  0.000124  0.000124  0.000354  0.000020
               *** Restarting incremental Fock matrix formation ***
  1   -382.04973057  -0.0000004856  0.000030  0.000031  0.000124  0.000007
  2   -382.04973060  -0.0000000367  0.000003  0.000008  0.000022  0.000001
  3   -382.04973061  -0.0000000004  0.000005  0.000005  0.000014  0.000001
                  ***Gradient check signals convergence***
              ***Rediagonalizing the Fockian in SOSCF/NRSCF***

               *****************************************************
               *                     SUCCESS                       *
               *           SCF CONVERGED AFTER   4 CYCLES          *
               *****************************************************

Setting up the final grid:

General Integration Accuracy     IntAcc      ...  4.670
Radial Grid Type                 RadialGrid  ... Gauss-Chebyshev
Angular Grid (max. acc.)         AngularGrid ... Lebedev-302
Angular grid pruning method      GridPruning ... 3 (G Style)
Weight generation scheme         WeightScheme... Becke
Basis function cutoff            BFCut       ...    1.0000e-11
Integration weight cutoff        WCut        ...    1.0000e-14
Grids for H and He will be reduced by one unit

# of grid points (after initial pruning)     ...  96060 (   0.1 sec)
# of grid points (after weights+screening)   ...  87176 (   0.9 sec)
nearest neighbour list constructed           ...    0.0 sec
Grid point re-assignment to atoms done       ...    0.0 sec
Grid point division into batches done        ...    0.4 sec
Reduced shell lists constructed in    1.7 sec

Total number of grid points                  ...    87176
Total number of batches                      ...     1374
Average number of points per batch           ...       63
Average number of grid points per atom       ...     4359
Average number of shells per batch           ...    24.83 (62.09%)
Average number of basis functions per batch  ...    40.83 (68.04%)
Average number of large shells per batch     ...    18.28 (73.61%)
Average number of large basis fcns per batch ...    30.83 (75.52%)
Maximum spatial batch extension              ...  18.36, 23.20, 19.80 au
Average spatial batch extension              ...   2.49,  2.84,  2.27 au

Final grid set up in    2.7 sec
Final integration                            ... done (   1.4 sec)
Change in XC energy                          ...    -0.001054756
Integrated number of electrons               ...    69.999943785
Previous integrated no of electrons          ...    69.996573645

----------------
TOTAL SCF ENERGY
----------------

Total Energy       :         -382.05078536 Eh          -10396.13040 eV

Components:
Nuclear Repulsion  :          445.80124003 Eh           12130.86846 eV
Electronic Energy  :         -827.85202539 Eh          -22526.99886 eV

One Electron Energy:        -1400.36789051 Eh          -38105.94757 eV
Two Electron Energy:          572.51586513 Eh           15578.94871 eV

Virial components:
Potential Energy   :         -757.89032875 Eh          -20623.24431 eV
Kinetic Energy     :          375.83954339 Eh           10227.11391 eV
Virial Ratio       :            2.01652631


DFT components:
N(Alpha)           :       34.999971892578 electrons
N(Beta)            :       34.999971892578 electrons
N(Total)           :       69.999943785156 electrons
E(X)               :      -43.807921952901 Eh       
E(C)               :       -2.717747054051 Eh       
E(XC)              :      -46.525669006952 Eh       

---------------
SCF CONVERGENCE
---------------

  Last Energy change         ...   -4.3167e-10  Tolerance :   1.0000e-08
  Last MAX-Density change    ...    8.1704e-06  Tolerance :   1.0000e-07
  Last RMS-Density change    ...    2.9373e-07  Tolerance :   5.0000e-09
  Last Orbital Gradient      ...    1.0217e-06  Tolerance :   1.0000e-05
  Last Orbital Rotation      ...    3.2643e-06  Tolerance :   1.0000e-05

             **** THE GBW FILE WAS UPDATED (dvb_scan.gbw) ****
             **** DENSITY FILE WAS UPDATED (dvb_scan.scfp.tmp) ****
             **** ENERGY FILE WAS UPDATED (dvb_scan.en.tmp) ****
----------------
ORBITAL ENERGIES
----------------

  NO   OCC          E(Eh)            E(eV) 
   0   2.0000     -10.016213      -272.5550 
   1   2.0000     -10.016166      -272.5537 
   2   2.0000     -10.004146      -272.2267 
   3   2.0000     -10.004145      -272.2266 
   4   2.0000     -10.002878      -272.1921 
   5   2.0000     -10.002875      -272.1921 
   6   2.0000     -10.002154      -272.1725 
   7   2.0000     -10.002015      -272.1687 
   8   2.0000      -9.988585      -271.8032 
   9   2.0000      -9.988584      -271.8032 
  10   2.0000      -0.805760       -21.9259 
  11   2.0000      -0.750197       -20.4139 
  12   2.0000      -0.714199       -19.4343 
  13   2.0000      -0.696025       -18.9398 
  14   2.0000      -0.663810       -18.0632 
  15   2.0000      -0.584996       -15.9186 
  16   2.0000      -0.555206       -15.1079 
  17   2.0000      -0.527983       -14.3671 
  18   2.0000      -0.506488       -13.7822 
  19   2.0000      -0.453685       -12.3454 
  20   2.0000      -0.435614       -11.8537 
  21   2.0000      -0.406958       -11.0739 
  22   2.0000      -0.394244       -10.7279 
  23   2.0000      -0.392490       -10.6802 
  24   2.0000      -0.370264       -10.0754 
  25   2.0000      -0.347541        -9.4571 
  26   2.0000      -0.343649        -9.3512 
  27   2.0000      -0.320711        -8.7270 
  28   2.0000      -0.307569        -8.3694 
  29   2.0000      -0.289116        -7.8673 
  30   2.0000      -0.283775        -7.7219 
  31   2.0000      -0.259749        -7.0681 
  32   2.0000      -0.208638        -5.6773 
  33   2.0000      -0.191305        -5.2057 
  34   2.0000      -0.149342        -4.0638 
  35   0.0000       0.041112         1.1187 
  36   0.0000       0.094079         2.5600 
  37   0.0000       0.114332         3.1111 
  38   0.0000       0.185842         5.0570 
  39   0.0000       0.276113         7.5134 
  40   0.0000       0.335653         9.1336 
  41   0.0000       0.344207         9.3664 
[...]

--------------
SCF ITERATIONS
--------------
ITER       Energy         Delta-E        Max-DP      RMS-DP      [F,P]     Damp
               ***  Starting incremental Fock matrix formation  ***
                      *** Initiating the SOSCF procedure ***
                      *** Re-Reading the Fockian *** 
                      *** Removing any level shift *** 
ITER      Energy       Delta-E        Grad      Rot      Max-DP    RMS-DP
  0   -382.05110419 -382.0511041896  0.000055  0.000055  0.000201  0.000013
               *** Restarting incremental Fock matrix formation ***
  1   -382.05110439  -0.0000002024  0.000020  0.000052  0.000102  0.000007
  2   -382.05110442  -0.0000000315  0.000008  0.000026  0.000067  0.000003
  3   -382.05110442   0.0000000019  0.000017  0.000018  0.000044  0.000002
                 **** Energy Check signals convergence ****
              ***Rediagonalizing the Fockian in SOSCF/NRSCF***

               *****************************************************
               *                     SUCCESS                       *
               *           SCF CONVERGED AFTER   4 CYCLES          *
               *****************************************************

Setting up the final grid:

General Integration Accuracy     IntAcc      ...  4.670
Radial Grid Type                 RadialGrid  ... Gauss-Chebyshev
Angular Grid (max. acc.)         AngularGrid ... Lebedev-302
Angular grid pruning method      GridPruning ... 3 (G Style)
Weight generation scheme         WeightScheme... Becke
Basis function cutoff            BFCut       ...    1.0000e-11
Integration weight cutoff        WCut        ...    1.0000e-14
Grids for H and He will be reduced by one unit

# of grid points (after initial pruning)     ...  96060 (   0.1 sec)
# of grid points (after weights+screening)   ...  87406 (   0.9 sec)
nearest neighbour list constructed           ...    0.0 sec
Grid point re-assignment to atoms done       ...    0.0 sec
Grid point division into batches done        ...    0.5 sec
Reduced shell lists constructed in    1.7 sec

Total number of grid points                  ...    87406
Total number of batches                      ...     1375
Average number of points per batch           ...       63
Average number of grid points per atom       ...     4370
Average number of shells per batch           ...    24.87 (62.18%)
Average number of basis functions per batch  ...    40.89 (68.16%)
Average number of large shells per batch     ...    18.33 (73.71%)
Average number of large basis fcns per batch ...    30.89 (75.53%)
Maximum spatial batch extension              ...  21.09, 20.64, 17.66 au
Average spatial batch extension              ...   2.82,  2.66,  2.36 au

Final grid set up in    2.7 sec
Final integration                            ... done (   1.4 sec)
Change in XC energy                          ...     0.000313164
Integrated number of electrons               ...    69.999997158
Previous integrated no of electrons          ...    70.004388807

----------------
TOTAL SCF ENERGY
----------------

Total Energy       :         -382.05079126 Eh          -10396.13056 eV

Components:
Nuclear Repulsion  :          445.77871616 Eh           12130.25556 eV
Electronic Energy  :         -827.82950742 Eh          -22526.38612 eV

One Electron Energy:        -1400.32562682 Eh          -38104.79752 eV
Two Electron Energy:          572.49611940 Eh           15578.41140 eV

Virial components:
Potential Energy   :         -757.89123478 Eh          -20623.26897 eV
Kinetic Energy     :          375.84044352 Eh           10227.13841 eV
Virial Ratio       :            2.01652389


DFT components:
N(Alpha)           :       34.999998579221 electrons
N(Beta)            :       34.999998579221 electrons
N(Total)           :       69.999997158443 electrons
E(X)               :      -43.807875009014 Eh       
E(C)               :       -2.717739649590 Eh       
E(XC)              :      -46.525614658604 Eh       

---------------
SCF CONVERGENCE
---------------

  Last Energy change         ...   -2.9443e-09  Tolerance :   1.0000e-08
  Last MAX-Density change    ...    2.5088e-06  Tolerance :   1.0000e-07
  Last RMS-Density change    ...    1.2722e-07  Tolerance :   5.0000e-09
  Last Orbital Gradient      ...    2.4140e-07  Tolerance :   1.0000e-05
  Last Orbital Rotation      ...    1.3720e-06  Tolerance :   1.0000e-05

             **** THE GBW FILE WAS UPDATED (dvb_scan.gbw) ****
             **** DENSITY FILE WAS UPDATED (dvb_scan.scfp.tmp) ****
             **** ENERGY FILE WAS UPDATED (dvb_scan.en.tmp) ****
----------------
ORBITAL ENERGIES
----------------

  NO   OCC          E(Eh)            E(eV) 
   0   2.0000     -10.016272      -272.5566 
   1   2.0000     -10.016225      -272.5553 
   2   2.0000     -10.004127      -272.2261 
   3   2.0000     -10.004126      -272.2261 
   4   2.0000     -10.002820      -272.1906 
   5   2.0000     -10.002815      -272.1904 
   6   2.0000     -10.002078      -272.1704 
   7   2.0000     -10.001940      -272.1666 
   8   2.0000      -9.988409      -271.7984 
   9   2.0000      -9.988409      -271.7984 
  10   2.0000      -0.805722       -21.9248 
  11   2.0000      -0.750234       -20.4149 
  12   2.0000      -0.714234       -19.4353 
  13   2.0000      -0.696028       -18.9399 
  14   2.0000      -0.663820       -18.0635 
  15   2.0000      -0.585031       -15.9195 
  16   2.0000      -0.555170       -15.1069 
  17   2.0000      -0.527973       -14.3669 
  18   2.0000      -0.506488       -13.7822 
  19   2.0000      -0.453649       -12.3444 
  20   2.0000      -0.435642       -11.8544 
  21   2.0000      -0.406906       -11.0725 
  22   2.0000      -0.394224       -10.7274 
  23   2.0000      -0.392421       -10.6783 
  24   2.0000      -0.370242       -10.0748 
  25   2.0000      -0.347430        -9.4540 
  26   2.0000      -0.343526        -9.3478 
  27   2.0000      -0.320786        -8.7290 
  28   2.0000      -0.307516        -8.3679 
  29   2.0000      -0.289064        -7.8658 
  30   2.0000      -0.283761        -7.7215 
  31   2.0000      -0.259864        -7.0713 
  32   2.0000      -0.208801        -5.6818 
  33   2.0000      -0.191413        -5.2086 
  34   2.0000      -0.149451        -4.0668 
  35   0.0000       0.041021         1.1163 
  36   0.0000       0.093918         2.5556 
  37   0.0000       0.114205         3.1077 
  38   0.0000       0.185777         5.0552 
  39   0.0000       0.276017         7.5108 
  40   0.0000       0.335625         9.1328 
  41   0.0000       0.344271         9.3681 
  42   0.0000       0.382798        10.4165 
  43   0.0000       0.384908        10.4739 
  44   0.0000       0.414381        11.2759 
  45   0.0000       0.415384        11.3032 
  46   0.0000       0.430164        11.7054 
  47   0.0000       0.442863        12.0509 
  48   0.0000       0.455905        12.4058 
  49   0.0000       0.481480        13.1017 
  50   0.0000       0.529720        14.4144 
  51   0.0000       0.549076        14.9411 
  52   0.0000       0.579362        15.7652 
  53   0.0000       0.602845        16.4042 
  54   0.0000       0.628404        17.0998 
  55   0.0000       0.642890        17.4939 
  56   0.0000       0.686408        18.6781 
  57   0.0000       0.720599        19.6085 
  58   0.0000       0.782892        21.3036 
  59   0.0000       0.797848        21.7106 

                    ********************************
                    * MULLIKEN POPULATION ANALYSIS *
                    ********************************

-----------------------
MULLIKEN ATOMIC CHARGES
-----------------------
   0 C :   -0.004404
   1 C :   -0.076339
   2 C :   -0.077013
   3 C :   -0.004408
   4 C :   -0.076337
   5 C :   -0.077019
   6 H :    0.077383
   7 H :    0.079018
   8 H :    0.077385
   9 H :    0.079018
  10 C :   -0.076259
  11 C :   -0.154418
  12 H :    0.076705
  13 H :    0.079088
  14 H :    0.076233
  15 C :   -0.076251
  16 C :   -0.154421
  17 H :    0.076708
  18 H :    0.079088
  19 H :    0.076243
Sum of atomic charges:   -0.0000000

--------------------------------
MULLIKEN REDUCED ORBITAL CHARGES
--------------------------------
  0 C s       :     3.136974  s :     3.136974
      pz      :     0.929872  p :     2.867430
      px      :     0.981124
      py      :     0.956434
  1 C s       :     3.151187  s :     3.151187
      pz      :     0.954180  p :     2.925152
      px      :     0.991845
      py      :     0.979128
  2 C s       :     3.148794  s :     3.148794
      pz      :     0.958551  p :     2.928219
      px      :     0.994828
      py      :     0.974840
  3 C s       :     3.136962  s :     3.136962
      pz      :     0.929874  p :     2.867446
      px      :     0.981161
      py      :     0.956411
  4 C s       :     3.151187  s :     3.151187
      pz      :     0.954173  p :     2.925149
      px      :     0.991853
      py      :     0.979123
  5 C s       :     3.148793  s :     3.148793
      pz      :     0.958547  p :     2.928226
      px      :     0.994795
      py      :     0.974884
  6 H s       :     0.922617  s :     0.922617
  7 H s       :     0.920982  s :     0.920982
  8 H s       :     0.922615  s :     0.922615
  9 H s       :     0.920982  s :     0.920982
 10 C s       :     3.153895  s :     3.153895
      pz      :     0.935543  p :     2.922364
      px      :     0.995578
      py      :     0.991243
 11 C s       :     3.168993  s :     3.168993
      pz      :     0.990533  p :     2.985425
      px      :     1.000561
      py      :     0.994332
 12 H s       :     0.923295  s :     0.923295
 13 H s       :     0.920912  s :     0.920912
 14 H s       :     0.923767  s :     0.923767
 15 C s       :     3.153913  s :     3.153913
      pz      :     0.935536  p :     2.922338
      px      :     0.995531
      py      :     0.991271
 16 C s       :     3.169001  s :     3.169001
      pz      :     0.990558  p :     2.985421
      px      :     1.000470
      py      :     0.994392
 17 H s       :     0.923292  s :     0.923292
 18 H s       :     0.920912  s :     0.920912
 19 H s       :     0.923757  s :     0.923757


                     *******************************
                     * LOEWDIN POPULATION ANALYSIS *
                     *******************************

----------------------
LOEWDIN ATOMIC CHARGES
----------------------
   0 C :    0.003759
   1 C :   -0.043727
   2 C :   -0.044147
   3 C :    0.003754
   4 C :   -0.043725
   5 C :   -0.044154
   6 H :    0.041730
   7 H :    0.043532
   8 H :    0.041732
   9 H :    0.043533
  10 C :   -0.038860
  11 C :   -0.091304
  12 H :    0.041038
  13 H :    0.044860
  14 H :    0.043114
  15 C :   -0.038854
  16 C :   -0.091306
  17 H :    0.041041
  18 H :    0.044860
  19 H :    0.043124

-------------------------------
LOEWDIN REDUCED ORBITAL CHARGES
-------------------------------
  0 C s       :     3.032433  s :     3.032433
      pz      :     0.975091  p :     2.963809
      px      :     0.993468
      py      :     0.995250
  1 C s       :     3.032129  s :     3.032129
      pz      :     1.004542  p :     3.011599
      px      :     1.002051
      py      :     1.005006
  2 C s       :     3.029501  s :     3.029501
      pz      :     1.006078  p :     3.014645
      px      :     1.003695
      py      :     1.004872
  3 C s       :     3.032420  s :     3.032420
      pz      :     0.975096  p :     2.963826
      px      :     0.993488
      py      :     0.995242
  4 C s       :     3.032129  s :     3.032129
      pz      :     1.004536  p :     3.011596
      px      :     1.002054
      py      :     1.005006
  5 C s       :     3.029502  s :     3.029502
      pz      :     1.006073  p :     3.014653
      px      :     1.003658
      py      :     1.004921
  6 H s       :     0.958270  s :     0.958270
  7 H s       :     0.956468  s :     0.956468
  8 H s       :     0.958268  s :     0.958268
  9 H s       :     0.956467  s :     0.956467
 10 C s       :     3.033536  s :     3.033536
      pz      :     0.984182  p :     3.005324
      px      :     1.004840
      py      :     1.016302
 11 C s       :     3.033163  s :     3.033163
      pz      :     1.025097  p :     3.058141
      px      :     1.011848
      py      :     1.021196
 12 H s       :     0.958962  s :     0.958962
 13 H s       :     0.955140  s :     0.955140
 14 H s       :     0.956886  s :     0.956886
 15 C s       :     3.033554  s :     3.033554
      pz      :     0.984149  p :     3.005299
      px      :     1.004972
      py      :     1.016178
 16 C s       :     3.033168  s :     3.033168
      pz      :     1.025092  p :     3.058138
      px      :     1.011964
      py      :     1.021082
 17 H s       :     0.958959  s :     0.958959
 18 H s       :     0.955140  s :     0.955140
 19 H s       :     0.956876  s :     0.956876


                      *****************************
                      * MAYER POPULATION ANALYSIS *
                      *****************************

  NA   - Mulliken gross atomic population
  ZA   - Total nuclear charge
  QA   - Mulliken gross atomic charge
  VA   - Mayer's total valence
  BVA  - Mayer's bonded valence
  FA   - Mayer's free valence

  ATOM       NA         ZA         QA         VA         BVA        FA
  0 C      6.0044     6.0000    -0.0044     3.9730     3.9730    -0.0000
  1 C      6.0763     6.0000    -0.0763     3.9692     3.9692     0.0000
  2 C      6.0770     6.0000    -0.0770     3.9701     3.9701     0.0000
  3 C      6.0044     6.0000    -0.0044     3.9730     3.9730     0.0000
  4 C      6.0763     6.0000    -0.0763     3.9692     3.9692    -0.0000
  5 C      6.0770     6.0000    -0.0770     3.9701     3.9701    -0.0000
  6 H      0.9226     1.0000     0.0774     0.9940     0.9940     0.0000
  7 H      0.9210     1.0000     0.0790     0.9938     0.9938    -0.0000
  8 H      0.9226     1.0000     0.0774     0.9940     0.9940     0.0000
  9 H      0.9210     1.0000     0.0790     0.9938     0.9938     0.0000
 10 C      6.0763     6.0000    -0.0763     3.9681     3.9681    -0.0000
 11 C      6.1544     6.0000    -0.1544     3.9648     3.9648    -0.0000
 12 H      0.9233     1.0000     0.0767     0.9941     0.9941    -0.0000
 13 H      0.9209     1.0000     0.0791     0.9937     0.9937     0.0000
 14 H      0.9238     1.0000     0.0762     0.9942     0.9942    -0.0000
 15 C      6.0763     6.0000    -0.0763     3.9681     3.9681     0.0000
 16 C      6.1544     6.0000    -0.1544     3.9648     3.9648     0.0000
 17 H      0.9233     1.0000     0.0767     0.9941     0.9941     0.0000
 18 H      0.9209     1.0000     0.0791     0.9937     0.9937    -0.0000
 19 H      0.9238     1.0000     0.0762     0.9942     0.9942     0.0000

  Mayer bond orders larger than 0.1
B(  0-C ,  1-C ) :   1.3625 B(  0-C ,  5-C ) :   1.3654 B(  0-C , 15-C ) :   1.0665 
B(  1-C ,  2-C ) :   1.4652 B(  1-C ,  6-H ) :   0.9614 B(  2-C ,  3-C ) :   1.3654 
B(  2-C ,  5-C ) :   0.1019 B(  2-C ,  7-H ) :   0.9596 B(  3-C ,  4-C ) :   1.3625 
B(  3-C , 10-C ) :   1.0665 B(  4-C ,  5-C ) :   1.4653 B(  4-C ,  8-H ) :   0.9614 
B(  5-C ,  9-H ) :   0.9596 B( 10-C , 11-C ) :   1.9012 B( 10-C , 12-H ) :   0.9591 
B( 11-C , 13-H ) :   0.9693 B( 11-C , 14-H ) :   0.9665 B( 15-C , 16-C ) :   1.9012 
B( 15-C , 17-H ) :   0.9591 B( 16-C , 18-H ) :   0.9693 B( 16-C , 19-H ) :   0.9665 


-------
TIMINGS
-------

Total SCF time: 0 days 0 hours 0 min 16 sec 

Total time                  ....      16.167 sec
Sum of individual times     ....      16.147 sec  ( 99.9%)

Fock matrix formation       ....      12.755 sec  ( 78.9%)
  Coulomb formation         ....       9.458 sec  ( 74.2% of F)
  XC integration            ....       3.294 sec  ( 25.8% of F)
    Basis function eval.    ....       1.893 sec  ( 57.5% of XC)
    Density eval.           ....       0.496 sec  ( 15.1% of XC)
    XC-Functional eval.     ....       0.465 sec  ( 14.1% of XC)
    XC-Potential eval.      ....       0.350 sec  ( 10.6% of XC)
Diagonalization             ....       0.004 sec  (  0.0%)
Density matrix formation    ....       0.001 sec  (  0.0%)
Population analysis         ....       0.004 sec  (  0.0%)
Initial guess               ....       0.003 sec  (  0.0%)
Orbital Transformation      ....       0.000 sec  (  0.0%)
Orbital Orthonormalization  ....       0.002 sec  (  0.0%)
DIIS solution               ....       0.000 sec  (  0.0%)
SOSCF solution              ....       0.005 sec  (  0.0%)
Grid generation             ....       3.374 sec  ( 20.9%)

-------------------------   --------------------
FINAL SINGLE POINT ENERGY      -382.050791260991
-------------------------   --------------------

                                *** OPTIMIZATION RUN DONE ***

Storing optimized geometry in dvb_scan.013.xyz ... done
Storing optimized geometry and energy in dvb_scan.xyzall ... done
Storing actual gbw-file in dvb_scan.013.gbw ... done

                            ***************************************
                            *     ORCA property calculations      *
                            ***************************************

                                    ---------------------
                                    Active property flags
                                    ---------------------
   (+) Dipole Moment


------------------------------------------------------------------------------
                       ORCA ELECTRIC PROPERTIES CALCULATION
------------------------------------------------------------------------------

Dipole Moment Calculation                       ... on
Quadrupole Moment Calculation                   ... off
Polarizability Calculation                      ... off
GBWName                                         ... dvb_scan.gbw
Electron density file                           ... dvb_scan.scfp.tmp

-------------
DIPOLE MOMENT
-------------
                                X             Y             Z
Electronic contribution:      0.00515      -0.00280       0.00091
Nuclear contribution   :     -0.00520       0.00285      -0.00082
                        -----------------------------------------
Total Dipole Moment    :     -0.00005       0.00005       0.00009
                        -----------------------------------------
Magnitude (a.u.)       :      0.00011
Magnitude (Debye)      :      0.00027

                   **** RELAXED SURFACE SCAN DONE ***

                    SUMMARY OF THE CALCULATED SURFACE

----------------------------
RELAXED SURFACE SCAN RESULTS
----------------------------

Column   1: NONAME

The Calculated Surface using the 'Actual Energy'
 -180.00000000 -382.05078536
 -150.00000000 -382.04947123
 -120.00000000 -382.04517134
 -90.00000000 -382.04208869
 -60.00000000 -382.04512723
 -30.00000000 -382.04946339
   0.00000000 -382.05078747
  30.00000000 -382.04947633
  60.00000000 -382.04513544
  90.00000000 -382.04210184
 120.00000000 -382.04518619
 150.00000000 -382.04948903
 180.00000000 -382.05079126

The Calculated Surface using the SCF energy
 -180.00000000 -382.05078536
 -150.00000000 -382.04947123
 -120.00000000 -382.04517134
 -90.00000000 -382.04208869
 -60.00000000 -382.04512723
 -30.00000000 -382.04946339
   0.00000000 -382.05078747
  30.00000000 -382.04947633
  60.00000000 -382.04513544
  90.00000000 -382.04210184
 120.00000000 -382.04518619
 150.00000000 -382.04948903
 180.00000000 -382.05079126


Timings for individual modules:

Sum of individual times         ...     3798.657 sec (=  63.311 min)
GTO integral calculation        ...       36.660 sec (=   0.611 min)   1.0 %
SCF iterations                  ...     2326.279 sec (=  38.771 min)  61.2 %
SCF Gradient evaluation         ...     1426.524 sec (=  23.775 min)  37.6 %
Geometry relaxation             ...        9.195 sec (=   0.153 min)   0.2 %
                             ****ORCA TERMINATED NORMALLY****
TOTAL RUN TIME: 0 days 1 hours 3 minutes 36 seconds 401 msec
