
                                 *****************
                                 * O   R   C   A *
                                 *****************

           --- An Ab Initio, DFT and Semiempirical electronic structure package ---

                  #######################################################
                  #                        -***-                        #
                  #  Department of molecular theory and spectroscopy    #
                  #              Directorship: Frank Neese              #
                  # Max Planck Institute for Chemical Energy Conversion #
                  #                  D-45470 Muelheim/Ruhr              #
                  #                       Germany                       #
                  #                                                     #
                  #                  All rights reserved                #
                  #                        -***-                        #
                  #######################################################


                         Program Version 3.0.1 -  RELEASE  -


 With contributions from (in alphabetic order):
   Ute Becker             : Parallelization
   Dmytro Bykov           : SCF Hessian
   Dmitry Ganyushin       : Spin-Orbit,Spin-Spin,Magnetic field MRCI
   Andreas Hansen         : Spin unrestricted coupled pair/coupled cluster methods
   Dimitrios Liakos       : Extrapolation schemes; parallel MDCI
   Robert Izsak           : Overlap fitted RIJCOSX, COSX-SCS-MP3
   Christian Kollmar      : KDIIS, OOCD, Brueckner-CCSD(T), CCSD density
   Simone Kossmann        : Meta GGA functionals, TD-DFT gradient, OOMP2, MP2 Hessian
   Taras Petrenko         : DFT Hessian,TD-DFT gradient, ASA and ECA modules, normal mode analysis, Resonance Raman, ABS, FL, XAS/XES, NRVS
   Christoph Reimann      : Effective Core Potentials
   Michael Roemelt        : Restricted open shell CIS
   Christoph Riplinger    : Improved optimizer, TS searches, QM/MM, DLPNO-CCSD
   Barbara Sandhoefer     : DKH picture change effects
   Igor Schapiro          : Molecular dynamics
   Kantharuban Sivalingam : CASSCF convergence, NEVPT2
   Boris Wezisla          : Elementary symmetry handling
   Frank Wennmohs         : Technical directorship


 We gratefully acknowledge several colleagues who have allowed us to
 interface, adapt or use parts of their codes:
   Stefan Grimme, W. Hujo, H. Kruse, T. Risthaus : VdW corrections, initial TS optimization,
                                                   DFT functionals, gCP
   Ed Valeev                                     : LibInt (2-el integral package), F12 methods
   Garnet Chan, S. Sharma, R. Olivares           : DMRG
   Ulf Ekstrom                                   : XCFun DFT Library
   Mihaly Kallay                                 : mrcc  (arbitrary order and MRCC methods)
   Andreas Klamt, Michael Diedenhofen            : otool_cosmo (COSMO solvation model)
   Frank Weinhold                                : gennbo (NPA and NBO analysis)


 Your calculation uses the libint2 library for the computation of 2-el integrals
 For citations please refer to: http://libint.valeyev.net

 This ORCA versions uses:
   CBLAS   interface :  Fast vector & matrix operations
   LAPACKE interface :  Fast linear algebra routines
   SCALAPACK package :  Parallel linear algebra routines


================================================================================
                                        WARNINGS
                       Please study these warnings very carefully!
================================================================================
Now building the actual basis set
WARNING: Gradients needed for Numerical Frequencies
  ===> : Setting RunTyp to EnGrad


INFO   : the flag for use of LIBINT has been found!

================================================================================
                                       INPUT FILE
================================================================================
NAME = dvb_raman.inp
|  1> # Raman frequency single point restricted B3LYP/sto-3g calc
|  2> ! RKS STO-3G B3LYP UseSym NumFreq
|  3> %elprop Polar 1
|  4> end
|  5> * xyz 0 1
|  6>  C                  0.27867948   -1.36683162    0.00000000
|  7>  C                  1.32303041   -0.44173575    0.00000000
|  8>  C                  1.04434506    0.92484978    0.00000000
|  9>  C                 -0.27867948    1.36683162    0.00000000
| 10>  C                 -1.32303041    0.44173575    0.00000000
| 11>  C                 -1.04434506   -0.92484978    0.00000000
| 12>  H                  2.36595443   -0.79037726    0.00000000
| 13>  H                  1.86746094    1.65407997    0.00000000
| 14>  H                 -2.36595443    0.79037726    0.00000000
| 15>  H                 -1.86746094   -1.65407997    0.00000000
| 16>  C                 -0.58659169    2.87589931    0.00000000
| 17>  C                  0.36350188    3.80076420    0.00000000
| 18>  H                 -1.65647768    3.12394312    0.00000000
| 19>  H                  0.14429560    4.87693235    0.00000000
| 20>  H                  1.43338788    3.55272039    0.00000000
| 21>  C                  0.58659169   -2.87589931    0.00000000
| 22>  C                 -0.36350188   -3.80076420    0.00000000
| 23>  H                  1.65647768   -3.12394312    0.00000000
| 24>  H                 -0.14429560   -4.87693235    0.00000000
| 25>  H                 -1.43338788   -3.55272039    0.00000000
| 26> *
| 27> 
| 28> 
| 29>                          ****END OF INPUT****
================================================================================

------------------------------------------------------------------------------
                            SYMMETRY HANDLING SETUP
------------------------------------------------------------------------------

------------------
SYMMETRY DETECTION
------------------
Preparing Data                    ... done
Detection Threshold:    SymThresh ... 1.0000e-04

Point Group will now be determined:
Moving molecule to center of mass ... done

POINT GROUP                       ... C2h

The coordinates will now be cleaned:
Moving to standard coord frame    ... done
(Changed main axis to z and atom 0 to xz plane)
Structure cleanup requested       ... yes
Selected point group              ... C2h
Cleaning Tolerance      SymThresh ... 1.0000e-04

Some missing point group data is constructed:
Constructing symmetry operations  ... done
Creating atom transfer table      ... done
Creating asymmetric unit          ... done

Cleaning coordinates              ... done

-----------------------------------------------
SYMMETRY-PERFECTED CARTESIAN COORDINATES (A.U.)
-----------------------------------------------
   0 C     2.63607715   0.00000000   0.00000000 
   1 C     1.31740777   2.28299936   0.00000000 
   2 C    -1.31821593   2.28289559   0.00000000 
   3 C    -2.63607715  -0.00000000   0.00000000 
   4 C    -1.31740777  -2.28299936   0.00000000 
   5 C     1.31821593  -2.28289559   0.00000000 
   6 H     2.35669238   4.08249013   0.00000000 
   7 H    -2.35773573   4.08230509   0.00000000 
   8 H    -2.35669238  -4.08249013   0.00000000 
   9 H     2.35773573  -4.08230509   0.00000000 
  10 C    -5.54655919  -0.00043072   0.00000000 
  11 C    -6.90038530   2.10795152   0.00000000 
  12 H    -6.40975269  -1.88782318   0.00000000 
  13 H    -8.97580815   2.10834154   0.00000000 
  14 H    -6.03719180   3.99534399   0.00000000 
  15 C     5.54655919   0.00043072   0.00000000 
  16 C     6.90038530  -2.10795152   0.00000000 
  17 H     6.40975269   1.88782318   0.00000000 
  18 H     8.97580815  -2.10834154   0.00000000 
  19 H     6.03719180  -3.99534399   0.00000000 

------------------
SYMMETRY REDUCTION
------------------
ORCA supports only abelian point groups.
It is now checked, if the determined point group is supported:
Point Group ( C2h   ) is          ... supported

(Re)building abelian point group:
Creating Character Table          ... done
Making direct product table       ... done

----------------------
ASYMMETRIC UNIT IN C2h
----------------------
  #  AT     MASS              COORDS (A.U.)             BAS
   0 C   12.0110   2.63607715   0.00000000   0.00000000   0
   1 C   12.0110   1.31740777   2.28299936   0.00000000   0
   2 C   12.0110  -1.31821593   2.28289559   0.00000000   0
   6 H    1.0080   2.35669238   4.08249013   0.00000000   0
   7 H    1.0080  -2.35773573   4.08230509   0.00000000   0
  10 C   12.0110  -5.54655919  -0.00043072   0.00000000   0
  11 C   12.0110  -6.90038530   2.10795152   0.00000000   0
  12 H    1.0080  -6.40975269  -1.88782318   0.00000000   0
  13 H    1.0080  -8.97580815   2.10834154   0.00000000   0
  14 H    1.0080  -6.03719180   3.99534399   0.00000000   0

----------------------
SYMMETRY ADOPTED BASIS
----------------------
The coefficients for the symmetry adopted linear combinations (SALCS)
of basis functions will now be computed:
Number of basis functions         ...    60
Preparing memory                  ... done
Constructing Gamma(red)           ... done
Reducing Gamma(red)               ... done
Constructing SALCs                ... done
Checking SALC integrity           ... nothing suspicious
Normalizing SALCs                 ... done

Storing the symmetry object:
Symmetry file                     ... dvb_raman.sym.tmp
Writing symmetry information      ... done

                     *******************************
                     * Energy+Gradient Calculation *
                     *******************************

---------------------------------
CARTESIAN COORDINATES (ANGSTROEM)
---------------------------------
  C      1.394952    0.000000    0.000000
  C      0.697142    1.208111    0.000000
  C     -0.697570    1.208056    0.000000
  C     -1.394952   -0.000000    0.000000
  C     -0.697142   -1.208111    0.000000
  C      0.697570   -1.208056    0.000000
  H      1.247108    2.160361    0.000000
  H     -1.247660    2.160263    0.000000
  H     -1.247108   -2.160361    0.000000
  H      1.247660   -2.160263    0.000000
  C     -2.935113   -0.000228    0.000000
  C     -3.651527    1.115480    0.000000
  H     -3.391895   -0.998993    0.000000
  H     -4.749793    1.115686    0.000000
  H     -3.194744    2.114245    0.000000
  C      2.935113    0.000228    0.000000
  C      3.651527   -1.115480    0.000000
  H      3.391895    0.998993    0.000000
  H      4.749793   -1.115686    0.000000
  H      3.194744   -2.114245    0.000000

----------------------------
CARTESIAN COORDINATES (A.U.)
----------------------------
  NO LB      ZA    FRAG    MASS        X           Y           Z
   0 C     6.0000    0    12.011          2.636077146806754          0.000000000000000          0.000000000000000
   1 C     6.0000    0    12.011          1.317407765783755          2.282999362580441          0.000000000000000
   2 C     6.0000    0    12.011         -1.318215929010396          2.282895588610149          0.000000000000000
   3 C     6.0000    0    12.011         -2.636077146806754         -0.000000000000000          0.000000000000000
   4 C     6.0000    0    12.011         -1.317407765783755         -2.282999362580441          0.000000000000000
   5 C     6.0000    0    12.011          1.318215929010396         -2.282895588610149          0.000000000000000
   6 H     1.0000    0     1.008          2.356692376511384          4.082490129474064          0.000000000000000
   7 H     1.0000    0     1.008         -2.357735731432495          4.082305086050970          0.000000000000000
   8 H     1.0000    0     1.008         -2.356692376511384         -4.082490129474064          0.000000000000000
   9 H     1.0000    0     1.008          2.357735731432495         -4.082305086050970          0.000000000000000
  10 C     6.0000    0    12.011         -5.546559187550642         -0.000430717530457          0.000000000000000
  11 C     6.0000    0    12.011         -6.900385298154741          2.107951515914373          0.000000000000000
  12 H     1.0000    0     1.008         -6.409752686130749         -1.887823176745028          0.000000000000000
  13 H     1.0000    0     1.008         -8.975808147269111          2.108341538517734          0.000000000000000
  14 H     1.0000    0     1.008         -6.037191795799395          3.995343993645262          0.000000000000000
  15 C     6.0000    0    12.011          5.546559187550642          0.000430717530457          0.000000000000000
  16 C     6.0000    0    12.011          6.900385298154741         -2.107951515914373          0.000000000000000
  17 H     1.0000    0     1.008          6.409752686130749          1.887823176745028          0.000000000000000
  18 H     1.0000    0     1.008          8.975808147269111         -2.108341538517734          0.000000000000000
  19 H     1.0000    0     1.008          6.037191795799395         -3.995343993645262          0.000000000000000

--------------------------------
INTERNAL COORDINATES (ANGSTROEM)
--------------------------------
 C      0   0   0   0.000000     0.000     0.000
 C      1   0   0   1.395160     0.000     0.000
 C      2   1   0   1.394712   120.009     0.000
 C      3   2   1   1.394899   119.999     0.000
 C      4   3   2   1.395160   119.992     0.000
 C      5   4   3   1.394712   120.009     0.000
 H      2   1   3   1.099655   119.981   180.000
 H      3   2   1   1.099680   120.013   180.000
 H      5   4   3   1.099655   119.981   180.000
 H      6   5   4   1.099680   120.013   180.000
 C      4   3   2   1.540161   120.005   180.000
 C     11   4   3   1.325916   122.697     0.000
 H     11   4   3   1.098263   114.585   180.000
 H     12  11   4   1.098266   122.716   180.000
 H     12  11   4   1.098263   122.718     0.000
 C      1   2   3   1.540161   120.002   180.000
 C     16   1   2   1.325916   122.697   180.000
 H     16   1   2   1.098263   114.585     0.000
 H     17  16   1   1.098266   122.716   180.000
 H     17  16   1   1.098263   122.718     0.000

---------------------------
INTERNAL COORDINATES (A.U.)
---------------------------
 C      0   0   0   0.000000     0.000     0.000
 C      1   0   0   2.636470     0.000     0.000
 C      2   1   0   2.635624   120.009     0.000
 C      3   2   1   2.635976   119.999     0.000
 C      4   3   2   2.636470   119.992     0.000
 C      5   4   3   2.635624   120.009     0.000
 H      2   1   3   2.078047   119.981   180.000
 H      3   2   1   2.078094   120.013   180.000
 H      5   4   3   2.078047   119.981   180.000
 H      6   5   4   2.078094   120.013   180.000
 C      4   3   2   2.910482   120.005   180.000
 C     11   4   3   2.505618   122.697     0.000
 H     11   4   3   2.075416   114.585   180.000
 H     12  11   4   2.075423   122.716   180.000
 H     12  11   4   2.075416   122.718     0.000
 C      1   2   3   2.910482   120.002   180.000
 C     16   1   2   2.505618   122.697   180.000
 H     16   1   2   2.075416   114.585     0.000
 H     17  16   1   2.075423   122.716   180.000
 H     17  16   1   2.075416   122.718     0.000

---------------------
BASIS SET INFORMATION
---------------------
There are 2 groups of distinct atoms

 Group   1 Type C   : 6s3p contracted to 2s1p pattern {33/3}
 Group   2 Type H   : 3s contracted to 1s pattern {3}

Atom   0C    basis set group =>   1
Atom   1C    basis set group =>   1
Atom   2C    basis set group =>   1
Atom   3C    basis set group =>   1
Atom   4C    basis set group =>   1
Atom   5C    basis set group =>   1
Atom   6H    basis set group =>   2
Atom   7H    basis set group =>   2
Atom   8H    basis set group =>   2
Atom   9H    basis set group =>   2
Atom  10C    basis set group =>   1
Atom  11C    basis set group =>   1
Atom  12H    basis set group =>   2
Atom  13H    basis set group =>   2
Atom  14H    basis set group =>   2
Atom  15C    basis set group =>   1
Atom  16C    basis set group =>   1
Atom  17H    basis set group =>   2
Atom  18H    basis set group =>   2
Atom  19H    basis set group =>   2
------------------------------------------------------------------------------
                           ORCA GTO INTEGRAL CALCULATION
------------------------------------------------------------------------------

                         BASIS SET STATISTICS AND STARTUP INFO

 # of primitive gaussian shells          ...  120
 # of primitive gaussian functions       ...  180
 # of contracted shell                   ...   40
 # of contracted basis functions         ...   60
 Highest angular momentum                ...    1
 Maximum contraction depth               ...    3
 Integral package used                   ... LIBINT
 Integral threshhold            Thresh   ...  2.500e-11
 Primitive cut-off              TCut     ...  2.500e-12


                              INTEGRAL EVALUATION

 One electron integrals                  ... done
 Pre-screening matrix                    ... done
 Shell pair data                         ... done (   0.001 sec)

-------------------------------------------------------------------------------
                                 ORCA SCF
-------------------------------------------------------------------------------

------------
SCF SETTINGS
------------
Hamiltonian:
 Density Functional     Method          .... DFT(GTOs)
 Exchange Functional    Exchange        .... B88
   X-Alpha parameter    XAlpha          ....  0.666667
   Becke's b parameter  XBeta           ....  0.004200
 Correlation Functional Correlation     .... LYP
 LDA part of GGA corr.  LDAOpt          .... VWN-5
 Gradients option       PostSCFGGA      .... off
 Hybrid DFT is turned on
   Fraction HF Exchange ScalHFX         ....  0.200000
   Scaling of DF-GGA-X  ScalDFX         ....  0.720000
   Scaling of DF-GGA-C  ScalDFC         ....  0.810000
   Scaling of DF-LDA-C  ScalLDAC        ....  1.000000
   Perturbative correction              ....  0.000000
   NL short-range parameter             ....  4.800000


General Settings:
 Integral files         IntName         .... dvb_raman
 Hartree-Fock type      HFTyp           .... RHF
 Total Charge           Charge          ....    0
 Multiplicity           Mult            ....    1
 Number of Electrons    NEL             ....   70
 Basis Dimension        Dim             ....   60
 Nuclear Repulsion      ENuc            ....    450.0061360697 Eh

 Symmetry handling      UseSym         .... ON
 Point group                           .... C2h
 Used point group                      .... C2h
 Number of irreps                      .... 4
   Irrep   Ag has   25 symmetry adapted basis functions (ofs=   0)
   Irrep   Bg has    5 symmetry adapted basis functions (ofs=  25)
   Irrep   Au has    5 symmetry adapted basis functions (ofs=  30)
   Irrep   Bu has   25 symmetry adapted basis functions (ofs=  35)

Convergence Acceleration:
 DIIS                   CNVDIIS         .... on
   Start iteration      DIISMaxIt       ....    12
   Startup error        DIISStart       ....  0.200000
   # of expansion vecs  DIISMaxEq       ....     5
   Bias factor          DIISBfac        ....   1.050
   Max. coefficient     DIISMaxC        ....  10.000
 Newton-Raphson         CNVNR           .... off
 SOSCF                  CNVSOSCF        .... on
   Start iteration      SOSCFMaxIt      ....   150
   Startup grad/error   SOSCFStart      ....  0.003300
 Level Shifting         CNVShift        .... on
   Level shift para.    LevelShift      ....    0.2500
   Turn off err/grad.   ShiftErr        ....    0.0010
 Zerner damping         CNVZerner       .... off
 Static damping         CNVDamp         .... on
   Fraction old density DampFac         ....    0.7000
   Max. Damping (<1)    DampMax         ....    0.9800
   Min. Damping (>=0)   DampMin         ....    0.0000
   Turn off err/grad.   DampErr         ....    0.1000
 Fernandez-Rico         CNVRico         .... off

SCF Procedure:
 Maximum # iterations   MaxIter         ....   125
 SCF integral mode      SCFMode         .... Direct
   Integral package                     .... LIBINT
 Reset frequeny         DirectResetFreq ....    20
 Integral Threshold     Thresh          ....  2.500e-11 Eh
 Primitive CutOff       TCut            ....  2.500e-12 Eh

Convergence Tolerance:
 Convergence Check Mode ConvCheckMode   .... Total+1el-Energy
 Energy Change          TolE            ....  1.000e-08 Eh
 1-El. energy change                    ....  1.000e-05 Eh
 Orbital Gradient       TolG            ....  1.000e-05
 Orbital Rotation angle TolX            ....  1.000e-05
 DIIS Error             TolErr          ....  5.000e-07


Diagonalization of the overlap matrix:
Smallest eigenvalue                        ... 1.714e-01
Time for diagonalization                   ...    0.002 sec
Threshold for overlap eigenvalues          ... 1.000e-08
Number of eigenvalues below threshold      ... 0
Time for construction of square roots      ...    0.000 sec
Producing symmetrization matrix            ... done (   0.000 sec)
Total time needed                          ...    0.002 sec

-------------------
DFT GRID GENERATION
-------------------

General Integration Accuracy     IntAcc      ...  4.340
Radial Grid Type                 RadialGrid  ... Gauss-Chebyshev
Angular Grid (max. acc.)         AngularGrid ... Lebedev-110
Angular grid pruning method      GridPruning ... 3 (G Style)
Weight generation scheme         WeightScheme... Becke
Basis function cutoff            BFCut       ...    1.0000e-11
Integration weight cutoff        WCut        ...    1.0000e-14
Grids for H and He will be reduced by one unit

# of grid points (after initial pruning)     ...  24500 (   0.0 sec)
# of grid points (after weights+screening)   ...  22502 (   0.2 sec)
nearest neighbour list constructed           ...    0.0 sec
Grid point re-assignment to atoms done       ...    0.0 sec
Grid point division into batches done        ...    0.0 sec
Reduced shell lists constructed in    0.3 sec

Total number of grid points                  ...    22502
Total number of batches                      ...      362
Average number of points per batch           ...       62
Average number of grid points per atom       ...     1125
Average number of shells per batch           ...    27.33 (68.31%)
Average number of basis functions per batch  ...    44.66 (74.43%)
Average number of large shells per batch     ...    20.84 (76.28%)
Average number of large basis fcns per batch ...    34.99 (78.34%)
Maximum spatial batch extension              ...  18.95, 20.84, 44.34 au
Average spatial batch extension              ...   3.22,  3.90,  5.33 au

Time for grid setup =    0.498 sec

------------------------------
INITIAL GUESS: MODEL POTENTIAL
------------------------------
Loading Hartree-Fock densities                     ... done
Calculating cut-offs                               ... done
Setting up the integral package                    ... done
Initializing the effective Hamiltonian             ... done
Starting the Coulomb interaction                   ... done (   0.2 sec)
Reading the grid                                   ... done
Mapping shells                                     ... done
Starting the XC term evaluation                    ... done (   0.4 sec)
  promolecular density results
     # of electrons  =     69.993220687
     EX              =    -54.296898558
     EC              =     -2.299010595
     EX+EC           =    -56.595909153
done (   0.0 sec)
Diagonalizing the Hamiltonian                      ... done (   0.0 sec)
Back transforming the eigenvectors                 ... done (   0.0 sec)
Now organizing SCF variables                       ... done
The symmetry of the initial guess is 1-Ag
Irrep occupations for operator 0
    Ag -   15
    Bg -    3
    Au -    2
    Bu -   15
                      ------------------
                      INITIAL GUESS DONE (   1.2 sec)
                      ------------------
--------------
SCF ITERATIONS
--------------
ITER       Energy         Delta-E        Max-DP      RMS-DP      [F,P]     Damp
               ***  Starting incremental Fock matrix formation  ***
  0   -381.9867779369   0.000000000000 0.05707535  0.00425410  0.0807540 0.7000
  1   -382.0079987003  -0.021220763372 0.02895905  0.00220039  0.0411442 0.7000
                               ***Turning on DIIS***
  2   -382.0194217187  -0.011423018367 0.05111277  0.00390576  0.0218495 0.0000
  3   -382.0403768845  -0.020955165807 0.01981855  0.00147946  0.0118423 0.0000
                      *** Initiating the SOSCF procedure ***
                           *** Shutting down DIIS ***
                      *** Re-Reading the Fockian *** 
                      *** Removing any level shift *** 
ITER      Energy       Delta-E        Grad      Rot      Max-DP    RMS-DP
  4   -382.04168350  -0.0013066126  0.000446  0.000446  0.002708  0.000152
               *** Restarting incremental Fock matrix formation ***
  5   -382.04168455  -0.0000010551  0.000584  0.001782  0.004923  0.000211
  6   -382.04167321   0.0000113454  0.001090  0.001229  0.003399  0.000136
  7   -382.04169026  -0.0000170572  0.000075  0.000168  0.000432  0.000025
  8   -382.04169019   0.0000000752  0.000098  0.000099  0.000254  0.000014
  9   -382.04169037  -0.0000001848  0.000003  0.000005  0.000012  0.000001
                  ***Gradient check signals convergence***
              ***Rediagonalizing the Fockian in SOSCF/NRSCF***

               *****************************************************
               *                     SUCCESS                       *
               *           SCF CONVERGED AFTER  10 CYCLES          *
               *****************************************************

Setting up the final grid:

General Integration Accuracy     IntAcc      ...  4.670
Radial Grid Type                 RadialGrid  ... Gauss-Chebyshev
Angular Grid (max. acc.)         AngularGrid ... Lebedev-302
Angular grid pruning method      GridPruning ... 3 (G Style)
Weight generation scheme         WeightScheme... Becke
Basis function cutoff            BFCut       ...    1.0000e-11
Integration weight cutoff        WCut        ...    1.0000e-14
Grids for H and He will be reduced by one unit

# of grid points (after initial pruning)     ...  96060 (   0.1 sec)
# of grid points (after weights+screening)   ...  86996 (   0.6 sec)
nearest neighbour list constructed           ...    0.0 sec
Grid point re-assignment to atoms done       ...    0.0 sec
Grid point division into batches done        ...    0.3 sec
Reduced shell lists constructed in    1.5 sec

Total number of grid points                  ...    86996
Total number of batches                      ...     1370
Average number of points per batch           ...       63
Average number of grid points per atom       ...     4350
Average number of shells per batch           ...    25.00 (62.50%)
Average number of basis functions per batch  ...    41.06 (68.44%)
Average number of large shells per batch     ...    18.54 (74.16%)
Average number of large basis fcns per batch ...    31.27 (76.14%)
Maximum spatial batch extension              ...  17.61, 16.61, 24.37 au
Average spatial batch extension              ...   2.27,  2.45,  2.81 au

Final grid set up in    2.2 sec
Final integration                            ... done (   1.3 sec)
Change in XC energy                          ...    -0.000961436
Integrated number of electrons               ...    69.999494275
Previous integrated no of electrons          ...    69.995549526

----------------
TOTAL SCF ENERGY
----------------

Total Energy       :         -382.04265181 Eh          -10395.90907 eV

Components:
Nuclear Repulsion  :          450.00613607 Eh           12245.28950 eV
Electronic Energy  :         -832.04878788 Eh          -22641.19857 eV

One Electron Energy:        -1408.66296962 Eh          -38331.66815 eV
Two Electron Energy:          576.61418174 Eh           15690.46957 eV

Virial components:
Potential Energy   :         -758.06959457 Eh          -20628.12238 eV
Kinetic Energy     :          376.02694276 Eh           10232.21331 eV
Virial Ratio       :            2.01599808


DFT components:
N(Alpha)           :       34.999747137517 electrons
N(Beta)            :       34.999747137517 electrons
N(Total)           :       69.999494275033 electrons
E(X)               :      -43.840634511100 Eh       
E(C)               :       -2.721485837729 Eh       
E(XC)              :      -46.562120348830 Eh       

---------------
SCF CONVERGENCE
---------------

  Last Energy change         ...   -4.6458e-10  Tolerance :   1.0000e-08
  Last MAX-Density change    ...    4.8189e-06  Tolerance :   1.0000e-07
  Last RMS-Density change    ...    3.3161e-07  Tolerance :   5.0000e-09
  Last Orbital Gradient      ...    1.9273e-06  Tolerance :   1.0000e-05
  Last Orbital Rotation      ...    2.1307e-06  Tolerance :   1.0000e-05

             **** THE GBW FILE WAS UPDATED (dvb_raman.gbw) ****
             **** DENSITY FILE WAS UPDATED (dvb_raman.scfp.tmp) ****
             **** ENERGY FILE WAS UPDATED (dvb_raman.en.tmp) ****
----------------
ORBITAL ENERGIES
----------------

  NO   OCC          E(Eh)            E(eV)    Irrep 
   0   2.0000     -10.013929      -272.4929    1-Bu
   1   2.0000     -10.013864      -272.4911    1-Ag
   2   2.0000     -10.003509      -272.2093    2-Bu
   3   2.0000     -10.003508      -272.2093    2-Ag
   4   2.0000     -10.002743      -272.1885    3-Bu
   5   2.0000     -10.002709      -272.1875    3-Ag
   6   2.0000     -10.001653      -272.1588    4-Bu
   7   2.0000     -10.001545      -272.1559    4-Ag
   8   2.0000      -9.988108      -271.7902    5-Bu
   9   2.0000      -9.988108      -271.7902    5-Ag
  10   2.0000      -0.814351       -22.1596    6-Ag
  11   2.0000      -0.751399       -20.4466    6-Bu
  12   2.0000      -0.717011       -19.5109    7-Ag
  13   2.0000      -0.700457       -19.0604    7-Bu
  14   2.0000      -0.666543       -18.1375    8-Bu
  15   2.0000      -0.581441       -15.8218    8-Ag
  16   2.0000      -0.556947       -15.1553    9-Ag
  17   2.0000      -0.528214       -14.3734    9-Bu
  18   2.0000      -0.508444       -13.8355   10-Ag
  19   2.0000      -0.458267       -12.4701   11-Ag
  20   2.0000      -0.434947       -11.8355   10-Bu
  21   2.0000      -0.406756       -11.0684   11-Bu
  22   2.0000      -0.395916       -10.7734   12-Bu
  23   2.0000      -0.393538       -10.7087   12-Ag
  24   2.0000      -0.371849       -10.1185   13-Bu
  25   2.0000      -0.354149        -9.6369   14-Bu
  26   2.0000      -0.345325        -9.3968   13-Ag
  27   2.0000      -0.326474        -8.8838    1-Au
  28   2.0000      -0.301609        -8.2072   15-Bu
  29   2.0000      -0.291777        -7.9397   14-Ag
  30   2.0000      -0.277235        -7.5440   15-Ag
  31   2.0000      -0.259435        -7.0596    1-Bg
  32   2.0000      -0.212259        -5.7759    2-Au
  33   2.0000      -0.193833        -5.2745    2-Bg
  34   2.0000      -0.156338        -4.2542    3-Bg
  35   0.0000       0.053305         1.4505    3-Au
  36   0.0000       0.094484         2.5710    4-Au
  37   0.0000       0.120226         3.2715    4-Bg
  38   0.0000       0.185211         5.0398    5-Au
  39   0.0000       0.284067         7.7299    5-Bg
  40   0.0000       0.322871         8.7858   16-Ag
  41   0.0000       0.333167         9.0659   16-Bu
  42   0.0000       0.369077        10.0431   17-Bu
  43   0.0000       0.373836        10.1726   17-Ag
  44   0.0000       0.416574        11.3356   18-Bu
  45   0.0000       0.419668        11.4197   18-Ag
  46   0.0000       0.425195        11.5701   19-Bu
  47   0.0000       0.449417        12.2293   19-Ag
  48   0.0000       0.472525        12.8581   20-Bu
  49   0.0000       0.499618        13.5953   20-Ag
  50   0.0000       0.542506        14.7624   21-Ag
  51   0.0000       0.574234        15.6257   21-Bu
  52   0.0000       0.590423        16.0662   22-Ag
  53   0.0000       0.613831        16.7032   22-Bu
  54   0.0000       0.630203        17.1487   23-Bu
  55   0.0000       0.649435        17.6720   23-Ag
  56   0.0000       0.696504        18.9528   24-Ag
  57   0.0000       0.746746        20.3200   24-Bu
  58   0.0000       0.809951        22.0399   25-Ag
  59   0.0000       0.819742        22.3063   25-Bu

                    ********************************
                    * MULLIKEN POPULATION ANALYSIS *
                    ********************************

-----------------------
MULLIKEN ATOMIC CHARGES
-----------------------
   0 C :   -0.004093
   1 C :   -0.078868
   2 C :   -0.077027
   3 C :   -0.004093
   4 C :   -0.078868
   5 C :   -0.077027
   6 H :    0.078371
   7 H :    0.079538
   8 H :    0.078371
   9 H :    0.079538
  10 C :   -0.075220
  11 C :   -0.155828
  12 H :    0.078596
  13 H :    0.078019
  14 H :    0.076511
  15 C :   -0.075220
  16 C :   -0.155828
  17 H :    0.078596
  18 H :    0.078019
  19 H :    0.076511
Sum of atomic charges:   -0.0000000

--------------------------------
MULLIKEN REDUCED ORBITAL CHARGES
--------------------------------
  0 C s       :     3.130946  s :     3.130946
      pz      :     0.993078  p :     2.873147
      px      :     0.929033
      py      :     0.951036
  1 C s       :     3.140698  s :     3.140698
      pz      :     1.003562  p :     2.938170
      px      :     0.961312
      py      :     0.973297
  2 C s       :     3.139269  s :     3.139269
      pz      :     1.000806  p :     2.937757
      px      :     0.959617
      py      :     0.977334
  3 C s       :     3.130946  s :     3.130946
      pz      :     0.993078  p :     2.873147
      px      :     0.929033
      py      :     0.951036
  4 C s       :     3.140698  s :     3.140698
      pz      :     1.003562  p :     2.938170
      px      :     0.961312
      py      :     0.973297
  5 C s       :     3.139269  s :     3.139269
      pz      :     1.000806  p :     2.937757
      px      :     0.959617
      py      :     0.977334
  6 H s       :     0.921629  s :     0.921629
  7 H s       :     0.920462  s :     0.920462
  8 H s       :     0.921629  s :     0.921629
  9 H s       :     0.920462  s :     0.920462
 10 C s       :     3.158274  s :     3.158274
      pz      :     0.994687  p :     2.916946
      px      :     0.933858
      py      :     0.988402
 11 C s       :     3.162310  s :     3.162310
      pz      :     1.007867  p :     2.993518
      px      :     0.997280
      py      :     0.988371
 12 H s       :     0.921404  s :     0.921404
 13 H s       :     0.921981  s :     0.921981
 14 H s       :     0.923489  s :     0.923489
 15 C s       :     3.158274  s :     3.158274
      pz      :     0.994687  p :     2.916946
      px      :     0.933858
      py      :     0.988402
 16 C s       :     3.162310  s :     3.162310
      pz      :     1.007867  p :     2.993518
      px      :     0.997280
      py      :     0.988371
 17 H s       :     0.921404  s :     0.921404
 18 H s       :     0.921981  s :     0.921981
 19 H s       :     0.923489  s :     0.923489


                     *******************************
                     * LOEWDIN POPULATION ANALYSIS *
                     *******************************

----------------------
LOEWDIN ATOMIC CHARGES
----------------------
   0 C :    0.003230
   1 C :   -0.045754
   2 C :   -0.045196
   3 C :    0.003230
   4 C :   -0.045754
   5 C :   -0.045196
   6 H :    0.042776
   7 H :    0.045001
   8 H :    0.042776
   9 H :    0.045001
  10 C :   -0.037565
  11 C :   -0.093714
  12 H :    0.042726
  13 H :    0.044208
  14 H :    0.044287
  15 C :   -0.037565
  16 C :   -0.093714
  17 H :    0.042726
  18 H :    0.044208
  19 H :    0.044287

-------------------------------
LOEWDIN REDUCED ORBITAL CHARGES
-------------------------------
  0 C s       :     3.026823  s :     3.026823
      pz      :     0.992303  p :     2.969947
      px      :     0.972724
      py      :     1.004920
  1 C s       :     3.020726  s :     3.020726
      pz      :     1.003789  p :     3.025028
      px      :     1.010549
      py      :     1.010690
  2 C s       :     3.020091  s :     3.020091
      pz      :     1.001169  p :     3.025105
      px      :     1.009097
      py      :     1.014839
  3 C s       :     3.026823  s :     3.026823
      pz      :     0.992303  p :     2.969947
      px      :     0.972724
      py      :     1.004920
  4 C s       :     3.020726  s :     3.020726
      pz      :     1.003789  p :     3.025028
      px      :     1.010549
      py      :     1.010690
  5 C s       :     3.020091  s :     3.020091
      pz      :     1.001169  p :     3.025105
      px      :     1.009097
      py      :     1.014839
  6 H s       :     0.957224  s :     0.957224
  7 H s       :     0.954999  s :     0.954999
  8 H s       :     0.957224  s :     0.957224
  9 H s       :     0.954999  s :     0.954999
 10 C s       :     3.038063  s :     3.038063
      pz      :     0.994222  p :     2.999502
      px      :     0.978266
      py      :     1.027014
 11 C s       :     3.027380  s :     3.027380
      pz      :     1.008517  p :     3.066333
      px      :     1.026912
      py      :     1.030905
 12 H s       :     0.957274  s :     0.957274
 13 H s       :     0.955792  s :     0.955792
 14 H s       :     0.955713  s :     0.955713
 15 C s       :     3.038063  s :     3.038063
      pz      :     0.994222  p :     2.999502
      px      :     0.978266
      py      :     1.027014
 16 C s       :     3.027380  s :     3.027380
      pz      :     1.008517  p :     3.066333
      px      :     1.026912
      py      :     1.030905
 17 H s       :     0.957274  s :     0.957274
 18 H s       :     0.955792  s :     0.955792
 19 H s       :     0.955713  s :     0.955713


                      *****************************
                      * MAYER POPULATION ANALYSIS *
                      *****************************

  NA   - Mulliken gross atomic population
  ZA   - Total nuclear charge
  QA   - Mulliken gross atomic charge
  VA   - Mayer's total valence
  BVA  - Mayer's bonded valence
  FA   - Mayer's free valence

  ATOM       NA         ZA         QA         VA         BVA        FA
  0 C      6.0041     6.0000    -0.0041     3.9751     3.9751     0.0000
  1 C      6.0789     6.0000    -0.0789     3.9728     3.9728    -0.0000
  2 C      6.0770     6.0000    -0.0770     3.9732     3.9732    -0.0000
  3 C      6.0041     6.0000    -0.0041     3.9751     3.9751     0.0000
  4 C      6.0789     6.0000    -0.0789     3.9728     3.9728    -0.0000
  5 C      6.0770     6.0000    -0.0770     3.9732     3.9732    -0.0000
  6 H      0.9216     1.0000     0.0784     0.9939     0.9939    -0.0000
  7 H      0.9205     1.0000     0.0795     0.9937     0.9937    -0.0000
  8 H      0.9216     1.0000     0.0784     0.9939     0.9939    -0.0000
  9 H      0.9205     1.0000     0.0795     0.9937     0.9937     0.0000
 10 C      6.0752     6.0000    -0.0752     3.9661     3.9661    -0.0000
 11 C      6.1558     6.0000    -0.1558     3.9670     3.9670     0.0000
 12 H      0.9214     1.0000     0.0786     0.9938     0.9938    -0.0000
 13 H      0.9220     1.0000     0.0780     0.9939     0.9939     0.0000
 14 H      0.9235     1.0000     0.0765     0.9941     0.9941     0.0000
 15 C      6.0752     6.0000    -0.0752     3.9661     3.9661     0.0000
 16 C      6.1558     6.0000    -0.1558     3.9670     3.9670     0.0000
 17 H      0.9214     1.0000     0.0786     0.9938     0.9938     0.0000
 18 H      0.9220     1.0000     0.0780     0.9939     0.9939     0.0000
 19 H      0.9235     1.0000     0.0765     0.9941     0.9941    -0.0000

  Mayer bond orders larger than 0.1
B(  0-C ,  1-C ) :   1.3850 B(  0-C ,  5-C ) :   1.3879 B(  0-C , 15-C ) :   1.0300 
B(  1-C ,  2-C ) :   1.4504 B(  1-C ,  4-C ) :   0.1048 B(  1-C ,  6-H ) :   0.9612 
B(  2-C ,  3-C ) :   1.3879 B(  2-C ,  5-C ) :   0.1094 B(  2-C ,  7-H ) :   0.9557 
B(  3-C ,  4-C ) :   1.3850 B(  3-C , 10-C ) :   1.0300 B(  4-C ,  5-C ) :   1.4504 
B(  4-C ,  8-H ) :   0.9612 B(  5-C ,  9-H ) :   0.9557 B( 10-C , 11-C ) :   1.9333 
B( 10-C , 12-H ) :   0.9595 B( 11-C , 13-H ) :   0.9679 B( 11-C , 14-H ) :   0.9617 
B( 15-C , 16-C ) :   1.9333 B( 15-C , 17-H ) :   0.9595 B( 16-C , 18-H ) :   0.9679 
B( 16-C , 19-H ) :   0.9617 

-------
TIMINGS
-------

Total SCF time: 0 days 0 hours 0 min 23 sec 

Total time                  ....      23.181 sec
Sum of individual times     ....      24.865 sec  (107.3%)

Fock matrix formation       ....      20.984 sec  ( 90.5%)
  Coulomb formation         ....      16.195 sec  ( 77.2% of F)
  XC integration            ....       4.786 sec  ( 22.8% of F)
    Basis function eval.    ....       3.277 sec  ( 68.5% of XC)
    Density eval.           ....       0.453 sec  (  9.5% of XC)
    XC-Functional eval.     ....       0.551 sec  ( 11.5% of XC)
    XC-Potential eval.      ....       0.429 sec  (  9.0% of XC)
Diagonalization             ....       0.005 sec  (  0.0%)
Density matrix formation    ....       0.001 sec  (  0.0%)
Population analysis         ....       0.003 sec  (  0.0%)
Initial guess               ....       1.199 sec  (  5.2%)
Orbital Transformation      ....       0.000 sec  (  0.0%)
Orbital Orthonormalization  ....       0.000 sec  (  0.0%)
DIIS solution               ....       0.001 sec  (  0.0%)
SOSCF solution              ....       0.004 sec  (  0.0%)
Grid generation             ....       2.668 sec  ( 11.5%)

-------------------------   --------------------
FINAL SINGLE POINT ENERGY      -382.042651810160
-------------------------   --------------------

------------------------------------------------------------------------------
                         ORCA SCF GRADIENT CALCULATION
------------------------------------------------------------------------------

Gradient of the Kohn-Sham DFT energy:
Kohn-Sham wavefunction type      ... RKS
Hartree-Fock exchange scaling    ...    0.200
Number of operators              ...    1
Number of atoms                  ...   20
Basis set dimensions             ...   60
Integral neglect threshold       ... 2.5e-11
Integral primitive cutoff        ... 2.5e-12

Nuclear repulsion gradient       ... done
One Electron Gradient            ... done
Pre-screening matrix             ... done
Starting the two electron gradient:
Two electron gradient done
Exchange-correlation gradient    ... done

------------------
CARTESIAN GRADIENT
------------------

   1   C   :   -0.051460181    0.001691001   -0.000000000
   2   C   :    0.002187477   -0.020194240    0.000000000
   3   C   :   -0.005420192   -0.019385600    0.000000000
   4   C   :    0.051460184   -0.001691002    0.000000000
   5   C   :   -0.002187482    0.020194244    0.000000000
   6   C   :    0.005420191    0.019385600   -0.000000000
   7   H   :    0.000001819    0.001215112   -0.000000000
   8   H   :   -0.003060336    0.002012310   -0.000000000
   9   H   :   -0.000001821   -0.001215112   -0.000000000
  10   H   :    0.003060337   -0.002012312    0.000000000
  11   C   :   -0.037462714    0.012365237    0.000000000
  12   C   :    0.020109246   -0.017486064    0.000000000
  13   H   :    0.003077759   -0.000186253   -0.000000000
  14   H   :   -0.000904203    0.002256465   -0.000000000
  15   H   :    0.000855837    0.002706981   -0.000000000
  16   C   :    0.037462715   -0.012365235    0.000000000
  17   C   :   -0.020109243    0.017486064    0.000000000
  18   H   :   -0.003077760    0.000186252    0.000000000
  19   H   :    0.000904202   -0.002256465   -0.000000000
  20   H   :   -0.000855834   -0.002706982   -0.000000000

Norm of the cartesian gradient     ...    0.107458353
RMS gradient                       ...    0.013872814
MAX gradient                       ...    0.051460184

-------
TIMINGS
-------

Total SCF gradient time            ...       12.784 sec

One electron gradient       ....       0.157 sec  (  1.2%)
Prescreening matrices       ....       0.038 sec  (  0.3%)
Two electron gradient       ....       4.806 sec  ( 37.6%)
XC gradient                 ....       7.600 sec  ( 59.4%)

                            ***************************************
                            *     ORCA property calculations      *
                            ***************************************

                                    ---------------------
                                    Active property flags
                                    ---------------------
   (+) Dipole Moment
   (+) Polarizability


------------------------------------------------------------------------------
                       ORCA ELECTRIC PROPERTIES CALCULATION
------------------------------------------------------------------------------

Dipole Moment Calculation                       ... on
Quadrupole Moment Calculation                   ... off
Polarizability Calculation                      ... Analytic (CP-SCF)
GBWName                                         ... dvb_raman.gbw
Electron density file                           ... dvb_raman.scfp.tmp

-------------
DIPOLE MOMENT
-------------
                                X             Y             Z
Electronic contribution:      0.00000      -0.00000       0.00000
Nuclear contribution   :      0.00000       0.00000       0.00000
                        -----------------------------------------
Total Dipole Moment    :      0.00000      -0.00000       0.00000
                        -----------------------------------------
Magnitude (a.u.)       :      0.00000
Magnitude (Debye)      :      0.00000

Transforming and storing MO dipole integrals   ... done

                ... starting polarizability calculation

Opening the Dipole integral file               ... (dvb_raman.dmo.tmp) done
Reading Dipole-MO integrals                    ... done
Solving CP-SCF equations                       ... 
------------------------------------------------------------------------------
                           ORCA CP-SCF CALCULATION
------------------------------------------------------------------------------

Input orbitals are from        ... dvb_raman.gbw
Input Perturbation             ... dvb_raman.cpv.tmp
Wavefunction output            ... dvb_raman.cpu.tmp
Perturbation mode              ... Real perturbation
Solver                         ... POPLE
Max. number of iterations      ... 64
Convergence tolerance          ... 1.000e-06
Integral handling              ... Direct
Number of perturbations        ... 3
Number of operators            ... 1
Orbital ranges used for CP-SCF:
 Operator 0:  Orbitals   0... 34  to  35... 59
DFT calculation                         ... on
Exchange functional (SCF)               ... B88
Exchange functional (CP-SCF)            ... B88
   X-Alpha parameter    XAlpha (SCF)    ...  0.666667
   X-Alpha parameter    XAlpha (CP-SCF) ...  0.666667
   Becke's b parameter  XBeta (SCF)     ...  0.004200
   Becke's b parameter  XBeta (CP-SCF)  ...  0.004200
Correlation functional (SCF)            ... LYP
Correlation functional (CP-SCF)         ... LYP
 LDA part of GGA corr.  LDAOpt (SCF)    ... VWN-5
 LDA part of GGA corr.  LDAOpt (CP-SCF) ... VWN-5
Hybrid DFT                              ... on
   Exchange mixing (SCF)                ...  0.200
   Exchange mixing (CP-SCF)             ...  0.200
   GGA exch. scaling(SCF)               ...  0.720
   GGA exch. scaling (CP-SCF)           ...  0.720
   GGA corr. scaling (SCF)              ...  0.810
   GGA corr. scaling (CP-SCF)           ...  0.810
Variables per vector in CP-SCF ... 875
Number of vectors sought       ... 3
Calculating the xc-kernel      ... done
     CP-SCF ITERATION   0: 
     CP-SCF ITERATION   1:      0.393382869
     CP-SCF ITERATION   2:      0.051388108
     CP-SCF ITERATION   3:      0.005617981
     CP-SCF ITERATION   4:      0.000126203
     CP-SCF ITERATION   5:      0.000029009
     CP-SCF ITERATION   6:      0.000000526
done
Reading CP-SCF coefficients                    ... done
Doing the polarizability tensor                ... done
Cleaning up                                    ... done

-------------------------
THE POLARIZABILITY TENSOR
-------------------------

The raw cartesian tensor (atomic units):
  121.24204    -18.98583      0.00000  
  -18.98583     73.69454     -0.00000  
    0.00000     -0.00000     11.24274  
diagonalized tensor: 
   11.24274     67.04375    127.89284  

   -0.00000      0.33061      0.94377  
    0.00000      0.94377     -0.33061  
    1.00000     -0.00000      0.00000  

Isotropic polarizability :  68.72644


----------------------------------------------------------------------------
                           ORCA NUMERICAL FREQUENCIES
----------------------------------------------------------------------------

Number of atoms                ... 20
Central differences            ... used
Number of displacements        ... 120
Numerical increment            ...  0.005 bohr
IR-spectrum generation         ... on
Raman-spectrum generation      ... on
Polarizability calculation     ... 1
Surface Crossing Hessian       ... off

The output will be reduced. Please look at the following files:
SCF program output             ... >dvb_raman.lastscf
Integral program output        ... >dvb_raman.lastint
Gradient program output        ... >dvb_raman.lastgrad
Dipole moment program output   ... >dvb_raman.lastmom


         <<<Energy and Gradient at the input geometry>>>
             <<<Displacing   1/coordinate 1 (+)>>>
             <<<Displacing   1/coordinate 1 (-)>>>
             <<<Displacing   1/coordinate 2 (+)>>>
             <<<Displacing   1/coordinate 2 (-)>>>
             <<<Displacing   1/coordinate 3 (+)>>>
             <<<Displacing   1/coordinate 3 (-)>>>
             <<<Displacing   2/coordinate 1 (+)>>>
             <<<Displacing   2/coordinate 1 (-)>>>
             <<<Displacing   2/coordinate 2 (+)>>>
             <<<Displacing   2/coordinate 2 (-)>>>
             <<<Displacing   2/coordinate 3 (+)>>>
             <<<Displacing   2/coordinate 3 (-)>>>
             <<<Displacing   3/coordinate 1 (+)>>>
             <<<Displacing   3/coordinate 1 (-)>>>
             <<<Displacing   3/coordinate 2 (+)>>>
             <<<Displacing   3/coordinate 2 (-)>>>
             <<<Displacing   3/coordinate 3 (+)>>>
             <<<Displacing   3/coordinate 3 (-)>>>
             <<<Displacing   4/coordinate 1 (+)>>>
             <<<Displacing   4/coordinate 1 (-)>>>
             <<<Displacing   4/coordinate 2 (+)>>>
             <<<Displacing   4/coordinate 2 (-)>>>
             <<<Displacing   4/coordinate 3 (+)>>>
             <<<Displacing   4/coordinate 3 (-)>>>
             <<<Displacing   5/coordinate 1 (+)>>>
             <<<Displacing   5/coordinate 1 (-)>>>
             <<<Displacing   5/coordinate 2 (+)>>>
             <<<Displacing   5/coordinate 2 (-)>>>
             <<<Displacing   5/coordinate 3 (+)>>>
             <<<Displacing   5/coordinate 3 (-)>>>
             <<<Displacing   6/coordinate 1 (+)>>>
             <<<Displacing   6/coordinate 1 (-)>>>
             <<<Displacing   6/coordinate 2 (+)>>>
             <<<Displacing   6/coordinate 2 (-)>>>
             <<<Displacing   6/coordinate 3 (+)>>>
             <<<Displacing   6/coordinate 3 (-)>>>
             <<<Displacing   7/coordinate 1 (+)>>>
             <<<Displacing   7/coordinate 1 (-)>>>
             <<<Displacing   7/coordinate 2 (+)>>>
             <<<Displacing   7/coordinate 2 (-)>>>
             <<<Displacing   7/coordinate 3 (+)>>>
             <<<Displacing   7/coordinate 3 (-)>>>
             <<<Displacing   8/coordinate 1 (+)>>>
             <<<Displacing   8/coordinate 1 (-)>>>
             <<<Displacing   8/coordinate 2 (+)>>>
             <<<Displacing   8/coordinate 2 (-)>>>
             <<<Displacing   8/coordinate 3 (+)>>>
             <<<Displacing   8/coordinate 3 (-)>>>
             <<<Displacing   9/coordinate 1 (+)>>>
             <<<Displacing   9/coordinate 1 (-)>>>
             <<<Displacing   9/coordinate 2 (+)>>>
             <<<Displacing   9/coordinate 2 (-)>>>
             <<<Displacing   9/coordinate 3 (+)>>>
             <<<Displacing   9/coordinate 3 (-)>>>
             <<<Displacing  10/coordinate 1 (+)>>>
             <<<Displacing  10/coordinate 1 (-)>>>
             <<<Displacing  10/coordinate 2 (+)>>>
             <<<Displacing  10/coordinate 2 (-)>>>
             <<<Displacing  10/coordinate 3 (+)>>>
             <<<Displacing  10/coordinate 3 (-)>>>
             <<<Displacing  11/coordinate 1 (+)>>>
             <<<Displacing  11/coordinate 1 (-)>>>
             <<<Displacing  11/coordinate 2 (+)>>>
             <<<Displacing  11/coordinate 2 (-)>>>
             <<<Displacing  11/coordinate 3 (+)>>>
             <<<Displacing  11/coordinate 3 (-)>>>
             <<<Displacing  12/coordinate 1 (+)>>>
             <<<Displacing  12/coordinate 1 (-)>>>
             <<<Displacing  12/coordinate 2 (+)>>>
             <<<Displacing  12/coordinate 2 (-)>>>
             <<<Displacing  12/coordinate 3 (+)>>>
             <<<Displacing  12/coordinate 3 (-)>>>
             <<<Displacing  13/coordinate 1 (+)>>>
             <<<Displacing  13/coordinate 1 (-)>>>
             <<<Displacing  13/coordinate 2 (+)>>>
             <<<Displacing  13/coordinate 2 (-)>>>
             <<<Displacing  13/coordinate 3 (+)>>>
             <<<Displacing  13/coordinate 3 (-)>>>
             <<<Displacing  14/coordinate 1 (+)>>>
             <<<Displacing  14/coordinate 1 (-)>>>
             <<<Displacing  14/coordinate 2 (+)>>>
             <<<Displacing  14/coordinate 2 (-)>>>
             <<<Displacing  14/coordinate 3 (+)>>>
             <<<Displacing  14/coordinate 3 (-)>>>
             <<<Displacing  15/coordinate 1 (+)>>>
             <<<Displacing  15/coordinate 1 (-)>>>
             <<<Displacing  15/coordinate 2 (+)>>>
             <<<Displacing  15/coordinate 2 (-)>>>
             <<<Displacing  15/coordinate 3 (+)>>>
             <<<Displacing  15/coordinate 3 (-)>>>
             <<<Displacing  16/coordinate 1 (+)>>>
             <<<Displacing  16/coordinate 1 (-)>>>
             <<<Displacing  16/coordinate 2 (+)>>>
             <<<Displacing  16/coordinate 2 (-)>>>
             <<<Displacing  16/coordinate 3 (+)>>>
             <<<Displacing  16/coordinate 3 (-)>>>
             <<<Displacing  17/coordinate 1 (+)>>>
             <<<Displacing  17/coordinate 1 (-)>>>
             <<<Displacing  17/coordinate 2 (+)>>>
             <<<Displacing  17/coordinate 2 (-)>>>
             <<<Displacing  17/coordinate 3 (+)>>>
             <<<Displacing  17/coordinate 3 (-)>>>
             <<<Displacing  18/coordinate 1 (+)>>>
             <<<Displacing  18/coordinate 1 (-)>>>
             <<<Displacing  18/coordinate 2 (+)>>>
             <<<Displacing  18/coordinate 2 (-)>>>
             <<<Displacing  18/coordinate 3 (+)>>>
             <<<Displacing  18/coordinate 3 (-)>>>
             <<<Displacing  19/coordinate 1 (+)>>>
             <<<Displacing  19/coordinate 1 (-)>>>
             <<<Displacing  19/coordinate 2 (+)>>>
             <<<Displacing  19/coordinate 2 (-)>>>
             <<<Displacing  19/coordinate 3 (+)>>>
             <<<Displacing  19/coordinate 3 (-)>>>
             <<<Displacing  20/coordinate 1 (+)>>>
             <<<Displacing  20/coordinate 1 (-)>>>
             <<<Displacing  20/coordinate 2 (+)>>>
             <<<Displacing  20/coordinate 2 (-)>>>
             <<<Displacing  20/coordinate 3 (+)>>>
             <<<Displacing  20/coordinate 3 (-)>>>

-----------------------
VIBRATIONAL FREQUENCIES
-----------------------

   0:         0.00 cm**-1
   1:         0.00 cm**-1
   2:         0.00 cm**-1
   3:         0.00 cm**-1
   4:         0.00 cm**-1
   5:         0.00 cm**-1
   6:       294.84 cm**-1
   7:       356.53 cm**-1
   8:       367.60 cm**-1
   9:       401.50 cm**-1
  10:       478.87 cm**-1
  11:       577.24 cm**-1
  12:       679.60 cm**-1
  13:       704.10 cm**-1
  14:       797.34 cm**-1
  15:       866.60 cm**-1
  16:       946.55 cm**-1
  17:       976.26 cm**-1
  18:      1006.74 cm**-1
  19:      1026.49 cm**-1
  20:      1105.21 cm**-1
  21:      1164.66 cm**-1
  22:      1177.75 cm**-1
  23:      1234.58 cm**-1
  24:      1247.92 cm**-1
  25:      1252.35 cm**-1
  26:      1255.90 cm**-1
  27:      1266.56 cm**-1
  28:      1277.11 cm**-1
  29:      1297.70 cm**-1
  30:      1338.02 cm**-1
  31:      1345.79 cm**-1
  32:      1347.52 cm**-1
  33:      1350.04 cm**-1
  34:      1389.68 cm**-1
  35:      1391.22 cm**-1
  36:      1430.86 cm**-1
  37:      1431.04 cm**-1
  38:      1432.52 cm**-1
  39:      1442.29 cm**-1
  40:      1478.40 cm**-1
  41:      1492.82 cm**-1
  42:      1511.22 cm**-1
  43:      1538.27 cm**-1
  44:      1573.81 cm**-1
  45:      1661.44 cm**-1
  46:      1720.53 cm**-1
  47:      1784.34 cm**-1
  48:      1792.39 cm**-1
  49:      1873.84 cm**-1
  50:      3040.57 cm**-1
  51:      3053.40 cm**-1
  52:      3065.91 cm**-1
  53:      3069.82 cm**-1
  54:      3099.40 cm**-1
  55:      3381.57 cm**-1
  56:      3434.37 cm**-1
  57:      3450.47 cm**-1
  58:      3460.55 cm**-1
  59:      3517.43 cm**-1


------------
NORMAL MODES
------------

These modes are the cartesian displacements weighted by the diagonal matrix
M(i,i)=1/sqrt(m[i]) where m[i] is the mass of the displaced atom
Thus, these vectors are normalized but *not* orthogonal

                  0          1          2          3          4          5    
      0       0.000000   0.000000   0.000000   0.000000   0.000000   0.000000
      1       0.000000   0.000000   0.000000   0.000000   0.000000   0.000000
      2       0.000000   0.000000   0.000000   0.000000   0.000000   0.000000
      3       0.000000   0.000000   0.000000   0.000000   0.000000   0.000000
      4       0.000000   0.000000   0.000000   0.000000   0.000000   0.000000
      5       0.000000   0.000000   0.000000   0.000000   0.000000   0.000000
      6       0.000000   0.000000   0.000000   0.000000   0.000000   0.000000
      7       0.000000   0.000000   0.000000   0.000000   0.000000   0.000000
      8       0.000000   0.000000   0.000000   0.000000   0.000000   0.000000
      9       0.000000   0.000000   0.000000   0.000000   0.000000   0.000000
     10       0.000000   0.000000   0.000000   0.000000   0.000000   0.000000
     11       0.000000   0.000000   0.000000   0.000000   0.000000   0.000000
     12       0.000000   0.000000   0.000000   0.000000   0.000000   0.000000
     13       0.000000   0.000000   0.000000   0.000000   0.000000   0.000000
     14       0.000000   0.000000   0.000000   0.000000   0.000000   0.000000
     15       0.000000   0.000000   0.000000   0.000000   0.000000   0.000000
     16       0.000000   0.000000   0.000000   0.000000   0.000000   0.000000
     17       0.000000   0.000000   0.000000   0.000000   0.000000   0.000000
     18       0.000000   0.000000   0.000000   0.000000   0.000000   0.000000
     19       0.000000   0.000000   0.000000   0.000000   0.000000   0.000000
     20       0.000000   0.000000   0.000000   0.000000   0.000000   0.000000
     21       0.000000   0.000000   0.000000   0.000000   0.000000   0.000000
     22       0.000000   0.000000   0.000000   0.000000   0.000000   0.000000
     23       0.000000   0.000000   0.000000   0.000000   0.000000   0.000000
     24       0.000000   0.000000   0.000000   0.000000   0.000000   0.000000
     25       0.000000   0.000000   0.000000   0.000000   0.000000   0.000000
     26       0.000000   0.000000   0.000000   0.000000   0.000000   0.000000
     27       0.000000   0.000000   0.000000   0.000000   0.000000   0.000000
     28       0.000000   0.000000   0.000000   0.000000   0.000000   0.000000
     29       0.000000   0.000000   0.000000   0.000000   0.000000   0.000000
     30       0.000000   0.000000   0.000000   0.000000   0.000000   0.000000
     31       0.000000   0.000000   0.000000   0.000000   0.000000   0.000000
     32       0.000000   0.000000   0.000000   0.000000   0.000000   0.000000
     33       0.000000   0.000000   0.000000   0.000000   0.000000   0.000000
     34       0.000000   0.000000   0.000000   0.000000   0.000000   0.000000
     35       0.000000   0.000000   0.000000   0.000000   0.000000   0.000000
     36       0.000000   0.000000   0.000000   0.000000   0.000000   0.000000
     37       0.000000   0.000000   0.000000   0.000000   0.000000   0.000000
     38       0.000000   0.000000   0.000000   0.000000   0.000000   0.000000
     39       0.000000   0.000000   0.000000   0.000000   0.000000   0.000000
     40       0.000000   0.000000   0.000000   0.000000   0.000000   0.000000
     41       0.000000   0.000000   0.000000   0.000000   0.000000   0.000000
     42       0.000000   0.000000   0.000000   0.000000   0.000000   0.000000
     43       0.000000   0.000000   0.000000   0.000000   0.000000   0.000000
     44       0.000000   0.000000   0.000000   0.000000   0.000000   0.000000
     45       0.000000   0.000000   0.000000   0.000000   0.000000   0.000000
     46       0.000000   0.000000   0.000000   0.000000   0.000000   0.000000
     47       0.000000   0.000000   0.000000   0.000000   0.000000   0.000000
     48       0.000000   0.000000   0.000000   0.000000   0.000000   0.000000
     49       0.000000   0.000000   0.000000   0.000000   0.000000   0.000000
     50       0.000000   0.000000   0.000000   0.000000   0.000000   0.000000
     51       0.000000   0.000000   0.000000   0.000000   0.000000   0.000000
     52       0.000000   0.000000   0.000000   0.000000   0.000000   0.000000
     53       0.000000   0.000000   0.000000   0.000000   0.000000   0.000000
     54       0.000000   0.000000   0.000000   0.000000   0.000000   0.000000
     55       0.000000   0.000000   0.000000   0.000000   0.000000   0.000000
     56       0.000000   0.000000   0.000000   0.000000   0.000000   0.000000
     57       0.000000   0.000000   0.000000   0.000000   0.000000   0.000000
     58       0.000000   0.000000   0.000000   0.000000   0.000000   0.000000
     59       0.000000   0.000000   0.000000   0.000000   0.000000   0.000000
                  6          7          8          9         10         11    
      0       0.010021   0.000000  -0.033826   0.154444   0.087468  -0.099044
      1      -0.134380   0.000000  -0.132511   0.096136  -0.035697   0.081447
      2      -0.000000  -0.113719  -0.000000   0.000000  -0.000000  -0.000000
      3       0.091641  -0.000000  -0.051535  -0.051138   0.179413  -0.049987
      4      -0.080683   0.000000  -0.177833   0.000885  -0.026418   0.131499
      5      -0.000000  -0.186408  -0.000000   0.000000  -0.000000   0.000000
      6       0.082735  -0.000000  -0.035993  -0.085378   0.180455  -0.036945
      7       0.083414  -0.000000  -0.172315  -0.129220  -0.088496  -0.017642
      8      -0.000000  -0.188118  -0.000000   0.000000   0.000000   0.000000
      9      -0.010020  -0.000000  -0.033834  -0.154442   0.087469   0.099045
     10       0.134384  -0.000000  -0.132509  -0.096130  -0.035695  -0.081447
     11      -0.000000  -0.113719  -0.000000   0.000000   0.000000   0.000000
     12      -0.091640   0.000000  -0.051536   0.051142   0.179412   0.049988
     13       0.080688   0.000000  -0.177829  -0.000877  -0.026417  -0.131499
     14      -0.000000  -0.186408  -0.000000   0.000000   0.000000   0.000000
     15      -0.082734   0.000000  -0.035992   0.085381   0.180454   0.036946
     16      -0.083408   0.000000  -0.172313   0.129228  -0.088498   0.017642
     17      -0.000000  -0.188118  -0.000000   0.000000  -0.000000  -0.000000
     18       0.191748  -0.000000  -0.057286  -0.227121   0.201182  -0.073381
     19      -0.138097   0.000000  -0.174696   0.105773  -0.030141   0.146286
     20      -0.000000  -0.206937  -0.000000   0.000000   0.000000  -0.000000
     21       0.150586  -0.000000  -0.024529  -0.082380   0.177211  -0.212563
     22       0.129408  -0.000000  -0.166573  -0.125309  -0.093531  -0.121246
     23      -0.000000  -0.214310  -0.000000  -0.000000   0.000000   0.000000
     24      -0.191749   0.000000  -0.057281   0.227127   0.201178   0.073379
     25       0.138103   0.000000  -0.174695  -0.105767  -0.030137  -0.146285
     26      -0.000000  -0.206936  -0.000000   0.000000   0.000000   0.000000
     27      -0.150587   0.000000  -0.024531   0.082381   0.177206   0.212564
     28      -0.129402   0.000000  -0.166573   0.125315  -0.093535   0.121245
     29      -0.000000  -0.214310  -0.000000   0.000000  -0.000000   0.000000
     30      -0.016436  -0.000000  -0.002109  -0.252511  -0.124766   0.128972
     31       0.052325  -0.000000   0.170863   0.055351   0.108575   0.148433
     32       0.000000   0.188835   0.000000  -0.000000   0.000000  -0.000000
     33      -0.219550  -0.000000   0.113200  -0.194807  -0.292178  -0.061885
     34      -0.079899  -0.000000   0.275711   0.114126   0.035112   0.040023
     35       0.000000   0.267036   0.000000  -0.000000  -0.000000  -0.000000
     36       0.119400  -0.000000  -0.036491  -0.355924  -0.134299   0.084333
     37      -0.011509   0.000000   0.189123   0.098902   0.133788   0.168749
     38       0.000000   0.216794   0.000000  -0.000000  -0.000000  -0.000000
     39      -0.219948  -0.000000   0.118945  -0.197934  -0.303626  -0.063058
     40      -0.294608   0.000000   0.305471   0.173995   0.037136  -0.321316
     41       0.000000   0.290831  -0.000000   0.000000  -0.000000   0.000000
     42      -0.388223   0.000000   0.121458  -0.148816  -0.302584  -0.388936
     43       0.002332  -0.000000   0.276649   0.095785   0.035226   0.192991
     44       0.000000   0.299384   0.000000  -0.000000   0.000000  -0.000000
     45       0.016437   0.000000  -0.002095   0.252511  -0.124768  -0.128971
     46      -0.052330  -0.000000   0.170857  -0.055357   0.108577  -0.148432
     47       0.000000   0.188835   0.000000  -0.000000  -0.000000   0.000000
     48       0.219547   0.000000   0.113221   0.194799  -0.292180   0.061883
     49       0.079891  -0.000000   0.275709  -0.114139   0.035114  -0.040023
     50       0.000000   0.267036   0.000000  -0.000000   0.000000  -0.000000
     51      -0.119396   0.000000  -0.036478   0.355926  -0.134299  -0.084330
     52       0.011502  -0.000000   0.189118  -0.098909   0.133789  -0.168750
     53       0.000000   0.216795   0.000000   0.000000  -0.000000   0.000000
     54       0.219945   0.000000   0.118967   0.197924  -0.303627   0.063055
     55       0.294598  -0.000000   0.305476  -0.174007   0.037134   0.321318
     56       0.000000   0.290831   0.000000  -0.000000   0.000000   0.000000
     57       0.388219  -0.000000   0.121485   0.148809  -0.302587   0.388933
     58      -0.002339  -0.000000   0.276644  -0.095799   0.035228  -0.192991
     59       0.000000   0.299385   0.000000  -0.000000   0.000000   0.000000
                 12         13         14         15         16         17    
      0       0.018546  -0.000000  -0.110580  -0.133385  -0.000000   0.000000
      1       0.105528   0.000000  -0.002293   0.000069   0.000000  -0.000000
      2       0.000000  -0.290277   0.000000  -0.000000   0.028599  -0.072632
      3       0.291920   0.000000   0.105781   0.035262  -0.000000  -0.000000
      4       0.201897   0.000000   0.134553   0.227104   0.000000  -0.000000
      5       0.000000  -0.101826   0.000000  -0.000000   0.138304   0.047939
      6       0.285683   0.000000   0.094182  -0.027743  -0.000000  -0.000000
      7      -0.221955  -0.000000  -0.060736   0.234192   0.000000   0.000000
      8      -0.000000   0.270590  -0.000000   0.000000   0.012984   0.031373
      9      -0.018546  -0.000000  -0.110582   0.133383  -0.000000   0.000000
     10      -0.105528  -0.000000  -0.002293  -0.000069  -0.000000  -0.000000
     11      -0.000000   0.290277   0.000000   0.000000  -0.028599  -0.072632
     12      -0.291921  -0.000000   0.105782  -0.035261   0.000000  -0.000000
     13      -0.201896  -0.000000   0.134557  -0.227102  -0.000000  -0.000000
     14      -0.000000   0.101827   0.000000   0.000000  -0.138306   0.047939
     15      -0.285682  -0.000000   0.094183   0.027744   0.000000   0.000000
     16       0.221953   0.000000  -0.060733  -0.234192  -0.000000   0.000000
     17       0.000000  -0.270590  -0.000000  -0.000000  -0.012981   0.031374
     18       0.183428   0.000000   0.142196   0.237739   0.000000  -0.000000
     19       0.266351   0.000000   0.136584   0.124873   0.000000  -0.000000
     20       0.000000  -0.187563   0.000000  -0.000000   0.229757   0.128785
     21       0.185893   0.000000   0.127603  -0.190942   0.000000   0.000000
     22      -0.278585  -0.000000  -0.067811   0.154090   0.000000   0.000000
     23      -0.000000   0.402954   0.000000   0.000000  -0.071328   0.079620
     24      -0.183429  -0.000000   0.142201  -0.237732  -0.000000   0.000000
     25      -0.266349  -0.000000   0.136586  -0.124874  -0.000000  -0.000000
     26      -0.000000   0.187564   0.000000   0.000000  -0.229762   0.128786
     27      -0.185894  -0.000000   0.127599   0.190944   0.000000   0.000000
     28       0.278581   0.000000  -0.067810  -0.154088  -0.000000   0.000000
     29       0.000000  -0.402955  -0.000000  -0.000000   0.071333   0.079620
     30      -0.018601   0.000000  -0.262636  -0.137192  -0.000000  -0.000000
     31      -0.036655  -0.000000  -0.168977  -0.052203  -0.000000  -0.000000
     32      -0.000000   0.000035  -0.000000  -0.000000   0.172633  -0.169179
     33      -0.001278   0.000000   0.148358  -0.068096   0.000000   0.000000
     34      -0.039168  -0.000000   0.084327   0.016775   0.000000   0.000000
     35       0.000000  -0.158506  -0.000000   0.000000  -0.086693   0.129023
     36      -0.000882   0.000000  -0.358271  -0.135423  -0.000000  -0.000000
     37      -0.044780  -0.000000  -0.151560  -0.061699  -0.000000   0.000000
     38       0.000000   0.019367  -0.000000  -0.000000   0.495248  -0.460050
     39      -0.000977   0.000000   0.166889  -0.071625   0.000000   0.000000
     40       0.015716  -0.000000   0.164838   0.372371   0.000000   0.000000
     41       0.000000  -0.217301   0.000000   0.000000  -0.239891   0.326463
     42       0.068300   0.000000   0.218226   0.195538   0.000000  -0.000000
     43      -0.069026  -0.000000   0.074331  -0.104041   0.000000   0.000000
     44       0.000000  -0.248757  -0.000000  -0.000000  -0.286132   0.324075
     45       0.018600   0.000000  -0.262638   0.137188   0.000000  -0.000000
     46       0.036655  -0.000000  -0.168980   0.052200  -0.000000  -0.000000
     47      -0.000000  -0.000035   0.000000   0.000000  -0.172633  -0.169179
     48       0.001279   0.000000   0.148358   0.068098   0.000000   0.000000
     49       0.039168  -0.000000   0.084327  -0.016773  -0.000000   0.000000
     50       0.000000   0.158506  -0.000000   0.000000   0.086693   0.129022
     51       0.000882   0.000000  -0.358275   0.135416  -0.000000  -0.000000
     52       0.044779  -0.000000  -0.151562   0.061699  -0.000000   0.000000
     53      -0.000000  -0.019371  -0.000000  -0.000000  -0.495249  -0.460050
     54       0.000978   0.000000   0.166890   0.071628   0.000000   0.000000
     55      -0.015717  -0.000000   0.164846  -0.372372  -0.000000   0.000000
     56      -0.000000   0.217301  -0.000000  -0.000000   0.239892   0.326463
     57      -0.068302   0.000000   0.218232  -0.195533   0.000000   0.000000
     58       0.069028  -0.000000   0.074328   0.104042  -0.000000  -0.000000
     59      -0.000000   0.248758   0.000000  -0.000000   0.286132   0.324075
                 18         19         20         21         22         23    
      0      -0.000000  -0.151882  -0.048735  -0.000000   0.000000   0.036339
      1       0.000000   0.012034  -0.006305   0.000000  -0.000000   0.037488
      2       0.005042  -0.000000  -0.000000   0.221100  -0.153081  -0.000000
      3      -0.000000   0.010551  -0.037368  -0.000000   0.000000  -0.114756
      4       0.000000   0.214423  -0.020976   0.000000   0.000000  -0.023558
      5       0.155036   0.000000   0.000000  -0.053892   0.034438  -0.000000
      6       0.000000   0.022514   0.010142   0.000000  -0.000000   0.110671
      7      -0.000000  -0.244913  -0.052087  -0.000000   0.000000  -0.029049
      8      -0.158481   0.000000  -0.000000  -0.052747  -0.060017   0.000000
      9      -0.000000  -0.151881   0.048734  -0.000000   0.000000   0.036335
     10       0.000000   0.012035   0.006305   0.000000  -0.000000   0.037488
     11       0.005041  -0.000000  -0.000000   0.221098   0.153082  -0.000000
     12      -0.000000   0.010552   0.037369  -0.000000  -0.000000  -0.114756
     13       0.000000   0.214423   0.020977   0.000000   0.000000  -0.023560
     14       0.155034   0.000000   0.000000  -0.053892  -0.034438   0.000000
     15      -0.000000   0.022515  -0.010143   0.000000  -0.000000   0.110672
     16      -0.000000  -0.244914   0.052087  -0.000000  -0.000000  -0.029051
     17      -0.158481   0.000000  -0.000000  -0.052747   0.060017   0.000000
     18      -0.000000  -0.120196  -0.088926  -0.000000   0.000000  -0.494358
     19       0.000000   0.328422   0.003501   0.000000  -0.000000   0.192418
     20       0.467253   0.000000   0.000000  -0.384513   0.455039  -0.000000
     21       0.000000  -0.088529  -0.023700   0.000000  -0.000000   0.327515
     22      -0.000000  -0.347000  -0.079557  -0.000000  -0.000000   0.098856
     23      -0.481018   0.000000  -0.000000  -0.377615  -0.461486   0.000000
     24      -0.000000  -0.120199   0.088935  -0.000000  -0.000000  -0.494349
     25       0.000000   0.328424  -0.003505   0.000000   0.000000   0.192411
     26       0.467249   0.000000   0.000000  -0.384509  -0.455041   0.000000
     27      -0.000000  -0.088523   0.023696   0.000000  -0.000000   0.327506
     28      -0.000000  -0.346998   0.079555   0.000000  -0.000000   0.098848
     29      -0.481017   0.000000   0.000000  -0.377617   0.461484  -0.000000
     30       0.000000   0.135521   0.042879   0.000000  -0.000000  -0.028165
     31       0.000000   0.081426   0.044281   0.000000  -0.000000   0.022128
     32       0.007677  -0.000000  -0.000000  -0.041615  -0.004080   0.000000
     33       0.000000  -0.015917  -0.087849  -0.000000   0.000000   0.011291
     34      -0.000000  -0.047658  -0.017566  -0.000000  -0.000000  -0.024110
     35      -0.007450   0.000000  -0.000000   0.010268   0.003021  -0.000000
     36       0.000000   0.254558   0.370021   0.000000  -0.000000  -0.164662
     37      -0.000000   0.032117  -0.105174   0.000000   0.000000   0.088919
     38       0.022040  -0.000000   0.000000  -0.376895  -0.214100   0.000000
     39       0.000000  -0.018855  -0.089999  -0.000000   0.000000   0.009464
     40      -0.000000  -0.150042   0.439828   0.000000  -0.000000  -0.094828
     41      -0.020991   0.000000   0.000000   0.079136  -0.023591  -0.000000
     42      -0.000000  -0.036371   0.286949   0.000000  -0.000000   0.138814
     43      -0.000000  -0.045943  -0.185552  -0.000000  -0.000000  -0.081554
     44      -0.008983   0.000000   0.000000   0.069543   0.072991   0.000000
     45       0.000000   0.135522  -0.042879   0.000000  -0.000000  -0.028167
     46       0.000000   0.081426  -0.044280   0.000000   0.000000   0.022126
     47       0.007674  -0.000000  -0.000000  -0.041615   0.004079   0.000000
     48      -0.000000  -0.015918   0.087849   0.000000  -0.000000   0.011292
     49      -0.000000  -0.047659   0.017565  -0.000000   0.000000  -0.024110
     50      -0.007449   0.000000   0.000000   0.010268  -0.003021  -0.000000
     51       0.000000   0.254561  -0.370021  -0.000000   0.000000  -0.164673
     52       0.000000   0.032118   0.105176   0.000000  -0.000000   0.088922
     53       0.022036  -0.000000  -0.000000  -0.376896   0.214098  -0.000000
     54      -0.000000  -0.018855   0.089999   0.000000  -0.000000   0.009465
     55       0.000000  -0.150042  -0.439830  -0.000000   0.000000  -0.094832
     56      -0.020988   0.000000   0.000000   0.079135   0.023592   0.000000
     57       0.000000  -0.036371  -0.286949  -0.000000   0.000000   0.138804
     58      -0.000000  -0.045944   0.185552   0.000000  -0.000000  -0.081548
     59      -0.008979   0.000000  -0.000000   0.069544  -0.072990  -0.000000
                 24         25         26         27         28         29    
      0      -0.000000   0.147384   0.000000   0.172465   0.076575   0.101754
      1      -0.000000  -0.021934  -0.000000  -0.010577  -0.004167  -0.001371
      2       0.002400   0.000000  -0.000219   0.000000   0.000000   0.000000
      3       0.000000  -0.020005  -0.000000   0.032013   0.025774   0.070210
      4       0.000000   0.052338   0.000000   0.083859   0.022775   0.013918
      5      -0.019650  -0.000000   0.000195   0.000000   0.000000   0.000000
      6      -0.000000  -0.034583  -0.000000  -0.038967  -0.056684  -0.086256
      7       0.000000  -0.027590   0.000000   0.072138  -0.014966   0.000843
      8      -0.006600   0.000000  -0.003984   0.000000   0.000000   0.000000
      9      -0.000000   0.147386  -0.000000  -0.172486   0.076545  -0.101752
     10      -0.000000  -0.021933   0.000000   0.010575  -0.004165   0.001371
     11      -0.002400  -0.000000  -0.000219   0.000000  -0.000000  -0.000000
     12       0.000000  -0.020003  -0.000000  -0.032015   0.025767  -0.070211
     13      -0.000000   0.052337  -0.000000  -0.083863   0.022761  -0.013919
     14       0.019650   0.000000   0.000195  -0.000000   0.000000  -0.000000
     15      -0.000000  -0.034585   0.000000   0.038975  -0.056675   0.086258
     16       0.000000  -0.027592  -0.000000  -0.072134  -0.014977  -0.000843
     17       0.006600   0.000000  -0.003984   0.000000  -0.000000  -0.000000
     18       0.000000  -0.335803  -0.000000  -0.359758   0.009468   0.425404
     19      -0.000000   0.230282   0.000000   0.329802   0.027988  -0.177046
     20      -0.034349  -0.000000   0.012930  -0.000000  -0.000000   0.000000
     21      -0.000000  -0.298173   0.000000   0.260316  -0.303466  -0.426995
     22      -0.000000  -0.175816   0.000000   0.264132  -0.160236  -0.188020
     23       0.022608   0.000000   0.016652  -0.000000  -0.000000   0.000000
     24       0.000000  -0.335780   0.000000   0.359779   0.009506  -0.425417
     25      -0.000000   0.230269  -0.000000  -0.329817   0.027944   0.177052
     26       0.034349   0.000000   0.012930  -0.000000  -0.000000   0.000000
     27      -0.000000  -0.298186  -0.000000  -0.260250  -0.303490   0.426998
     28      -0.000000  -0.175823  -0.000000  -0.264094  -0.160269   0.188021
     29      -0.022609  -0.000000   0.016652  -0.000000  -0.000000   0.000000
     30       0.000000  -0.011693   0.000000   0.055899  -0.034391   0.027107
     31       0.000000  -0.076377   0.000000   0.034443   0.059172   0.016502
     32       0.014485   0.000000   0.003902  -0.000000  -0.000000   0.000000
     33       0.000000  -0.021844   0.000000   0.001498   0.032285   0.008548
     34       0.000000   0.043706  -0.000000  -0.011659  -0.040038  -0.003429
     35      -0.000072   0.000000   0.001067  -0.000000  -0.000000   0.000000
     36       0.000000   0.116623  -0.000000   0.252877  -0.424981   0.201343
     37       0.000000  -0.133646   0.000000  -0.046880   0.251020  -0.058842
     38       0.060822   0.000000  -0.021103   0.000000   0.000000  -0.000000
     39       0.000000  -0.022745   0.000000   0.005075   0.032173   0.010930
     40      -0.000000   0.328366  -0.000000  -0.000092  -0.280367   0.035773
     41      -0.506525  -0.000000   0.489480  -0.000000  -0.000000  -0.000000
[...]
     29       0.000000   0.000000   0.000000   0.000000   0.000000  -0.000000
     30       0.041713   0.166866  -0.007270   0.011193   0.017064   0.000187
     31      -0.029251  -0.208584  -0.015141   0.024271   0.038967   0.004959
     32       0.000000  -0.000000   0.000000   0.000000  -0.000000   0.000000
     33      -0.057248  -0.140856   0.030113  -0.008256   0.000296   0.060508
     34       0.072993   0.213069   0.036481  -0.014354  -0.014918   0.002013
     35       0.000000   0.000000   0.000000   0.000000   0.000000  -0.000000
     36       0.081068  -0.264823   0.067648  -0.126616  -0.198764  -0.027889
     37      -0.062550  -0.065185   0.142769  -0.263970  -0.425863  -0.063231
     38      -0.000000   0.000000  -0.000000  -0.000000   0.000000  -0.000000
     39      -0.069033  -0.186940  -0.141334   0.008768  -0.093467  -0.665986
     40      -0.148702  -0.288688  -0.014675   0.005597   0.003915  -0.012020
     41      -0.000000  -0.000000  -0.000000  -0.000000   0.000000   0.000000
     42       0.213469   0.378229  -0.191478   0.075527   0.078932  -0.026449
     43      -0.044327   0.022049  -0.392093   0.148682   0.152190  -0.006708
     44      -0.000000  -0.000000  -0.000000  -0.000000  -0.000000   0.000000
     45      -0.041713  -0.166865  -0.007270   0.011193   0.017064   0.000187
     46       0.029250   0.208583  -0.015141   0.024271   0.038967   0.004959
     47       0.000000   0.000000   0.000000  -0.000000  -0.000000   0.000000
     48       0.057247   0.140855   0.030113  -0.008256   0.000296   0.060508
     49      -0.072992  -0.213068   0.036480  -0.014354  -0.014918   0.002013
     50       0.000000  -0.000000  -0.000000   0.000000   0.000000  -0.000000
     51      -0.081070   0.264821   0.067648  -0.126616  -0.198764  -0.027889
     52       0.062550   0.065184   0.142769  -0.263970  -0.425863  -0.063230
     53      -0.000000   0.000000  -0.000000   0.000000   0.000000  -0.000000
     54       0.069032   0.186940  -0.141334   0.008768  -0.093467  -0.665986
     55       0.148698   0.288687  -0.014675   0.005597   0.003914  -0.012020
     56      -0.000000   0.000000   0.000000  -0.000000   0.000000  -0.000000
     57      -0.213465  -0.378227  -0.191478   0.075527   0.078932  -0.026449
     58       0.044326  -0.022049  -0.392093   0.148681   0.152190  -0.006708
     59      -0.000000   0.000000   0.000000  -0.000000   0.000000   0.000000
                 54         55         56         57         58         59    
      0      -0.002168   0.000435   0.000008   0.002854  -0.001630  -0.000384
      1       0.001105   0.000345   0.003786  -0.000418  -0.000047   0.000295
      2      -0.000000  -0.000000   0.000000   0.000000  -0.000000   0.000000
      3      -0.001386  -0.000151  -0.018239   0.026056  -0.001601  -0.000151
      4      -0.001926  -0.000094  -0.036002   0.041481  -0.002905  -0.000176
      5      -0.000000  -0.000000  -0.000000   0.000000  -0.000000  -0.000000
      6       0.011818  -0.001307  -0.021424  -0.023316   0.000973   0.000583
      7      -0.019248   0.002510   0.040942   0.036065  -0.000767  -0.001013
      8      -0.000000   0.000000   0.000000  -0.000000   0.000000  -0.000000
      9      -0.002168  -0.000435  -0.000008  -0.002855   0.001630   0.000384
     10       0.001105  -0.000345  -0.003786   0.000418   0.000047  -0.000295
     11       0.000000   0.000000  -0.000000   0.000000   0.000000  -0.000000
     12      -0.001386   0.000151   0.018239  -0.026056   0.001601   0.000151
     13      -0.001926   0.000094   0.036002  -0.041481   0.002905   0.000176
     14       0.000000   0.000000  -0.000000   0.000000   0.000000  -0.000000
     15       0.011818   0.001307   0.021424   0.023316  -0.000973  -0.000583
     16      -0.019248  -0.002510  -0.040943  -0.036065   0.000767   0.001013
     17       0.000000   0.000000   0.000000  -0.000000   0.000000  -0.000000
     18       0.019635   0.001367   0.231203  -0.265006   0.018747   0.000744
     19       0.031319   0.002319   0.401779  -0.457803   0.030607   0.001345
     20       0.000000   0.000000  -0.000000   0.000000   0.000000   0.000000
     21      -0.137772   0.011667   0.267597   0.234983  -0.004134  -0.008333
     22       0.220367  -0.022186  -0.457017  -0.399029   0.007494   0.014457
     23      -0.000000  -0.000000  -0.000000   0.000000  -0.000000  -0.000000
     24       0.019635  -0.001367  -0.231203   0.265006  -0.018747  -0.000744
     25       0.031319  -0.002319  -0.401779   0.457803  -0.030607  -0.001345
     26       0.000000   0.000000   0.000000  -0.000000   0.000000   0.000000
     27      -0.137771  -0.011667  -0.267599  -0.234984   0.004134   0.008333
     28       0.220365   0.022186   0.457020   0.399032  -0.007494  -0.014457
     29       0.000000  -0.000000  -0.000000   0.000000  -0.000000   0.000000
     30      -0.013372  -0.008003   0.000563  -0.001053  -0.021785  -0.002594
     31      -0.031088  -0.002969   0.001717  -0.002462  -0.059088  -0.007449
     32       0.000000   0.000000  -0.000000   0.000000   0.000000  -0.000000
     33      -0.004178   0.027005  -0.002062  -0.001729  -0.000406  -0.059897
     34      -0.038437  -0.043317  -0.000017   0.000825   0.016582  -0.035361
     35       0.000000  -0.000000   0.000000  -0.000000   0.000000   0.000000
     36       0.166648   0.048112  -0.007805   0.014861   0.287566   0.032592
     37       0.360548   0.108507  -0.016860   0.027759   0.626498   0.075948
     38      -0.000000  -0.000000  -0.000000   0.000000  -0.000000   0.000000
     39      -0.154789  -0.483857   0.022079   0.019935   0.017928   0.509982
     40       0.009186  -0.007327   0.000082  -0.000225   0.000542  -0.000224
     41      -0.000000   0.000000  -0.000000   0.000000  -0.000000   0.000000
     42       0.216928   0.216100  -0.002698  -0.004838  -0.061111   0.200339
     43       0.446163   0.449131  -0.004265  -0.008405  -0.123014   0.433324
     44      -0.000000   0.000000  -0.000000   0.000000   0.000000  -0.000000
     45      -0.013372   0.008003  -0.000563   0.001053   0.021785   0.002594
     46      -0.031088   0.002969  -0.001717   0.002462   0.059088   0.007449
     47       0.000000   0.000000  -0.000000  -0.000000   0.000000   0.000000
     48      -0.004178  -0.027005   0.002062   0.001729   0.000406   0.059897
     49      -0.038438   0.043317   0.000017  -0.000825  -0.016582   0.035361
     50      -0.000000   0.000000   0.000000   0.000000   0.000000  -0.000000
     51       0.166648  -0.048112   0.007805  -0.014861  -0.287566  -0.032593
     52       0.360548  -0.108506   0.016860  -0.027759  -0.626498  -0.075948
     53      -0.000000  -0.000000   0.000000   0.000000  -0.000000  -0.000000
     54      -0.154789   0.483857  -0.022079  -0.019936  -0.017929  -0.509982
     55       0.009187   0.007327  -0.000082   0.000224  -0.000543   0.000224
     56       0.000000  -0.000000  -0.000000  -0.000000  -0.000000   0.000000
     57       0.216928  -0.216100   0.002698   0.004838   0.061111  -0.200339
     58       0.446163  -0.449131   0.004265   0.008405   0.123014  -0.433324
     59       0.000000  -0.000000  -0.000000  -0.000000  -0.000000   0.000000


-----------
IR SPECTRUM
-----------

 Mode    freq (cm**-1)   T**2         TX         TY         TZ
-------------------------------------------------------------------
   6:       294.84    0.000000  ( -0.000004  -0.000006   0.000000)
   7:       356.53    0.014307  ( -0.000000   0.000000   0.119610)
   8:       367.60    0.028072  (  0.066974   0.153579  -0.000000)
   9:       401.50    0.000000  (  0.000005  -0.000005   0.000000)
  10:       478.87    0.053162  ( -0.061586   0.222192   0.000000)
  11:       577.24    0.000000  ( -0.000002   0.000005   0.000000)
  12:       679.60    0.000000  ( -0.000004  -0.000004  -0.000000)
  13:       704.10    0.000000  (  0.000000  -0.000000  -0.000004)
  14:       797.34    0.273964  (  0.503409   0.143327  -0.000000)
  15:       866.60    0.000000  (  0.000014  -0.000005  -0.000000)
  16:       946.55    0.000000  ( -0.000000  -0.000000   0.000001)
  17:       976.26    1.084932  ( -0.000000   0.000000   1.041601)
  18:      1006.74    0.007033  (  0.000000  -0.000000  -0.083861)
  19:      1026.49    0.264558  ( -0.195792  -0.475629   0.000000)
  20:      1105.21    0.000000  (  0.000018  -0.000020  -0.000000)
  21:      1164.66   16.753846  ( -0.000000   0.000000  -4.093146)
  22:      1177.75    0.000000  ( -0.000000  -0.000000  -0.000007)
  23:      1234.58    4.314035  ( -1.215277   1.684380   0.000000)
  24:      1247.92    0.000000  (  0.000000  -0.000000  -0.000002)
  25:      1252.35   16.207469  ( -3.572212   1.856547   0.000000)
  26:      1255.90    0.000283  ( -0.000000  -0.000000  -0.016831)
  27:      1266.56    0.000000  (  0.000375   0.000180   0.000000)
  28:      1277.11   16.248038  ( -3.547448  -1.914066   0.000000)
  29:      1297.70    0.000000  ( -0.000032   0.000009  -0.000000)
  30:      1338.02    0.000000  ( -0.000000  -0.000000  -0.000083)
  31:      1345.79   16.982883  ( -0.000000  -0.000000  -4.121029)
  32:      1347.52   10.215340  ( -2.104262  -2.405706   0.000000)
  33:      1350.04    0.000000  (  0.000000   0.000000  -0.000110)
  34:      1389.68   91.307627  ( -0.000000   0.000000   9.555502)
  35:      1391.22    0.000000  ( -0.000025   0.000012   0.000000)
  36:      1430.86    0.000003  (  0.000972  -0.001582  -0.000000)
  37:      1431.04   61.374961  ( -4.911783   6.103224  -0.000000)
  38:      1432.52    0.116860  ( -0.000000   0.000000  -0.341848)
  39:      1442.29   17.677484  (  3.790090  -1.820084  -0.000000)
  40:      1478.40    0.000000  (  0.000000  -0.000000   0.000028)
  41:      1492.82    8.893714  ( -0.000000  -0.000000   2.982233)
  42:      1511.22    0.000000  ( -0.000000   0.000000  -0.000007)
  43:      1538.27   41.191190  (  6.405854  -0.395251  -0.000000)
  44:      1573.81    0.000000  (  0.000050   0.000020  -0.000000)
  45:      1661.44   16.907233  (  0.191318   4.107387   0.000000)
  46:      1720.53    4.746699  (  1.041703   1.913519   0.000000)
  47:      1784.34    0.000000  ( -0.000003   0.000003  -0.000000)
  48:      1792.39    0.000000  (  0.000006  -0.000017  -0.000000)
  49:      1873.84    0.000000  (  0.000007  -0.000011   0.000000)
  50:      3040.57   50.673511  ( -6.112106   3.649065  -0.000000)
  51:      3053.40   55.425732  (  3.305504   6.670785  -0.000000)
  52:      3065.91   69.674330  ( -7.900379  -2.694132  -0.000000)
  53:      3069.82   99.060917  ( -9.227802  -3.729423   0.000000)
  54:      3099.40  243.697730  (  1.741114  15.513422   0.000000)
  55:      3381.57    0.000000  (  0.000001   0.000001  -0.000000)
  56:      3434.37    0.000000  ( -0.000010   0.000025  -0.000000)
  57:      3450.47    0.000000  ( -0.000011   0.000019   0.000000)
  58:      3460.55    0.000000  (  0.000000  -0.000004  -0.000000)
  59:      3517.43    0.000000  ( -0.000001  -0.000004  -0.000000)

--------------
RAMAN SPECTRUM
--------------

 Mode    freq (cm**-1)   Activity   Depolarization
-------------------------------------------------------------------
   6:       294.84      5.291308      0.404692
   7:       356.53      0.000000      0.000000
   8:       367.60      0.000000      0.301002
   9:       401.50      1.015812      0.161012
  10:       478.87      0.000000      0.341050
  11:       577.24      7.494326      0.365237
  12:       679.60      6.049407      0.741910
  13:       704.10      0.155039      0.750000
  14:       797.34      0.000000      0.734666
  15:       866.60      7.864586      0.673223
  16:       946.55      7.095251      0.750000
  17:       976.26      0.000000      0.000000
  18:      1006.74      0.000000      0.749910
  19:      1026.49      0.000000      0.396713
  20:      1105.21     12.917694      0.479440
  21:      1164.66      0.000000      0.749089
  22:      1177.75      5.489753      0.750000
  23:      1234.58      0.000000      0.253093
  24:      1247.92     11.744148      0.750000
  25:      1252.35      0.000000      0.679134
  26:      1255.90      0.000000      0.000000
  27:      1266.56    197.754612      0.232601
  28:      1277.11      0.000002      0.242014
  29:      1297.70     27.704882      0.465968
  30:      1338.02     14.137493      0.750000
  31:      1345.79      0.000000      0.749992
  32:      1347.52      0.000000      0.721748
  33:      1350.04     10.198330      0.750000
  34:      1389.68      0.000000      0.749928
  35:      1391.22     23.118692      0.741311
  36:      1430.86      4.934150      0.168763
  37:      1431.04      0.000000      0.149667
  38:      1432.52      0.000000      0.742324
  39:      1442.29      0.000000      0.166660
  40:      1478.40      7.747592      0.750000
  41:      1492.82      0.000000      0.749916
  42:      1511.22      3.193892      0.750000
  43:      1538.27      0.000000      0.412942
  44:      1573.81    203.516662      0.331317
  45:      1661.44      0.000000      0.381473
  46:      1720.53      0.000000      0.737887
  47:      1784.34    582.747662      0.407253
  48:      1792.39     20.450364      0.415041
  49:      1873.84    249.590532      0.261459
  50:      3040.57      0.000000      0.233465
  51:      3053.40      0.000000      0.000000
  52:      3065.91      0.000000      0.270225
  53:      3069.82      0.000000      0.438867
  54:      3099.40      0.000000      0.210416
  55:      3381.57     78.752151      0.176832
  56:      3434.37     54.528933      0.749236
  57:      3450.47    126.753361      0.184077
  58:      3460.55     79.997930      0.336035
  59:      3517.43    125.174082      0.546398

The first frequency considered to be a vibration is 6
The total number of vibrations considered is 54


--------------------------
THERMOCHEMISTRY AT 298.15K
--------------------------

Temperature         ... 298.15 K
Pressure            ... 1.00 atm
Total Mass          ... 130.19 AMU

Throughout the following assumptions are being made:
  (1) The electronic state is orbitally nondegenerate
  (2) There are no thermally accessible electronically excited states
  (3) Hindered rotations indicated by low frequency modes) are not
      treated as such but are treated as vibrations and this may
      case some error
  (4) All equations used are the standard statistical mechanics
      equations for an ideal gas
  (5) All vibrations are strinctly harmonic


------------
INNER ENERGY
------------

The inner energy is: U= E(el) + E(ZPE) + E(vib) + E(rot) + E(trans)
    E(el)   - is the total energy from the electronic structure calculation
              = E(kin-el) + E(nuc-el) + E(el-el) + E(nuc-nuc)
    E(ZPE)  - the the zero temperature vibrational energy from the frequency calculation
    E(vib)  - the the finite temperature correction to E(ZPE) due to population
              of excietd vibrational states
    E(rot)  - is the rotational thermal energy
    E(trans)- is the translational thermal energy

Summary of contributions to the inner energy U:
Electronic energy                ...   -382.04265181 Eh
Zero point energy                ...      0.19286870 Eh     121.03 kcal/mol
Thermal vibrational correction   ...      0.00263516 Eh       1.65 kcal/mol
Thermal rotational correction    ...      0.00141627 Eh       0.89 kcal/mol
Thermal translational correction ...      0.00141627 Eh       0.89 kcal/mol
-----------------------------------------------------------------------
Total thermal energy                   -381.84431541 Eh


Summary of corrections to the electronic energy:
(perhaps to be used in another calculation)
Total thermal correction                  0.00546770 Eh       3.43 kcal/mol
Non-thermal (ZPE) correction              0.19286870 Eh     121.03 kcal/mol
-----------------------------------------------------------------------
Total correction                          0.19833640 Eh     124.46 kcal/mol


--------
ENTHALPY
--------

The enthalpy is H = U + kB*T
                kB is Boltzmann's constant
Total free energy                 ...   -381.84431541 Eh 
Thermal Enthalpy correction       ...      0.00094421 Eh       0.59 kcal/mol
-----------------------------------------------------------------------
Total Enthalpy                    ...   -381.84337120 Eh


-------
ENTROPY
-------

The entropy contributions are T*S = T*(S(el)+S(vib)+S(rot)+S(trans)
     S(el)   - electronic entropy
     S(vib)  - vibrational entropy
     S(rot)  - rotational entropy
     S(trans)- translational entropy
The entropies will be listed as mutliplied by the temperature to get
units of energy

Electronic entropy                ...      0.00000000 Eh      0.00 kcal/mol
Vibrational entropy               ...      0.00374075 Eh      2.35 kcal/mol
Rotational entropy                ...      0.01296357 Eh      8.13 kcal/mol
Translational entropy             ...      0.01924489 Eh     12.08 kcal/mol
-----------------------------------------------------------------------
Final entropy term                ...      0.03594921 Eh     22.56 kcal/mol


CAUTION: The rotational entropy is not quite correctly treated here
         because it includes a symmetry number that is not yet correctly
         implemented in ORCA!
For a nonlinear molecule the correct rotational entropy is:
    S(rot) = R*(ln(qrot/sn)+1.5)
    R    = 8.31441 J/mol/K = 1.987191683e-3 kcal/mol/K
    qrot = 614508.3865973
    sn is the rotational symmetry number. We have assumed 3 here
       if it is different for your molecule then you should correct
       the printed rotational entropy by manually evaluating the equation
       as given above

For convenience we print out the resulting values for sn=1 - 12:
 sn= 1  qrot/sn=  614508.3866 T*S(rot)=     8.79 kcal/mol T*S(tot)=    23.21 kcal/mol
 sn= 2  qrot/sn=  307254.1933 T*S(rot)=     8.37 kcal/mol T*S(tot)=    22.80 kcal/mol
 sn= 3  qrot/sn=  204836.1289 T*S(rot)=     8.13 kcal/mol T*S(tot)=    22.56 kcal/mol
 sn= 4  qrot/sn=  153627.0966 T*S(rot)=     7.96 kcal/mol T*S(tot)=    22.39 kcal/mol
 sn= 5  qrot/sn=  122901.6773 T*S(rot)=     7.83 kcal/mol T*S(tot)=    22.26 kcal/mol
 sn= 6  qrot/sn=  102418.0644 T*S(rot)=     7.72 kcal/mol T*S(tot)=    22.15 kcal/mol
 sn= 7  qrot/sn=   87786.9124 T*S(rot)=     7.63 kcal/mol T*S(tot)=    22.06 kcal/mol
 sn= 8  qrot/sn=   76813.5483 T*S(rot)=     7.55 kcal/mol T*S(tot)=    21.98 kcal/mol
 sn= 9  qrot/sn=   68278.7096 T*S(rot)=     7.48 kcal/mol T*S(tot)=    21.91 kcal/mol
 sn=10  qrot/sn=   61450.8387 T*S(rot)=     7.42 kcal/mol T*S(tot)=    21.85 kcal/mol
 sn=11  qrot/sn=   55864.3988 T*S(rot)=     7.36 kcal/mol T*S(tot)=    21.79 kcal/mol
 sn=12  qrot/sn=   51209.0322 T*S(rot)=     7.31 kcal/mol T*S(tot)=    21.74 kcal/mol


-------------------
GIBBS FREE ENTHALPY
-------------------

The Gibbs free enthalpy is G = H - T*S

Total enthalpy                    ...   -381.84337120 Eh 
Total entropy correction          ...     -0.03594921 Eh    -22.56 kcal/mol
-----------------------------------------------------------------------
Final Gibbs free enthalpy         ...   -381.87932041 Eh

For completeness - the Gibbs free enthalpy minus the electronic energy
G-E(el)                           ...      0.16333140 Eh    102.49 kcal/mol


Total Time for Numerical Frequencies  :      4884.978 sec
Time for Reference State(s)           :        35.357 sec
Time for Displacements                :      4849.154 sec

Timings for individual modules:

Sum of individual times         ...       95.314 sec (=   1.589 min)
GTO integral calculation        ...        0.617 sec (=   0.010 min)   0.6 %
SCF iterations                  ...       31.997 sec (=   0.533 min)  33.6 %
Solution of CP-SCF eqns.        ...       37.713 sec (=   0.629 min)  39.6 %
SCF Gradient evaluation         ...       24.988 sec (=   0.416 min)  26.2 %
                             ****ORCA TERMINATED NORMALLY****
TOTAL RUN TIME: 0 days 1 hours 22 minutes 25 seconds 331 msec
