1         ******************************************************
          *            GAMESS VERSION =  6 JUN 1999            *
          *             FROM IOWA STATE UNIVERSITY             *
          * M.W.SCHMIDT, K.K.BALDRIDGE, J.A.BOATZ, S.T.ELBERT, *
          *   M.S.GORDON, J.H.JENSEN, S.KOSEKI, N.MATSUNAGA,   *
          *          K.A.NGUYEN, S.J.SU, T.L.WINDUS,           *
          *       TOGETHER WITH M.DUPUIS, J.A.MONTGOMERY       *
          *         J.COMPUT.CHEM.  14, 1347-1363(1993)        *
          *******Intel x86 (Win32,Linux,OS/2,DOS) VERSION*******
          *      PC GAMESS version 6.2, build number 2068      *
          *   Compiled on    Friday,    21-09-2001, 00:37:32   *
          *      Intel specific optimization, bug fixes,       *
          *    code changes, and additional functionality -    *
          *  copyright (c) 1994, 2001 by Alex. A. Granovsky,   *
          *        Laboratory of Chemical Cybernetics,         *
          *      Moscow State University, Moscow, Russia.      *
          *   Some parts of this program include code due to   *
          * work of Jim Kress, Peter Burger, and Robert Ponec. *
          ******************************************************
          *                   PC GAMESS URLs:                  *
          * http://classic.chem.msu.su/gran/gamess/index.html  *
          * http://quantum-2.chem.msu.ru/gran/gamess/index.html*
          *          E-mail: gran@classic.chem.msu.su          *
          *   This program may not be redistributed without    *
          * the specific, written permission of its developers.*
          ******************************************************


 Pentium III/ Win32  PC GAMESS version running under Windows NT
 Running on Intel CPU:  Brand ID  1, Family  6, Model  8, Stepping 10
 CPU Features        :  CMOV, MMX, SSE      
 Data cache size     :  L1 16 KB, L2  128 KB
 Operating system successfully passed SSE support test.


 EXECUTION OF GAMESS BEGUN 13:39:02 LT  19-MAR-2006

            ECHO OF THE FIRST FEW INPUT CARDS -
 INPUT CARD> $CONTRL COORD=CART UNITS=ANGS SCFTYP=RHF RUNTYP=HESSIAN NPRINT=3 $END          
 INPUT CARD> $BASIS  GBASIS=STO NGAUSS=3 $END                                               
 INPUT CARD> $GUESS  GUESS=HUCKEL $END                                                      
 INPUT CARD> $DFT DFTTYP=B3LYP $END                                                         
 INPUT CARD> $DATA                                                                          
 INPUT CARD>divinylbenzene                                                                  
 INPUT CARD>cnh  2                                                                          
 INPUT CARD>                                                                                
 INPUT CARD> C           6.0  -1.3939882447   0.2213755683   0.0000000000                   
 INPUT CARD> C           6.0   1.3939882447  -0.2213755683   0.0000000000                   
 INPUT CARD> C           6.0  -0.4919705715   1.2868407086   0.0000000000                   
 INPUT CARD> C           6.0   0.4919705715  -1.2868407086   0.0000000000                   
 INPUT CARD> C           6.0   0.8733456137   1.0731470812   0.0000000000                   
 INPUT CARD> C           6.0  -0.8733456137  -1.0731470812   0.0000000000                   
 INPUT CARD> H           1.0  -0.8715846529   2.3007508400   0.0000000000                   
 INPUT CARD> H           1.0   0.8715846529  -2.3007508400   0.0000000000                   
 INPUT CARD> H           1.0   1.5389282156   1.9253173698   0.0000000000                   
 INPUT CARD> H           1.0  -1.5389282156  -1.9253173698   0.0000000000                   
 INPUT CARD> C           6.0   2.8621079750  -0.5097799325   0.0000000000                   
 INPUT CARD> C           6.0  -2.8621079750   0.5097799325   0.0000000000                   
 INPUT CARD> H           1.0   3.1070578958  -1.5662206184   0.0000000000                   
 INPUT CARD> H           1.0  -3.1070578958   1.5662206184   0.0000000000                   
 INPUT CARD> C           6.0   3.8375160019   0.3700444858   0.0000000000                   
 INPUT CARD> C           6.0  -3.8375160019  -0.3700444858   0.0000000000                   
 INPUT CARD> H           1.0   3.6688910549   1.4371664215   0.0000000000                   
 INPUT CARD> H           1.0  -3.6688910549  -1.4371664215   0.0000000000                   
 INPUT CARD> H           1.0   4.8733853301   0.0604752833   0.0000000000                   
 INPUT CARD> H           1.0  -4.8733853301  -0.0604752833   0.0000000000                   
 INPUT CARD> $END                                                                           
    2000000 WORDS OF MEMORY AVAILABLE

     BASIS OPTIONS
     -------------
     GBASIS=STO          IGAUSS=       3      POLAR=NONE    
     NDFUNC=       0     DIFFSP=       F
     NPFUNC=       0      DIFFS=       F


     RUN TITLE
     ---------
 divinylbenzene                                                                  

 THE POINT GROUP OF THE MOLECULE IS CNH     
 THE ORDER OF THE PRINCIPAL AXIS IS     2

 THE MOMENTS OF INERTIA ARE (AMU-ANGSTROM**2)
 IXX=   105.330   IYY=   721.564   IZZ=   826.894

 ATOM      ATOMIC                      COORDINATES (BOHR)
           CHARGE         X                   Y                   Z
 C           6.0     2.6326754828       -0.4281718636        0.0000000000
 C           6.0    -2.6326754828        0.4281718636        0.0000000000
 C           6.0     0.9206034836       -2.4352305938        0.0000000000
 C           6.0    -0.9206034836        2.4352305938        0.0000000000
 C           6.0    -1.6579442427       -2.0217776949        0.0000000000
 C           6.0     1.6579442427        2.0217776949        0.0000000000
 H           1.0     1.6308111945       -4.3539080202        0.0000000000
 H           1.0    -1.6308111945        4.3539080202        0.0000000000
 H           1.0    -2.9217169051       -3.6274386342        0.0000000000
 H           1.0     2.9217169051        3.6274386342        0.0000000000
 C           6.0    -5.4049652465        0.9835319540        0.0000000000
 C           6.0     5.4049652465       -0.9835319540        0.0000000000
 H           1.0    -5.8603962828        2.9816297594        0.0000000000
 H           1.0     5.8603962828       -2.9816297594        0.0000000000
 C           6.0    -7.2544141054       -0.6722013017        0.0000000000
 C           6.0     7.2544141054        0.6722013017        0.0000000000
 H           1.0    -6.9432907143       -2.6899450727        0.0000000000
 H           1.0     6.9432907143        2.6899450727        0.0000000000
 H           1.0    -9.2097254111       -0.0798955904        0.0000000000
 H           1.0     9.2097254111        0.0798955904        0.0000000000

          INTERNUCLEAR DISTANCES (ANGS.)
          ------------------------------

                    C              C              C              C         

  1  C               0.0000000      2.8229136 *    1.3960128 *    2.4148617 *  
  2  C               2.8229136 *    0.0000000      2.4148617 *    1.3960128 *  
  3  C               1.3960128 *    2.4148617 *    0.0000000      2.7553541 *  
  4  C               2.4148617 *    1.3960128 *    2.7553541 *    0.0000000    
  5  C               2.4220482 *    1.3952984 *    1.3819382 *    2.3906044 *  
  6  C               1.3952984 *    2.4220482 *    2.3906044 *    1.3819382 *  
  7  H               2.1439932 *    3.3902717      1.0826452 *    3.8379807    
  8  H               3.3902717      2.1439932 *    3.8379807      1.0826452 *  
  9  H               3.3919635      2.1515804 *    2.1288970 *    3.3784730    
 10  H               2.1515804 *    3.3919635      3.3784730      2.1288970 *  
 11  C               4.3184422      1.4961793 *    3.8049558      2.4942684 *  
 12  C               1.4961793 *    4.3184422      2.4942684 *    3.8049558    
 13  H               4.8430276      2.1778925 *    4.5927078      2.6299686 *  
 14  H               2.1778925 *    4.8430276      2.6299686 *    4.5927078    
 15  C               5.2336163      2.5140815 *    4.4254909      3.7333554    
 16  C               2.5140815 *    5.2336163      3.7333554      4.4254909    
 17  H               5.2068123      2.8153054 *    4.1635763      4.1848583    
 18  H               2.8153054 *    5.2068123      4.1848583      4.1635763    
 19  H               6.2694386      3.4907942      5.5037275      4.5838909    
 20  H               3.4907942      6.2694386      4.5838909      5.5037275    

                    C              C              H              H         

  1  C               2.4220482 *    1.3952984 *    2.1439932 *    3.3902717    
  2  C               1.3952984 *    2.4220482 *    3.3902717      2.1439932 *  
  3  C               1.3819382 *    2.3906044 *    1.0826452 *    3.8379807    
  4  C               2.3906044 *    1.3819382 *    3.8379807      1.0826452 *  
  5  C               0.0000000      2.7672204 *    2.1334931 *    3.3738984    
  6  C               2.7672204 *    0.0000000      3.3738984      2.1334931 *  
  7  H               2.1334931 *    3.3738984      0.0000000      4.9206155    
  8  H               3.3738984      2.1334931 *    4.9206155      0.0000000    
  9  H               1.0812929 *    3.8483573      2.4395743 *    4.2784343    
 10  H               3.8483573      1.0812929 *    4.2784343      2.4395743 *  
 11  C               2.5418170 *    3.7776972      4.6732798      2.6776407 *  
 12  C               3.7776972      2.5418170 *    2.6776407 *    4.6732798    
 13  H               3.4577062      4.0108270      5.5482488      2.3530566 *  
 14  H               4.0108270      3.4577062      2.3530566 *    5.5482488    
 15  C               3.0464175      4.9269685      5.0895241      3.9912274    
 16  C               4.9269685      3.0464175      3.9912274      5.0895241    
 17  H               2.8191460 *    5.1897580      4.6218717      4.6687202    
 18  H               5.1897580      2.8191460 *    4.6687202      4.6218717    
 19  H               4.1262358      5.8574752      6.1663210      4.6464823    
 20  H               5.8574752      4.1262358      4.6464823      6.1663210    

                    H              H              C              C         

  1  C               3.3919635      2.1515804 *    4.3184422      1.4961793 *  
  2  C               2.1515804 *    3.3919635      1.4961793 *    4.3184422    
  3  C               2.1288970 *    3.3784730      3.8049558      2.4942684 *  
  4  C               3.3784730      2.1288970 *    2.4942684 *    3.8049558    
  5  C               1.0812929 *    3.8483573      2.5418170 *    3.7776972    
  6  C               3.8483573      1.0812929 *    3.7776972      2.5418170 *  
  7  H               2.4395743 *    4.2784343      4.6732798      2.6776407 *  
  8  H               4.2784343      2.4395743 *    2.6776407 *    4.6732798    
  9  H               0.0000000      4.9295627      2.7713721 *    4.6230797    
 10  H               4.9295627      0.0000000      4.6230797      2.7713721 *  
 11  C               2.7713721 *    4.6230797      0.0000000      5.8143057    
 12  C               4.6230797      2.7713721 *    5.8143057      0.0000000    
 13  H               3.8275146      4.6598431      1.0844664 *    6.3198670    
 14  H               4.6598431      3.8275146      6.3198670      1.0844664 *  
 15  C               2.7753161 *    5.8459249      1.3135874 *    6.7010811    
 16  C               5.8459249      2.7753161 *    6.7010811      1.3135874 *  
 17  H               2.1851849 *    6.1990063      2.1074864 *    6.5965138    
 18  H               6.1990063      2.1851849 *    6.5965138      2.1074864 *  
 19  H               3.8205026      6.7127593      2.0905568 *    7.7485309    
 20  H               6.7127593      3.8205026      7.7485309      2.0905568 *  

                    H              H              C              C         

  1  C               4.8430276      2.1778925 *    5.2336163      2.5140815 *  
  2  C               2.1778925 *    4.8430276      2.5140815 *    5.2336163    
  3  C               4.5927078      2.6299686 *    4.4254909      3.7333554    
  4  C               2.6299686 *    4.5927078      3.7333554      4.4254909    
  5  C               3.4577062      4.0108270      3.0464175      4.9269685    
  6  C               4.0108270      3.4577062      4.9269685      3.0464175    
  7  H               5.5482488      2.3530566 *    5.0895241      3.9912274    
  8  H               2.3530566 *    5.5482488      3.9912274      5.0895241    
  9  H               3.8275146      4.6598431      2.7753161 *    5.8459249    
 10  H               4.6598431      3.8275146      5.8459249      2.7753161 *  
 11  C               1.0844664 *    6.3198670      1.3135874 *    6.7010811    
 12  C               6.3198670      1.0844664 *    6.7010811      1.3135874 *  
 13  H               0.0000000      6.9589815      2.0694665 *    7.0468393    
 14  H               6.9589815      0.0000000      7.0468393      2.0694665 *  
 15  C               2.0694665 *    7.0468393      0.0000000      7.7106321    
 16  C               7.0468393      2.0694665 *    7.7106321      0.0000000    
 17  H               3.0554853      6.7771778      1.0803627 *    7.7208910    
 18  H               6.7771778      3.0554853      7.7208910      1.0803627 *  
 19  H               2.4012605 *    8.1212526      1.0811375 *    8.7215337    
 20  H               8.1212526      2.4012605 *    8.7215337      1.0811375 *  

                    H              H              H              H         

  1  C               5.2068123      2.8153054 *    6.2694386      3.4907942    
  2  C               2.8153054 *    5.2068123      3.4907942      6.2694386    
  3  C               4.1635763      4.1848583      5.5037275      4.5838909    
  4  C               4.1848583      4.1635763      4.5838909      5.5037275    
  5  C               2.8191460 *    5.1897580      4.1262358      5.8574752    
  6  C               5.1897580      2.8191460 *    5.8574752      4.1262358    
  7  H               4.6218717      4.6687202      6.1663210      4.6464823    
  8  H               4.6687202      4.6218717      4.6464823      6.1663210    
  9  H               2.1851849 *    6.1990063      3.8205026      6.7127593    
 10  H               6.1990063      2.1851849 *    6.7127593      3.8205026    
 11  C               2.1074864 *    6.5965138      2.0905568 *    7.7485309    
 12  C               6.5965138      2.1074864 *    7.7485309      2.0905568 *  
 13  H               3.0554853      6.7771778      2.4012605 *    8.1212526    
 14  H               6.7771778      3.0554853      8.1212526      2.4012605 *  
 15  C               1.0803627 *    7.7208910      1.0811375 *    8.7215337    
 16  C               7.7208910      1.0803627 *    8.7215337      1.0811375 *  
 17  H               0.0000000      7.8806621      1.8292307 *    8.6725669    
 18  H               7.8806621      0.0000000      8.6725669      1.8292307 *  
 19  H               1.8292307 *    8.6725669      0.0000000      9.7475211    
 20  H               8.6725669      1.8292307 *    9.7475211      0.0000000    

  * ... LESS THAN  3.000


     ATOMIC BASIS SET
     ----------------
 THE CONTRACTED PRIMITIVE FUNCTIONS HAVE BEEN UNNORMALIZED
 THE CONTRACTED BASIS FUNCTIONS ARE NOW NORMALIZED TO UNITY

 SHELL TYPE PRIM    EXPONENT          CONTRACTION COEFFICIENTS

 C         

   3   S    1      71.616837    2.707814 (  0.154329) 
   3   S    2      13.045096    2.618880 (  0.535328) 
   3   S    3       3.530512    0.816191 (  0.444635) 

   4   L    4       2.941249   -0.160017 ( -0.099967)     0.856045 (  0.155916) 
   4   L    5       0.683483    0.214036 (  0.399513)     0.538304 (  0.607684) 
   4   L    6       0.222290    0.161536 (  0.700115)     0.085276 (  0.391957) 

 C         

   7   S    7      71.616837    2.707814 (  0.154329) 
   7   S    8      13.045096    2.618880 (  0.535328) 
   7   S    9       3.530512    0.816191 (  0.444635) 

   8   L   10       2.941249   -0.160017 ( -0.099967)     0.856045 (  0.155916) 
   8   L   11       0.683483    0.214036 (  0.399513)     0.538304 (  0.607684) 
   8   L   12       0.222290    0.161536 (  0.700115)     0.085276 (  0.391957) 

 C         

  11   S   13      71.616837    2.707814 (  0.154329) 
  11   S   14      13.045096    2.618880 (  0.535328) 
  11   S   15       3.530512    0.816191 (  0.444635) 

  12   L   16       2.941249   -0.160017 ( -0.099967)     0.856045 (  0.155916) 
  12   L   17       0.683483    0.214036 (  0.399513)     0.538304 (  0.607684) 
  12   L   18       0.222290    0.161536 (  0.700115)     0.085276 (  0.391957) 

 H         

  14   S   19       3.425251    0.276934 (  0.154329) 
  14   S   20       0.623914    0.267839 (  0.535328) 
  14   S   21       0.168855    0.083474 (  0.444635) 

 H         

  16   S   22       3.425251    0.276934 (  0.154329) 
  16   S   23       0.623914    0.267839 (  0.535328) 
  16   S   24       0.168855    0.083474 (  0.444635) 

 C         

  19   S   25      71.616837    2.707814 (  0.154329) 
  19   S   26      13.045096    2.618880 (  0.535328) 
  19   S   27       3.530512    0.816191 (  0.444635) 

  20   L   28       2.941249   -0.160017 ( -0.099967)     0.856045 (  0.155916) 
  20   L   29       0.683483    0.214036 (  0.399513)     0.538304 (  0.607684) 
  20   L   30       0.222290    0.161536 (  0.700115)     0.085276 (  0.391957) 

 H         

  22   S   31       3.425251    0.276934 (  0.154329) 
  22   S   32       0.623914    0.267839 (  0.535328) 
  22   S   33       0.168855    0.083474 (  0.444635) 

 C         

  25   S   34      71.616837    2.707814 (  0.154329) 
  25   S   35      13.045096    2.618880 (  0.535328) 
  25   S   36       3.530512    0.816191 (  0.444635) 

  26   L   37       2.941249   -0.160017 ( -0.099967)     0.856045 (  0.155916) 
  26   L   38       0.683483    0.214036 (  0.399513)     0.538304 (  0.607684) 
  26   L   39       0.222290    0.161536 (  0.700115)     0.085276 (  0.391957) 

 H         

  28   S   40       3.425251    0.276934 (  0.154329) 
  28   S   41       0.623914    0.267839 (  0.535328) 
  28   S   42       0.168855    0.083474 (  0.444635) 

 H         

  30   S   43       3.425251    0.276934 (  0.154329) 
  30   S   44       0.623914    0.267839 (  0.535328) 
  30   S   45       0.168855    0.083474 (  0.444635) 

 TOTAL NUMBER OF SHELLS              =   30
 TOTAL NUMBER OF BASIS FUNCTIONS     =   60
 NUMBER OF ELECTRONS                 =   70
 CHARGE OF MOLECULE                  =    0
 STATE MULTIPLICITY                  =    1
 NUMBER OF OCCUPIED ORBITALS (ALPHA) =   35
 NUMBER OF OCCUPIED ORBITALS (BETA ) =   35
 TOTAL NUMBER OF ATOMS               =   20
 THE NUCLEAR REPULSION ENERGY IS      452.1260015068

     $CONTRL OPTIONS
     ---------------
     SCFTYP=RHF          RUNTYP=HESSIAN      EXETYP=RUN     
     MPLEVL=       0     LOCAL =NONE         UNITS =ANGS    
     MULT  =       1     ICHARG=       0     MAXIT =      30
     NPRINT=       3     IREST =       0     COORD =CART    
     ECP   =NONE         NORMF =       0     NORMP =       0
     ITOL  =      20     ICUT  =       9     NZVAR =       0
     NOSYM =       0     INTTYP=POPLE        GEOM  =INPUT   
     PLTORB=       F     MOLPLT=       F     RPAC  =       F
     AIMPAC=       F     FRIEND=             CITYP =NONE    

     $SYSTEM OPTIONS
     ---------------
     KDIAG =       0     MEMORY=  2000000     TIMLIM=    36000.0 SEC.
     COREFL=       F     PTIME =        F     XDR   =       F
     BALTYP=NXTVAL  

          ----------------
          PROPERTIES INPUT
          ----------------

     MOMENTS            FIELD           POTENTIAL          DENSITY
 IEMOM =       1   IEFLD =       0   IEPOT =       0   IEDEN =       0
 WHERE =COMASS     WHERE =NUCLEI     WHERE =NUCLEI     WHERE =NUCLEI  
 OUTPUT=BOTH       OUTPUT=BOTH       OUTPUT=BOTH       OUTPUT=BOTH    
 IEMINT=       0   IEFINT=       0                     IEDINT=       0
                                                       MORB  =       0

          EXTRAPOLATION IN EFFECT
          SOSCF IN EFFECT

          ----------------------
          INTEGRAL INPUT OPTIONS
          ----------------------
 NOPK  =       1 NORDER=       0 SCHWRZ=       T

 ATTENTION! AO INTEGRALS WILL BE PACKED.
 THRESHOLD FOR PACKING PKTHR =  0.10000000D-01

     -------------------------------
     INTEGRAL TRANSFORMATION OPTIONS
     -------------------------------
     NWORD  =       0     CUTOFF = 1.0E-09
     MPTRAN =       0     DIRTRF =       F
     AOINTS =DUP          IREST  =       0

     ------------------------------------------
     THE POINT GROUP IS CNH, NAXIS= 2, ORDER= 4
     ------------------------------------------

     DIMENSIONS OF THE SYMMETRY SUBSPACES ARE
 AG  =  25      AU  =   5      BU  =  25      BG  =   5

 ..... DONE SETTING UP THE RUN .....

 CPU        TIME:   STEP =      0.04 ,  TOTAL =        0.1 SECONDS (    0.0 MIN)
 WALL CLOCK TIME:   STEP =      0.41 ,  TOTAL =        0.4 SECONDS (    0.0 MIN)
 CPU UTILIZATION:   STEP =      9.77%,  TOTAL =      26.87%

     ---------------------------------
     HESSIAN MATRIX CONTROL PARAMETERS
     ---------------------------------
     METHOD=ANALYTIC   NVIB  =       1   VIBSIZ= 0.01000
     RDHESS=       F   PURIFY=       F   PRTIFC=       F
     VIBANL=       T   DECOMP=       F   PROJCT=       F
     SCLFAC= 1.00000   PRTSCN=       F   NPRT  =       0
     PULCOR=       F   NPUN  =       0   REDOVB=       T
     THERMOCHEMISTRY WILL BE PRINTED FOR    1 TEMPERATURES:
      298.15000

     ------------------------------
     CPHF RESPONSE SOLUTION OPTIONS
     ------------------------------
     POLAR  =       F     NWORD  =       0
     MXCPIT =      50     CPTOL  =0.10E-04

          ********************
          1 ELECTRON INTEGRALS
          ********************
OVERLAP MATRIX

                      1          2          3          4          5

    1  C   1  S   1.000000
    2  C   1  S   0.248362   1.000000
    3  C   1  X   0.000000   0.000000   1.000000
    4  C   1  Y   0.000000   0.000000   0.000000   1.000000
    5  C   1  Z   0.000000   0.000000   0.000000   0.000000   1.000000
    6  C   2  S   0.000000   0.000367  -0.000973   0.000158   0.000000
    7  C   2  S   0.000367   0.024378  -0.038933   0.006332   0.000000
    8  C   2  X   0.000973   0.038933  -0.057584   0.010886   0.000000
    9  C   2  Y  -0.000158  -0.006332   0.010886   0.007581   0.000000
   10  C   2  Z   0.000000   0.000000   0.000000   0.000000   0.009352
   11  C   3  S   0.000001   0.037871  -0.040747  -0.047768   0.000000
   12  C   3  S   0.037871   0.366643  -0.252672  -0.296207   0.000000
   13  C   3  X   0.040747   0.252672  -0.013975  -0.267925   0.000000
   14  C   3  Y   0.047768   0.296207  -0.267925  -0.099517   0.000000
   15  C   3  Z   0.000000   0.000000   0.000000   0.000000   0.214571
   16  C   4  S   0.000000   0.001852  -0.003318   0.002673   0.000000
   17  C   4  S   0.001852   0.061451  -0.070366   0.056705   0.000000
   18  C   4  X   0.003318   0.070366  -0.063232   0.071701   0.000000
   19  C   4  Y  -0.002673  -0.056705   0.071701  -0.032037   0.000000
   20  C   4  Z   0.000000   0.000000   0.000000   0.000000   0.025743
   21  C   5  S   0.000000   0.001804  -0.003902  -0.001449   0.000000
   22  C   5  S   0.001804   0.060520  -0.083582  -0.031044   0.000000
   23  C   5  X   0.003902   0.083582  -0.102089  -0.047318   0.000000
   24  C   5  Y   0.001449   0.031044  -0.047318   0.007735   0.000000
   25  C   5  Z   0.000000   0.000000   0.000000   0.000000   0.025310
   26  C   6  S   0.000001   0.037936  -0.023250   0.058438   0.000000
   27  C   6  S   0.037936   0.367002  -0.144023   0.361995   0.000000
   28  C   6  X   0.023250   0.144023   0.140652   0.186491   0.000000
   29  C   6  Y  -0.058438  -0.361995   0.186491  -0.253890   0.000000
   30  C   6  Z   0.000000   0.000000   0.000000   0.000000   0.214849
   31  H   7  S   0.005586   0.099400  -0.031621  -0.123907   0.000000
   32  H   8  S   0.000101   0.006823  -0.007498   0.008410   0.000000
   33  H   9  S   0.000100   0.006794  -0.009725  -0.005602   0.000000
   34  H  10  S   0.005480   0.098036   0.008982   0.126031   0.000000
   35  C  11  S   0.000000   0.000000   0.000000   0.000000   0.000000
   36  C  11  S   0.000000   0.000305  -0.000660   0.000116   0.000000
   37  C  11  X   0.000000   0.000660  -0.001348   0.000254   0.000000
   38  C  11  Y   0.000000  -0.000116   0.000254   0.000054   0.000000
   39  C  11  Z   0.000000   0.000000   0.000000   0.000000   0.000098
   40  C  12  S   0.000000   0.029672   0.048520  -0.009720   0.000000
   41  C  12  S   0.029672   0.318374   0.345735  -0.069259   0.000000
   42  C  12  X  -0.048520  -0.345735  -0.300864   0.096021   0.000000
   43  C  12  Y   0.009720   0.069259   0.096021   0.159225   0.000000
   44  C  12  Z   0.000000   0.000000   0.000000   0.000000   0.178460
   45  H  13  S   0.000000   0.000101  -0.000199   0.000080   0.000000
   46  H  14  S   0.005125   0.093428   0.095021  -0.075172   0.000000
   47  C  15  S   0.000000   0.000000   0.000000   0.000000   0.000000
   48  C  15  S   0.000000   0.000009  -0.000024  -0.000001   0.000000
   49  C  15  X   0.000000   0.000024  -0.000061  -0.000002   0.000000
   50  C  15  Y   0.000000   0.000001  -0.000002   0.000003   0.000000
   51  C  15  Z   0.000000   0.000000   0.000000   0.000000   0.000003
   52  C  16  S   0.000000   0.001278   0.002977   0.000709   0.000000
   53  C  16  S   0.001278   0.049609   0.072725   0.017315   0.000000
   54  C  16  X  -0.002977  -0.072725  -0.096586  -0.027831   0.000000
   55  C  16  Y  -0.000709  -0.017315  -0.027831   0.013682   0.000000
   56  C  16  Z   0.000000   0.000000   0.000000   0.000000   0.020309
   57  H  17  S   0.000000   0.000029  -0.000063  -0.000015   0.000000
   58  H  18  S   0.000801   0.025998   0.031342   0.022671   0.000000
   59  H  19  S   0.000000   0.000000  -0.000001   0.000000   0.000000
   60  H  20  S   0.000067   0.005303   0.008884   0.000686   0.000000

                      6          7          8          9         10

    6  C   2  S   1.000000
    7  C   2  S   0.248362   1.000000
    8  C   2  X   0.000000   0.000000   1.000000
    9  C   2  Y   0.000000   0.000000   0.000000   1.000000
   10  C   2  Z   0.000000   0.000000   0.000000   0.000000   1.000000
   11  C   3  S   0.000000   0.001852   0.003318  -0.002673   0.000000
   12  C   3  S   0.001852   0.061451   0.070366  -0.056705   0.000000
   13  C   3  X  -0.003318  -0.070366  -0.063232   0.071701   0.000000
   14  C   3  Y   0.002673   0.056705   0.071701  -0.032037   0.000000
   15  C   3  Z   0.000000   0.000000   0.000000   0.000000   0.025743
   16  C   4  S   0.000001   0.037871   0.040747   0.047768   0.000000
   17  C   4  S   0.037871   0.366643   0.252672   0.296207   0.000000
   18  C   4  X  -0.040747  -0.252672  -0.013975  -0.267925   0.000000
   19  C   4  Y  -0.047768  -0.296207  -0.267925  -0.099517   0.000000
   20  C   4  Z   0.000000   0.000000   0.000000   0.000000   0.214571
   21  C   5  S   0.000001   0.037936   0.023250  -0.058438   0.000000
   22  C   5  S   0.037936   0.367002   0.144023  -0.361995   0.000000
   23  C   5  X  -0.023250  -0.144023   0.140652   0.186491   0.000000
   24  C   5  Y   0.058438   0.361995   0.186491  -0.253890   0.000000
   25  C   5  Z   0.000000   0.000000   0.000000   0.000000   0.214849
   26  C   6  S   0.000000   0.001804   0.003902   0.001449   0.000000
   27  C   6  S   0.001804   0.060520   0.083582   0.031044   0.000000
   28  C   6  X  -0.003902  -0.083582  -0.102089  -0.047318   0.000000
   29  C   6  Y  -0.001449  -0.031044  -0.047318   0.007735   0.000000
   30  C   6  Z   0.000000   0.000000   0.000000   0.000000   0.025310
   31  H   7  S   0.000101   0.006823   0.007498  -0.008410   0.000000
   32  H   8  S   0.005586   0.099400   0.031621   0.123907   0.000000
   33  H   9  S   0.005480   0.098036  -0.008982  -0.126031   0.000000
   34  H  10  S   0.000100   0.006794   0.009725   0.005602   0.000000
   35  C  11  S   0.000000   0.029672  -0.048520   0.009720   0.000000
   36  C  11  S   0.029672   0.318374  -0.345735   0.069259   0.000000
   37  C  11  X   0.048520   0.345735  -0.300864   0.096021   0.000000
   38  C  11  Y  -0.009720  -0.069259   0.096021   0.159225   0.000000
   39  C  11  Z   0.000000   0.000000   0.000000   0.000000   0.178460
   40  C  12  S   0.000000   0.000000   0.000000   0.000000   0.000000
   41  C  12  S   0.000000   0.000305   0.000660  -0.000116   0.000000
   42  C  12  X   0.000000  -0.000660  -0.001348   0.000254   0.000000
   43  C  12  Y   0.000000   0.000116   0.000254   0.000054   0.000000
   44  C  12  Z   0.000000   0.000000   0.000000   0.000000   0.000098
   45  H  13  S   0.005125   0.093428  -0.095021   0.075172   0.000000
   46  H  14  S   0.000000   0.000101   0.000199  -0.000080   0.000000
   47  C  15  S   0.000000   0.001278  -0.002977  -0.000709   0.000000
   48  C  15  S   0.001278   0.049609  -0.072725  -0.017315   0.000000
   49  C  15  X   0.002977   0.072725  -0.096586  -0.027831   0.000000
   50  C  15  Y   0.000709   0.017315  -0.027831   0.013682   0.000000
   51  C  15  Z   0.000000   0.000000   0.000000   0.000000   0.020309
   52  C  16  S   0.000000   0.000000   0.000000   0.000000   0.000000
   53  C  16  S   0.000000   0.000009   0.000024   0.000001   0.000000
   54  C  16  X   0.000000  -0.000024  -0.000061  -0.000002   0.000000
   55  C  16  Y   0.000000  -0.000001  -0.000002   0.000003   0.000000
   56  C  16  Z   0.000000   0.000000   0.000000   0.000000   0.000003
   57  H  17  S   0.000801   0.025998  -0.031342  -0.022671   0.000000
   58  H  18  S   0.000000   0.000029   0.000063   0.000015   0.000000
   59  H  19  S   0.000067   0.005303  -0.008884  -0.000686   0.000000
   60  H  20  S   0.000000   0.000000   0.000001   0.000000   0.000000

                     11         12         13         14         15

   11  C   3  S   1.000000
   12  C   3  S   0.248362   1.000000
   13  C   3  X   0.000000   0.000000   1.000000
   14  C   3  Y   0.000000   0.000000   0.000000   1.000000
   15  C   3  Z   0.000000   0.000000   0.000000   0.000000   1.000000
   16  C   4  S   0.000000   0.000488  -0.000453   0.001197   0.000000
   17  C   4  S   0.000488   0.028639  -0.016142   0.042700   0.000000
   18  C   4  X   0.000453   0.016142   0.001304   0.026004   0.000000
   19  C   4  Y  -0.001197  -0.042700   0.026004  -0.057654   0.000000
   20  C   4  Z   0.000000   0.000000   0.000000   0.000000   0.011135
   21  C   5  S   0.000001   0.039168  -0.064109   0.010279   0.000000
   22  C   5  S   0.039168   0.373748  -0.389436   0.062443   0.000000
   23  C   5  X   0.064109   0.389436  -0.314669   0.085747   0.000000
   24  C   5  Y  -0.010279  -0.062443   0.085747   0.206351   0.000000
   25  C   5  Z   0.000000   0.000000   0.000000   0.000000   0.220100
   26  C   6  S   0.000000   0.002023   0.000752   0.004547   0.000000
   27  C   6  S   0.002023   0.064684   0.015431   0.093279   0.000000
   28  C   6  X  -0.000752  -0.015431   0.023183  -0.024619   0.000000
   29  C   6  Y  -0.004547  -0.093279  -0.024619  -0.121562   0.000000
   30  C   6  Z   0.000000   0.000000   0.000000   0.000000   0.027256
   31  H   7  S   0.063354   0.494994   0.163080  -0.440574   0.000000
   32  H   8  S   0.000015   0.002127  -0.001334   0.003551   0.000000
   33  H   9  S   0.005802   0.102160  -0.125077  -0.038809   0.000000
   34  H  10  S   0.000105   0.007025   0.003629   0.010994   0.000000
   35  C  11  S   0.000000   0.000003  -0.000009   0.000005   0.000000
   36  C  11  S   0.000003   0.001641  -0.002860   0.001546   0.000000
   37  C  11  X   0.000009   0.002860  -0.004580   0.002771   0.000000
   38  C  11  Y  -0.000005  -0.001546   0.002771  -0.000950   0.000000
   39  C  11  Z   0.000000   0.000000   0.000000   0.000000   0.000547
   40  C  12  S   0.000000   0.001378   0.003114   0.001008   0.000000
   41  C  12  S   0.001378   0.051804   0.073916   0.023928   0.000000
   42  C  12  X  -0.003114  -0.073916  -0.094488  -0.037484   0.000000
   43  C  12  Y  -0.001008  -0.023928  -0.037484   0.009169   0.000000
   44  C  12  Z   0.000000   0.000000   0.000000   0.000000   0.021303
   45  H  13  S   0.000000   0.000229  -0.000364   0.000291   0.000000
   46  H  14  S   0.001441   0.038557   0.054939  -0.006077   0.000000
   47  C  15  S   0.000000   0.000000   0.000000   0.000000   0.000000
   48  C  15  S   0.000000   0.000210  -0.000460   0.000099   0.000000
   49  C  15  X   0.000000   0.000460  -0.000952   0.000220   0.000000
   50  C  15  Y   0.000000  -0.000099   0.000220   0.000020   0.000000
   51  C  15  Z   0.000000   0.000000   0.000000   0.000000   0.000067
   52  C  16  S   0.000000   0.000004   0.000013   0.000006   0.000000
   53  C  16  S   0.000004   0.002044   0.003583   0.001758   0.000000
   54  C  16  X  -0.000013  -0.003583  -0.005792  -0.003178   0.000000
   55  C  16  Y  -0.000006  -0.001758  -0.003178  -0.000873   0.000000
   56  C  16  Z   0.000000   0.000000   0.000000   0.000000   0.000686
   57  H  17  S   0.000003   0.000848  -0.001599  -0.000052   0.000000
   58  H  18  S   0.000003   0.000797   0.001149   0.000978   0.000000
   59  H  19  S   0.000000   0.000010  -0.000022   0.000005   0.000000
   60  H  20  S   0.000000   0.000235   0.000458   0.000139   0.000000

                     16         17         18         19         20

   16  C   4  S   1.000000
   17  C   4  S   0.248362   1.000000
   18  C   4  X   0.000000   0.000000   1.000000
   19  C   4  Y   0.000000   0.000000   0.000000   1.000000
   20  C   4  Z   0.000000   0.000000   0.000000   0.000000   1.000000
   21  C   5  S   0.000000   0.002023  -0.000752  -0.004547   0.000000
   22  C   5  S   0.002023   0.064684  -0.015431  -0.093279   0.000000
   23  C   5  X   0.000752   0.015431   0.023183  -0.024619   0.000000
   24  C   5  Y   0.004547   0.093279  -0.024619  -0.121562   0.000000
   25  C   5  Z   0.000000   0.000000   0.000000   0.000000   0.027256
   26  C   6  S   0.000001   0.039168   0.064109  -0.010279   0.000000
   27  C   6  S   0.039168   0.373748   0.389436  -0.062443   0.000000
   28  C   6  X  -0.064109  -0.389436  -0.314669   0.085747   0.000000
   29  C   6  Y   0.010279   0.062443   0.085747   0.206351   0.000000
   30  C   6  Z   0.000000   0.000000   0.000000   0.000000   0.220100
   31  H   7  S   0.000015   0.002127   0.001334  -0.003551   0.000000
   32  H   8  S   0.063354   0.494994  -0.163080   0.440574   0.000000
   33  H   9  S   0.000105   0.007025  -0.003629  -0.010994   0.000000
   34  H  10  S   0.005802   0.102160   0.125077   0.038809   0.000000
   35  C  11  S   0.000000   0.001378  -0.003114  -0.001008   0.000000
   36  C  11  S   0.001378   0.051804  -0.073916  -0.023928   0.000000
   37  C  11  X   0.003114   0.073916  -0.094488  -0.037484   0.000000
   38  C  11  Y   0.001008   0.023928  -0.037484   0.009169   0.000000
   39  C  11  Z   0.000000   0.000000   0.000000   0.000000   0.021303
   40  C  12  S   0.000000   0.000003   0.000009  -0.000005   0.000000
   41  C  12  S   0.000003   0.001641   0.002860  -0.001546   0.000000
   42  C  12  X  -0.000009  -0.002860  -0.004580   0.002771   0.000000
   43  C  12  Y   0.000005   0.001546   0.002771  -0.000950   0.000000
   44  C  12  Z   0.000000   0.000000   0.000000   0.000000   0.000547
   45  H  13  S   0.001441   0.038557  -0.054939   0.006077   0.000000
   46  H  14  S   0.000000   0.000229   0.000364  -0.000291   0.000000
   47  C  15  S   0.000000   0.000004  -0.000013  -0.000006   0.000000
   48  C  15  S   0.000004   0.002044  -0.003583  -0.001758   0.000000
   49  C  15  X   0.000013   0.003583  -0.005792  -0.003178   0.000000
   50  C  15  Y   0.000006   0.001758  -0.003178  -0.000873   0.000000
   51  C  15  Z   0.000000   0.000000   0.000000   0.000000   0.000686
   52  C  16  S   0.000000   0.000000   0.000000   0.000000   0.000000
   53  C  16  S   0.000000   0.000210   0.000460  -0.000099   0.000000
   54  C  16  X   0.000000  -0.000460  -0.000952   0.000220   0.000000
   55  C  16  Y   0.000000   0.000099   0.000220   0.000020   0.000000
   56  C  16  Z   0.000000   0.000000   0.000000   0.000000   0.000067
   57  H  17  S   0.000003   0.000797  -0.001149  -0.000978   0.000000
   58  H  18  S   0.000003   0.000848   0.001599   0.000052   0.000000
   59  H  19  S   0.000000   0.000235  -0.000458  -0.000139   0.000000
   60  H  20  S   0.000000   0.000010   0.000022  -0.000005   0.000000

                     21         22         23         24         25

   21  C   5  S   1.000000
   22  C   5  S   0.248362   1.000000
   23  C   5  X   0.000000   0.000000   1.000000
   24  C   5  Y   0.000000   0.000000   0.000000   1.000000
   25  C   5  Z   0.000000   0.000000   0.000000   0.000000   1.000000
   26  C   6  S   0.000000   0.000465   0.000775   0.000946   0.000000
   27  C   6  S   0.000465   0.027847   0.028220   0.034412   0.000000
   28  C   6  X  -0.000775  -0.028220  -0.020079  -0.037656   0.000000
   29  C   6  Y  -0.000946  -0.034412  -0.037656  -0.035119   0.000000
   30  C   6  Z   0.000000   0.000000   0.000000   0.000000   0.010801
   31  H   7  S   0.005736   0.101313   0.106056  -0.075207   0.000000
   32  H   8  S   0.000107   0.007105   0.000050   0.011700   0.000000
   33  H   9  S   0.063555   0.495775  -0.290839  -0.369520   0.000000
   34  H  10  S   0.000015   0.002067   0.002326   0.002870   0.000000
   35  C  11  S   0.000000   0.001150  -0.002170   0.001740   0.000000
   36  C  11  S   0.001150   0.046669  -0.055230   0.044297   0.000000
   37  C  11  X   0.002170   0.055230  -0.052544   0.057371   0.000000
   38  C  11  Y  -0.001740  -0.044297   0.057371  -0.027029   0.000000
   39  C  11  Z   0.000000   0.000000   0.000000   0.000000   0.018986
   40  C  12  S   0.000000   0.000003   0.000011   0.000002   0.000000
   41  C  12  S   0.000003   0.001785   0.003479   0.000511   0.000000
   42  C  12  X  -0.000011  -0.003479  -0.006386  -0.001026   0.000000
   43  C  12  Y  -0.000002  -0.000511  -0.001026   0.000446   0.000000
   44  C  12  Z   0.000000   0.000000   0.000000   0.000000   0.000597
   45  H  13  S   0.000077   0.005765  -0.006195   0.007375   0.000000
   46  H  14  S   0.000007   0.001316   0.002398  -0.000306   0.000000
   47  C  15  S   0.000000   0.000136  -0.000383   0.000092   0.000000
   48  C  15  S   0.000136   0.013988  -0.023085   0.005567   0.000000
   49  C  15  X   0.000383   0.023085  -0.035391   0.009777   0.000000
   50  C  15  Y  -0.000092  -0.005567   0.009777   0.002793   0.000000
   51  C  15  Z   0.000000   0.000000   0.000000   0.000000   0.005151
   52  C  16  S   0.000000   0.000000   0.000000   0.000000   0.000000
   53  C  16  S   0.000000   0.000032   0.000076   0.000023   0.000000
   54  C  16  X   0.000000  -0.000076  -0.000171  -0.000055   0.000000
   55  C  16  Y   0.000000  -0.000023  -0.000055  -0.000006   0.000000
   56  C  16  Z   0.000000   0.000000   0.000000   0.000000   0.000010
   57  H  17  S   0.000791   0.025782  -0.038085  -0.004815   0.000000
   58  H  18  S   0.000000   0.000030   0.000060   0.000033   0.000000
   59  H  19  S   0.000004   0.000945  -0.001716   0.000441   0.000000
   60  H  20  S   0.000000   0.000002   0.000006   0.000001   0.000000

                     26         27         28         29         30

   26  C   6  S   1.000000
   27  C   6  S   0.248362   1.000000
   28  C   6  X   0.000000   0.000000   1.000000
   29  C   6  Y   0.000000   0.000000   0.000000   1.000000
   30  C   6  Z   0.000000   0.000000   0.000000   0.000000   1.000000
   31  H   7  S   0.000107   0.007105  -0.000050  -0.011700   0.000000
   32  H   8  S   0.005736   0.101313  -0.106056   0.075207   0.000000
   33  H   9  S   0.000015   0.002067  -0.002326  -0.002870   0.000000
   34  H  10  S   0.063555   0.495775   0.290839   0.369520   0.000000
   35  C  11  S   0.000000   0.000003  -0.000011  -0.000002   0.000000
   36  C  11  S   0.000003   0.001785  -0.003479  -0.000511   0.000000
   37  C  11  X   0.000011   0.003479  -0.006386  -0.001026   0.000000
   38  C  11  Y   0.000002   0.000511  -0.001026   0.000446   0.000000
   39  C  11  Z   0.000000   0.000000   0.000000   0.000000   0.000597
   40  C  12  S   0.000000   0.001150   0.002170  -0.001740   0.000000
   41  C  12  S   0.001150   0.046669   0.055230  -0.044297   0.000000
   42  C  12  X  -0.002170  -0.055230  -0.052544   0.057371   0.000000
   43  C  12  Y   0.001740   0.044297   0.057371  -0.027029   0.000000
   44  C  12  Z   0.000000   0.000000   0.000000   0.000000   0.018986
   45  H  13  S   0.000007   0.001316  -0.002398   0.000306   0.000000
   46  H  14  S   0.000077   0.005765   0.006195  -0.007375   0.000000
   47  C  15  S   0.000000   0.000000   0.000000   0.000000   0.000000
   48  C  15  S   0.000000   0.000032  -0.000076  -0.000023   0.000000
   49  C  15  X   0.000000   0.000076  -0.000171  -0.000055   0.000000
   50  C  15  Y   0.000000   0.000023  -0.000055  -0.000006   0.000000
   51  C  15  Z   0.000000   0.000000   0.000000   0.000000   0.000010
   52  C  16  S   0.000000   0.000136   0.000383  -0.000092   0.000000
   53  C  16  S   0.000136   0.013988   0.023085  -0.005567   0.000000
   54  C  16  X  -0.000383  -0.023085  -0.035391   0.009777   0.000000
   55  C  16  Y   0.000092   0.005567   0.009777   0.002793   0.000000
   56  C  16  Z   0.000000   0.000000   0.000000   0.000000   0.005151
   57  H  17  S   0.000000   0.000030  -0.000060  -0.000033   0.000000
   58  H  18  S   0.000791   0.025782   0.038085   0.004815   0.000000
   59  H  19  S   0.000000   0.000002  -0.000006  -0.000001   0.000000
   60  H  20  S   0.000004   0.000945   0.001716  -0.000441   0.000000

                     31         32         33         34         35

   31  H   7  S   1.000000
   32  H   8  S   0.000137   1.000000
   33  H   9  S   0.055414   0.000853   1.000000
   34  H  10  S   0.000853   0.055414   0.000134   1.000000
   35  C  11  S   0.000000   0.001244   0.000924   0.000000   1.000000
   36  C  11  S   0.000177   0.034900   0.028591   0.000208   0.248362
   37  C  11  X   0.000291   0.037684   0.019997   0.000405   0.000000
   38  C  11  Y  -0.000220   0.033653  -0.037132   0.000129   0.000000
   39  C  11  Z   0.000000   0.000000   0.000000   0.000000   0.000000
   40  C  12  S   0.001244   0.000000   0.000000   0.000924   0.000000
   41  C  12  S   0.034900   0.000177   0.000208   0.028591   0.000000
   42  C  12  X  -0.037684  -0.000291  -0.000405  -0.019997   0.000000
   43  C  12  Y  -0.033653   0.000220  -0.000129   0.037132   0.000000
   44  C  12  Z   0.000000   0.000000   0.000000   0.000000   0.000000
   45  H  13  S   0.000019   0.064899   0.002732   0.000296   0.063085
   46  H  14  S   0.064899   0.000019   0.000296   0.002732   0.000000
   47  C  15  S   0.000000   0.000008   0.000912   0.000000   0.000004
   48  C  15  S   0.000043   0.001390   0.028349   0.000003   0.046036
   49  C  15  X   0.000089   0.001899   0.034574   0.000006   0.056937
   50  C  15  Y  -0.000037   0.001697  -0.023582   0.000002   0.050973
   51  C  15  Z   0.000000   0.000000   0.000000   0.000000   0.000000
   52  C  16  S   0.000008   0.000000   0.000000   0.000912   0.000000
   53  C  16  S   0.001390   0.000043   0.000003   0.028349   0.000000
   54  C  16  X  -0.001899  -0.000089  -0.000006  -0.034574   0.000000
   55  C  16  Y  -0.001697   0.000037  -0.000002   0.023582   0.000000
   56  C  16  Z   0.000000   0.000000   0.000000   0.000000   0.000000
   57  H  17  S   0.000330   0.000288   0.087289   0.000002   0.006121
   58  H  18  S   0.000288   0.000330   0.000002   0.087289   0.000000
   59  H  19  S   0.000002   0.000307   0.002780   0.000000   0.006384
   60  H  20  S   0.000307   0.000002   0.000000   0.002780   0.000000

                     36         37         38         39         40

   36  C  11  S   1.000000
   37  C  11  X   0.000000   1.000000
   38  C  11  Y   0.000000   0.000000   1.000000
   39  C  11  Z   0.000000   0.000000   0.000000   1.000000
   40  C  12  S   0.000000   0.000000   0.000000   0.000000   1.000000
   41  C  12  S   0.000001   0.000002   0.000000   0.000000   0.248362
   42  C  12  X  -0.000002  -0.000006   0.000001   0.000000   0.000000
   43  C  12  Y   0.000000   0.000001   0.000000   0.000000   0.000000
   44  C  12  Z   0.000000   0.000000   0.000000   0.000000   0.000000
   45  H  13  S   0.493943  -0.104264   0.457435   0.000000   0.000000
   46  H  14  S   0.000000   0.000001   0.000000   0.000000   0.063085
   47  C  15  S   0.046036  -0.056937  -0.050973   0.000000   0.000000
   48  C  15  S   0.409315  -0.311794  -0.279136   0.000000   0.000000
   49  C  15  X   0.311794  -0.070829  -0.285995   0.000000   0.000000
   50  C  15  Y   0.279136  -0.285995  -0.007413   0.000000   0.000000
   51  C  15  Z   0.000000   0.000000   0.000000   0.248626   0.000000
   52  C  16  S   0.000000   0.000000   0.000000   0.000000   0.000004
   53  C  16  S   0.000000   0.000000   0.000000   0.000000   0.046036
   54  C  16  X   0.000000   0.000000   0.000000   0.000000  -0.056937
   55  C  16  Y   0.000000   0.000000   0.000000   0.000000  -0.050973
   56  C  16  Z   0.000000   0.000000   0.000000   0.000000   0.000000
   57  H  17  S   0.106184  -0.052311  -0.124916   0.000000   0.000000
   58  H  18  S   0.000000   0.000000   0.000000   0.000000   0.006121
   59  H  19  S   0.109459  -0.133908  -0.037427   0.000000   0.000000
   60  H  20  S   0.000000   0.000000   0.000000   0.000000   0.006384

                     41         42         43         44         45

   41  C  12  S   1.000000
   42  C  12  X   0.000000   1.000000
   43  C  12  Y   0.000000   0.000000   1.000000
   44  C  12  Z   0.000000   0.000000   0.000000   1.000000
   45  H  13  S   0.000000  -0.000001   0.000000   0.000000   1.000000
   46  H  14  S   0.493943   0.104264  -0.457435   0.000000   0.000000
   47  C  15  S   0.000000   0.000000   0.000000   0.000000   0.006724
   48  C  15  S   0.000000   0.000000   0.000000   0.000000   0.113655
   49  C  15  X   0.000000   0.000000   0.000000   0.000000   0.051203
   50  C  15  Y   0.000000   0.000000   0.000000   0.000000   0.134208
   51  C  15  Z   0.000000   0.000000   0.000000   0.000000   0.000000
   52  C  16  S   0.046036   0.056937   0.050973   0.000000   0.000000
   53  C  16  S   0.409315   0.311794   0.279136   0.000000   0.000000
   54  C  16  X  -0.311794  -0.070829  -0.285995   0.000000   0.000000
   55  C  16  Y  -0.279136  -0.285995  -0.007413   0.000000   0.000000
   56  C  16  Z   0.000000   0.000000   0.000000   0.248626   0.000000
   57  H  17  S   0.000000   0.000000   0.000000   0.000000   0.016232
   58  H  18  S   0.106184   0.052311   0.124916   0.000000   0.000000
   59  H  19  S   0.000000   0.000000   0.000000   0.000000   0.059457
   60  H  20  S   0.109459   0.133908   0.037427   0.000000   0.000000

                     46         47         48         49         50

   46  H  14  S   1.000000
   47  C  15  S   0.000000   1.000000
   48  C  15  S   0.000000   0.248362   1.000000
   49  C  15  X   0.000000   0.000000   0.000000   1.000000
   50  C  15  Y   0.000000   0.000000   0.000000   0.000000   1.000000
   51  C  15  Z   0.000000   0.000000   0.000000   0.000000   0.000000
   52  C  16  S   0.006724   0.000000   0.000000   0.000000   0.000000
   53  C  16  S   0.113655   0.000000   0.000000   0.000000   0.000000
   54  C  16  X  -0.051203   0.000000   0.000000   0.000000   0.000000
   55  C  16  Y  -0.134208   0.000000   0.000000   0.000000   0.000000
   56  C  16  Z   0.000000   0.000000   0.000000   0.000000   0.000000
   57  H  17  S   0.000000   0.063693   0.496313   0.071710  -0.465066
   58  H  18  S   0.016232   0.000000   0.000000   0.000000   0.000000
   59  H  19  S   0.000000   0.063578   0.495865  -0.450102   0.136345
   60  H  20  S   0.059457   0.000000   0.000000   0.000000   0.000000

                     51         52         53         54         55

   51  C  15  Z   1.000000
   52  C  16  S   0.000000   1.000000
   53  C  16  S   0.000000   0.248362   1.000000
   54  C  16  X   0.000000   0.000000   0.000000   1.000000
   55  C  16  Y   0.000000   0.000000   0.000000   0.000000   1.000000
   56  C  16  Z   0.000000   0.000000   0.000000   0.000000   0.000000
   57  H  17  S   0.000000   0.000000   0.000000   0.000000   0.000000
   58  H  18  S   0.000000   0.063693   0.496313  -0.071710   0.465066
   59  H  19  S   0.000000   0.000000   0.000000   0.000000   0.000000
   60  H  20  S   0.000000   0.063578   0.495865   0.450102  -0.136345

                     56         57         58         59         60

   56  C  16  Z   1.000000
   57  H  17  S   0.000000   1.000000
   58  H  18  S   0.000000   0.000000   1.000000
   59  H  19  S   0.000000   0.156774   0.000000   1.000000
   60  H  20  S   0.000000   0.000000   0.156774   0.000000   1.000000
BARE NUCLEUS HAMILTONIAN INTEGRALS (H=T+V)

                      1          2          3          4          5

    1  C   1  S -32.471619
    2  C   1  S  -7.931530 -19.389801
    3  C   1  X   0.051268   0.585553 -18.714737
    4  C   1  Y  -0.013262  -0.153130   0.013273 -18.535005
    5  C   1  Z   0.000000   0.000000   0.000000   0.000000 -17.762135
    6  C   2  S   0.000000  -0.011970   0.031612  -0.005140   0.000000
    7  C   2  S  -0.011970  -0.478094   0.759904  -0.123648   0.000000
    8  C   2  X  -0.031612  -0.759904   1.115652  -0.212065   0.000000
    9  C   2  Y   0.005140   0.123648  -0.212065  -0.151961   0.000000
   10  C   2  Z   0.000000   0.000000   0.000000   0.000000  -0.165175
   11  C   3  S  -0.000054  -1.188769   1.280543   1.496604   0.000000
   12  C   3  S  -1.217956  -7.061244   4.997535   5.507951   0.000000
   13  C   3  X  -1.308356  -4.729012   0.359628   4.777558   0.000000
   14  C   3  Y  -1.536522  -5.931559   5.281878   2.051855   0.000000
   15  C   3  Z   0.000000   0.000000   0.000000   0.000000  -3.734175
   16  C   4  S   0.000000  -0.058655   0.104806  -0.084347   0.000000
   17  C   4  S  -0.060041  -1.207035   1.373060  -1.111089   0.000000
   18  C   4  X  -0.107255  -1.383899   1.237609  -1.403453   0.000000
   19  C   4  Y   0.086470   1.113069  -1.393618   0.637377   0.000000
   20  C   4  Z   0.000000   0.000000   0.000000   0.000000  -0.450705
   21  C   5  S   0.000000  -0.057290   0.123573   0.045806   0.000000
   22  C   5  S  -0.058461  -1.187244   1.631843   0.607585   0.000000
   23  C   5  X  -0.126107  -1.639727   1.993886   0.925137   0.000000
   24  C   5  Y  -0.046881  -0.609092   0.921109  -0.139129   0.000000
   25  C   5  Z   0.000000   0.000000   0.000000   0.000000  -0.442564
   26  C   6  S  -0.000055  -1.194896   0.734404  -1.838549   0.000000
   27  C   6  S  -1.220594  -7.103508   2.956063  -6.881904   0.000000
   28  C   6  X  -0.746159  -2.606883  -2.551595  -3.276277   0.000000
   29  C   6  Y   1.879748   7.162006  -3.726943   4.974201   0.000000
   30  C   6  Z   0.000000   0.000000   0.000000   0.000000  -3.757851
   31  H   7  S  -0.179573  -1.763724   0.636248   2.093455   0.000000
   32  H   8  S  -0.003272  -0.132258   0.145501  -0.159933   0.000000
   33  H   9  S  -0.003248  -0.131477   0.187701   0.105231   0.000000
   34  H  10  S  -0.176271  -1.761235  -0.066664  -2.194874   0.000000
   35  C  11  S   0.000000  -0.000004   0.000015  -0.000003   0.000000
   36  C  11  S  -0.000004  -0.006320   0.013586  -0.002378   0.000000
   37  C  11  X  -0.000016  -0.013504   0.027467  -0.005163   0.000000
   38  C  11  Y   0.000003   0.002381  -0.005203  -0.001084   0.000000
   39  C  11  Z   0.000000   0.000000   0.000000   0.000000  -0.001772
   40  C  12  S  -0.000009  -0.886755  -1.449344   0.289324   0.000000
   41  C  12  S  -0.950286  -5.777846  -6.106705   1.183058   0.000000
   42  C  12  X   1.553478   6.397887   5.343992  -1.653355   0.000000
   43  C  12  Y  -0.311302  -1.341704  -1.761943  -2.664889   0.000000
   44  C  12  Z   0.000000   0.000000   0.000000   0.000000  -2.927979
   45  H  13  S  -0.000003  -0.002048   0.004016  -0.001597   0.000000
   46  H  14  S  -0.164273  -1.590989  -1.572637   1.187521   0.000000
   47  C  15  S   0.000000   0.000000   0.000000   0.000000   0.000000
   48  C  15  S   0.000000  -0.000198   0.000509   0.000010   0.000000
   49  C  15  X   0.000000  -0.000516   0.001274   0.000027   0.000000
   50  C  15  Y   0.000000  -0.000016   0.000042  -0.000059   0.000000
   51  C  15  Z   0.000000   0.000000   0.000000   0.000000  -0.000054
   52  C  16  S   0.000000  -0.036222  -0.083998  -0.019971   0.000000
   53  C  16  S  -0.041129  -0.865040  -1.250605  -0.273884   0.000000
   54  C  16  X   0.095586   1.278215   1.671725   0.446612   0.000000
   55  C  16  Y   0.022737   0.332637   0.523610  -0.218936   0.000000
   56  C  16  Z   0.000000   0.000000   0.000000   0.000000  -0.314924
   57  H  17  S   0.000000  -0.000580   0.001262   0.000288   0.000000
   58  H  18  S  -0.025761  -0.431097  -0.503727  -0.353070   0.000000
   59  H  19  S   0.000000  -0.000009   0.000024  -0.000001   0.000000
   60  H  20  S  -0.002170  -0.091525  -0.150503  -0.010754   0.000000

                      6          7          8          9         10

    6  C   2  S -32.471619
    7  C   2  S  -7.931530 -19.389801
    8  C   2  X  -0.051268  -0.585553 -18.714737
    9  C   2  Y   0.013262   0.153130   0.013273 -18.535005
   10  C   2  Z   0.000000   0.000000   0.000000   0.000000 -17.762135
   11  C   3  S   0.000000  -0.058655  -0.104806   0.084347   0.000000
   12  C   3  S  -0.060041  -1.207035  -1.373060   1.111089   0.000000
   13  C   3  X   0.107255   1.383899   1.237609  -1.403453   0.000000
   14  C   3  Y  -0.086470  -1.113069  -1.393618   0.637377   0.000000
   15  C   3  Z   0.000000   0.000000   0.000000   0.000000  -0.450705
   16  C   4  S  -0.000054  -1.188769  -1.280543  -1.496604   0.000000
   17  C   4  S  -1.217956  -7.061244  -4.997535  -5.507951   0.000000
   18  C   4  X   1.308356   4.729012   0.359628   4.777558   0.000000
   19  C   4  Y   1.536522   5.931559   5.281878   2.051855   0.000000
   20  C   4  Z   0.000000   0.000000   0.000000   0.000000  -3.734175
   21  C   5  S  -0.000055  -1.194896  -0.734404   1.838549   0.000000
   22  C   5  S  -1.220594  -7.103508  -2.956063   6.881904   0.000000
   23  C   5  X   0.746159   2.606883  -2.551595  -3.276277   0.000000
   24  C   5  Y  -1.879748  -7.162006  -3.726943   4.974201   0.000000
   25  C   5  Z   0.000000   0.000000   0.000000   0.000000  -3.757851
   26  C   6  S   0.000000  -0.057290  -0.123573  -0.045806   0.000000
   27  C   6  S  -0.058461  -1.187244  -1.631843  -0.607585   0.000000
   28  C   6  X   0.126107   1.639727   1.993886   0.925137   0.000000
   29  C   6  Y   0.046881   0.609092   0.921109  -0.139129   0.000000
   30  C   6  Z   0.000000   0.000000   0.000000   0.000000  -0.442564
   31  H   7  S  -0.003272  -0.132258  -0.145501   0.159933   0.000000
   32  H   8  S  -0.179573  -1.763724  -0.636248  -2.093455   0.000000
   33  H   9  S  -0.176271  -1.761235   0.066664   2.194874   0.000000
   34  H  10  S  -0.003248  -0.131477  -0.187701  -0.105231   0.000000
   35  C  11  S  -0.000009  -0.886755   1.449344  -0.289324   0.000000
   36  C  11  S  -0.950286  -5.777846   6.106705  -1.183058   0.000000
   37  C  11  X  -1.553478  -6.397887   5.343992  -1.653355   0.000000
   38  C  11  Y   0.311302   1.341704  -1.761943  -2.664889   0.000000
   39  C  11  Z   0.000000   0.000000   0.000000   0.000000  -2.927979
   40  C  12  S   0.000000  -0.000004  -0.000015   0.000003   0.000000
   41  C  12  S  -0.000004  -0.006320  -0.013586   0.002378   0.000000
   42  C  12  X   0.000016   0.013504   0.027467  -0.005163   0.000000
   43  C  12  Y  -0.000003  -0.002381  -0.005203  -0.001084   0.000000
   44  C  12  Z   0.000000   0.000000   0.000000   0.000000  -0.001772
   45  H  13  S  -0.164273  -1.590989   1.572637  -1.187521   0.000000
   46  H  14  S  -0.000003  -0.002048  -0.004016   0.001597   0.000000
   47  C  15  S   0.000000  -0.036222   0.083998   0.019971   0.000000
   48  C  15  S  -0.041129  -0.865040   1.250605   0.273884   0.000000
   49  C  15  X  -0.095586  -1.278215   1.671725   0.446612   0.000000
   50  C  15  Y  -0.022737  -0.332637   0.523610  -0.218936   0.000000
   51  C  15  Z   0.000000   0.000000   0.000000   0.000000  -0.314924
   52  C  16  S   0.000000   0.000000   0.000000   0.000000   0.000000
   53  C  16  S   0.000000  -0.000198  -0.000509  -0.000010   0.000000
   54  C  16  X   0.000000   0.000516   0.001274   0.000027   0.000000
   55  C  16  Y   0.000000   0.000016   0.000042  -0.000059   0.000000
   56  C  16  Z   0.000000   0.000000   0.000000   0.000000  -0.000054
   57  H  17  S  -0.025761  -0.431097   0.503727   0.353070   0.000000
   58  H  18  S   0.000000  -0.000580  -0.001262  -0.000288   0.000000
   59  H  19  S  -0.002170  -0.091525   0.150503   0.010754   0.000000
   60  H  20  S   0.000000  -0.000009  -0.000024   0.000001   0.000000

                     11         12         13         14         15

   11  C   3  S -31.617550
   12  C   3  S  -7.719411 -18.528461
   13  C   3  X   0.023713   0.274079 -17.871729
   14  C   3  Y  -0.107852  -1.257205  -0.082692 -17.583515
   15  C   3  Z   0.000000   0.000000   0.000000   0.000000 -16.977282
   16  C   4  S   0.000000  -0.015573   0.014382  -0.038028   0.000000
   17  C   4  S  -0.015573  -0.560215   0.313902  -0.831152   0.000000
   18  C   4  X  -0.014382  -0.313902  -0.032935  -0.504432   0.000000
   19  C   4  Y   0.038028   0.831152  -0.504432   1.115148   0.000000
   20  C   4  Z   0.000000   0.000000   0.000000   0.000000  -0.195945
   21  C   5  S  -0.000068  -1.231180   2.013369  -0.326493   0.000000
   22  C   5  S  -1.227525  -7.037749   7.296151  -1.526149   0.000000
   23  C   5  X  -2.008538  -7.389718   5.909994  -1.939368   0.000000
   24  C   5  Y   0.318317   0.830091  -1.204205  -3.624312   0.000000
   25  C   5  Z   0.000000   0.000000   0.000000   0.000000  -3.746466
   26  C   6  S   0.000000  -0.064341  -0.023807  -0.144167   0.000000
   27  C   6  S  -0.064143  -1.277768  -0.317273  -1.836881   0.000000
   28  C   6  X   0.023826   0.290479  -0.451303   0.463286   0.000000
   29  C   6  Y   0.143701   1.839585   0.503449   2.396191   0.000000
   30  C   6  Z   0.000000   0.000000   0.000000   0.000000  -0.479547
   31  H   7  S  -1.966520  -8.042751  -2.441100   6.342473   0.000000
   32  H   8  S  -0.000491  -0.041991   0.026282  -0.069778   0.000000
   33  H   9  S  -0.181490  -1.756428   2.132398   0.506691   0.000000
   34  H  10  S  -0.003353  -0.138717  -0.070969  -0.215727   0.000000
   35  C  11  S   0.000000  -0.000083   0.000262  -0.000142   0.000000
   36  C  11  S  -0.000087  -0.032932   0.056378  -0.031347   0.000000
   37  C  11  X  -0.000275  -0.057618   0.091287  -0.056137   0.000000
   38  C  11  Y   0.000149   0.030163  -0.052955   0.018957   0.000000
   39  C  11  Z   0.000000   0.000000   0.000000   0.000000  -0.009503
   40  C  12  S   0.000000  -0.041420  -0.093279  -0.030280   0.000000
   41  C  12  S  -0.043400  -0.929633  -1.292617  -0.487406   0.000000
   42  C  12  X   0.097846   1.349986   1.679333   0.763654   0.000000
   43  C  12  Y   0.031551   0.371159   0.572804  -0.151061   0.000000
   44  C  12  Z   0.000000   0.000000   0.000000   0.000000  -0.342310
   45  H  13  S  -0.000012  -0.004630   0.007279  -0.005865   0.000000
   46  H  14  S  -0.045071  -0.619627  -0.854792   0.043905   0.000000
   47  C  15  S   0.000000  -0.000002   0.000007  -0.000001   0.000000
   48  C  15  S  -0.000002  -0.003888   0.008258  -0.001985   0.000000
   49  C  15  X  -0.000008  -0.008625   0.017325  -0.004432   0.000000
   50  C  15  Y   0.000002   0.001654  -0.003537  -0.000351   0.000000
   51  C  15  Z   0.000000   0.000000   0.000000   0.000000  -0.001102
   52  C  16  S   0.000000  -0.000117  -0.000372  -0.000182   0.000000
   53  C  16  S  -0.000130  -0.038222  -0.065646  -0.033530   0.000000
   54  C  16  X   0.000411   0.067375   0.106647   0.061145   0.000000
   55  C  16  Y   0.000201   0.031969   0.056943   0.017378   0.000000
   56  C  16  Z   0.000000   0.000000   0.000000   0.000000  -0.011141
   57  H  17  S  -0.000108  -0.014759   0.027075  -0.000150   0.000000
   58  H  18  S  -0.000097  -0.015140  -0.021213  -0.018457   0.000000
   59  H  19  S   0.000000  -0.000177   0.000399  -0.000103   0.000000
   60  H  20  S  -0.000013  -0.004213  -0.008031  -0.002670   0.000000

                     16         17         18         19         20

   16  C   4  S -31.617550
   17  C   4  S  -7.719411 -18.528461
   18  C   4  X  -0.023713  -0.274079 -17.871729
   19  C   4  Y   0.107852   1.257205  -0.082692 -17.583515
   20  C   4  Z   0.000000   0.000000   0.000000   0.000000 -16.977282
   21  C   5  S   0.000000  -0.064341   0.023807   0.144167   0.000000
   22  C   5  S  -0.064143  -1.277768   0.317273   1.836881   0.000000
   23  C   5  X  -0.023826  -0.290479  -0.451303   0.463286   0.000000
   24  C   5  Y  -0.143701  -1.839585   0.503449   2.396191   0.000000
   25  C   5  Z   0.000000   0.000000   0.000000   0.000000  -0.479547
   26  C   6  S  -0.000068  -1.231180  -2.013369   0.326493   0.000000
   27  C   6  S  -1.227525  -7.037749  -7.296151   1.526149   0.000000
   28  C   6  X   2.008538   7.389718   5.909994  -1.939368   0.000000
   29  C   6  Y  -0.318317  -0.830091  -1.204205  -3.624312   0.000000
   30  C   6  Z   0.000000   0.000000   0.000000   0.000000  -3.746466
   31  H   7  S  -0.000491  -0.041991  -0.026282   0.069778   0.000000
   32  H   8  S  -1.966520  -8.042751   2.441100  -6.342473   0.000000
   33  H   9  S  -0.003353  -0.138717   0.070969   0.215727   0.000000
   34  H  10  S  -0.181490  -1.756428  -2.132398  -0.506691   0.000000
   35  C  11  S   0.000000  -0.041420   0.093279   0.030280   0.000000
   36  C  11  S  -0.043400  -0.929633   1.292617   0.487406   0.000000
   37  C  11  X  -0.097846  -1.349986   1.679333   0.763654   0.000000
   38  C  11  Y  -0.031551  -0.371159   0.572804  -0.151061   0.000000
   39  C  11  Z   0.000000   0.000000   0.000000   0.000000  -0.342310
   40  C  12  S   0.000000  -0.000083  -0.000262   0.000142   0.000000
   41  C  12  S  -0.000087  -0.032932  -0.056378   0.031347   0.000000
   42  C  12  X   0.000275   0.057618   0.091287  -0.056137   0.000000
   43  C  12  Y  -0.000149  -0.030163  -0.052955   0.018957   0.000000
   44  C  12  Z   0.000000   0.000000   0.000000   0.000000  -0.009503
   45  H  13  S  -0.045071  -0.619627   0.854792  -0.043905   0.000000
   46  H  14  S  -0.000012  -0.004630  -0.007279   0.005865   0.000000
   47  C  15  S   0.000000  -0.000117   0.000372   0.000182   0.000000
   48  C  15  S  -0.000130  -0.038222   0.065646   0.033530   0.000000
   49  C  15  X  -0.000411  -0.067375   0.106647   0.061145   0.000000
   50  C  15  Y  -0.000201  -0.031969   0.056943   0.017378   0.000000
   51  C  15  Z   0.000000   0.000000   0.000000   0.000000  -0.011141
   52  C  16  S   0.000000  -0.000002  -0.000007   0.000001   0.000000
   53  C  16  S  -0.000002  -0.003888  -0.008258   0.001985   0.000000
   54  C  16  X   0.000008   0.008625   0.017325  -0.004432   0.000000
   55  C  16  Y  -0.000002  -0.001654  -0.003537  -0.000351   0.000000
   56  C  16  Z   0.000000   0.000000   0.000000   0.000000  -0.001102
   57  H  17  S  -0.000097  -0.015140   0.021213   0.018457   0.000000
   58  H  18  S  -0.000108  -0.014759  -0.027075   0.000150   0.000000
   59  H  19  S  -0.000013  -0.004213   0.008031   0.002670   0.000000
   60  H  20  S   0.000000  -0.000177  -0.000399   0.000103   0.000000

                     21         22         23         24         25

   21  C   5  S -31.722417
   22  C   5  S  -7.745456 -18.633165
   23  C   5  X  -0.049699  -0.576793 -17.912883
   24  C   5  Y  -0.093540  -1.091123   0.138021 -17.756012
   25  C   5  Z   0.000000   0.000000   0.000000   0.000000 -17.077759
   26  C   6  S   0.000000  -0.014863  -0.024717  -0.030130   0.000000
   27  C   6  S  -0.014863  -0.544950  -0.549237  -0.670308   0.000000
   28  C   6  X   0.024717   0.549237   0.382437   0.731811   0.000000
   29  C   6  Y   0.030130   0.670308   0.731811   0.678310   0.000000
   30  C   6  Z   0.000000   0.000000   0.000000   0.000000  -0.190182
   31  H   7  S  -0.179961  -1.737988  -1.845278   1.132323   0.000000
   32  H   8  S  -0.003424  -0.140005  -0.001253  -0.228665   0.000000
   33  H   9  S  -1.980013  -8.152381   4.372954   5.367694   0.000000
   34  H  10  S  -0.000470  -0.040841  -0.045817  -0.056419   0.000000
   35  C  11  S   0.000000  -0.034701   0.065266  -0.052352   0.000000
   36  C  11  S  -0.036373  -0.854398   0.970522  -0.843260   0.000000
   37  C  11  X  -0.068521  -1.041779   0.949042  -1.112969   0.000000
   38  C  11  Y   0.054838   0.777233  -0.968836   0.506113   0.000000
   39  C  11  Z   0.000000   0.000000   0.000000   0.000000  -0.310335
   40  C  12  S   0.000000  -0.000097  -0.000341  -0.000050   0.000000
   41  C  12  S  -0.000102  -0.035450  -0.068084  -0.011053   0.000000
   42  C  12  X   0.000360   0.069140   0.125561   0.021752   0.000000
   43  C  12  Y   0.000053   0.009001   0.017485  -0.008319   0.000000
   44  C  12  Z   0.000000   0.000000   0.000000   0.000000  -0.010260
   45  H  13  S  -0.002445  -0.108091   0.111693  -0.139465   0.000000
   46  H  14  S  -0.000223  -0.024300  -0.043538   0.004208   0.000000
   47  C  15  S   0.000000  -0.003881   0.010875  -0.002631   0.000000
   48  C  15  S  -0.004310  -0.229272   0.369075  -0.104049   0.000000
   49  C  15  X  -0.012100  -0.383339   0.571062  -0.183298   0.000000
   50  C  15  Y   0.002906   0.077545  -0.133805  -0.045889   0.000000
   51  C  15  Z   0.000000   0.000000   0.000000   0.000000  -0.077115
   52  C  16  S   0.000000   0.000000   0.000000   0.000000   0.000000
   53  C  16  S   0.000000  -0.000670  -0.001556  -0.000484   0.000000
   54  C  16  X   0.000000   0.001586   0.003497   0.001150   0.000000
   55  C  16  Y   0.000000   0.000466   0.001086   0.000143   0.000000
   56  C  16  Z   0.000000   0.000000   0.000000   0.000000  -0.000182
   57  H  17  S  -0.024790  -0.393850   0.559453   0.046111   0.000000
   58  H  18  S   0.000000  -0.000627  -0.001228  -0.000672   0.000000
   59  H  19  S  -0.000128  -0.015563   0.027689  -0.008171   0.000000
   60  H  20  S   0.000000  -0.000049  -0.000118  -0.000025   0.000000

                     26         27         28         29         30

   26  C   6  S -31.722417
   27  C   6  S  -7.745456 -18.633165
   28  C   6  X   0.049699   0.576793 -17.912883
   29  C   6  Y   0.093540   1.091123   0.138021 -17.756012
   30  C   6  Z   0.000000   0.000000   0.000000   0.000000 -17.077759
   31  H   7  S  -0.003424  -0.140005   0.001253   0.228665   0.000000
   32  H   8  S  -0.179961  -1.737988   1.845278  -1.132323   0.000000
   33  H   9  S  -0.000470  -0.040841   0.045817   0.056419   0.000000
   34  H  10  S  -1.980013  -8.152381  -4.372954  -5.367694   0.000000
   35  C  11  S   0.000000  -0.000097   0.000341   0.000050   0.000000
   36  C  11  S  -0.000102  -0.035450   0.068084   0.011053   0.000000
   37  C  11  X  -0.000360  -0.069140   0.125561   0.021752   0.000000
   38  C  11  Y  -0.000053  -0.009001   0.017485  -0.008319   0.000000
   39  C  11  Z   0.000000   0.000000   0.000000   0.000000  -0.010260
   40  C  12  S   0.000000  -0.034701  -0.065266   0.052352   0.000000
   41  C  12  S  -0.036373  -0.854398  -0.970522   0.843260   0.000000
   42  C  12  X   0.068521   1.041779   0.949042  -1.112969   0.000000
   43  C  12  Y  -0.054838  -0.777233  -0.968836   0.506113   0.000000
   44  C  12  Z   0.000000   0.000000   0.000000   0.000000  -0.310335
   45  H  13  S  -0.000223  -0.024300   0.043538  -0.004208   0.000000
   46  H  14  S  -0.002445  -0.108091  -0.111693   0.139465   0.000000
   47  C  15  S   0.000000   0.000000   0.000000   0.000000   0.000000
   48  C  15  S   0.000000  -0.000670   0.001556   0.000484   0.000000
   49  C  15  X   0.000000  -0.001586   0.003497   0.001150   0.000000
   50  C  15  Y   0.000000  -0.000466   0.001086   0.000143   0.000000
   51  C  15  Z   0.000000   0.000000   0.000000   0.000000  -0.000182
   52  C  16  S   0.000000  -0.003881  -0.010875   0.002631   0.000000
   53  C  16  S  -0.004310  -0.229272  -0.369075   0.104049   0.000000
   54  C  16  X   0.012100   0.383339   0.571062  -0.183298   0.000000
   55  C  16  Y  -0.002906  -0.077545  -0.133805  -0.045889   0.000000
   56  C  16  Z   0.000000   0.000000   0.000000   0.000000  -0.077115
   57  H  17  S   0.000000  -0.000627   0.001228   0.000672   0.000000
   58  H  18  S  -0.024790  -0.393850  -0.559453  -0.046111   0.000000
   59  H  19  S   0.000000  -0.000049   0.000118   0.000025   0.000000
   60  H  20  S  -0.000128  -0.015563  -0.027689   0.008171   0.000000

                     31         32         33         34         35

   31  H   7  S -13.488072
   32  H   8  S  -0.002717 -13.488072
   33  H   9  S  -0.818575  -0.016558 -13.769075
   34  H  10  S  -0.016558  -0.818575  -0.002646 -13.769075
   35  C  11  S  -0.000008  -0.037141  -0.027765  -0.000010 -30.093659
   36  C  11  S  -0.003424  -0.554627  -0.475060  -0.003953  -7.340934
   37  C  11  X  -0.005716  -0.617273  -0.350109  -0.007764  -0.058323
   38  C  11  Y   0.004125  -0.486738   0.590212  -0.002224   0.057108
   39  C  11  Z   0.000000   0.000000   0.000000   0.000000   0.000000
   40  C  12  S  -0.037141  -0.000008  -0.000010  -0.027765   0.000000
   41  C  12  S  -0.554627  -0.003424  -0.003953  -0.475060   0.000000
   42  C  12  X   0.617273   0.005716   0.007764   0.350109   0.000000
   43  C  12  Y   0.486738  -0.004125   0.002224  -0.590212   0.000000
   44  C  12  Z   0.000000   0.000000   0.000000   0.000000   0.000000
   45  H  13  S  -0.000369  -0.877132  -0.047308  -0.004927  -1.866530
   46  H  14  S  -0.877132  -0.000369  -0.004927  -0.047308   0.000000
   47  C  15  S  -0.000001  -0.000219  -0.025599   0.000000  -0.000194
   48  C  15  S  -0.000738  -0.023921  -0.413995  -0.000051  -1.368381
   49  C  15  X  -0.001542  -0.033225  -0.514543  -0.000119  -1.693280
   50  C  15  Y   0.000577  -0.027854   0.312359  -0.000048  -1.511244
   51  C  15  Z   0.000000   0.000000   0.000000   0.000000   0.000000
   52  C  16  S  -0.000219  -0.000001   0.000000  -0.025599   0.000000
   53  C  16  S  -0.023921  -0.000738  -0.000051  -0.413995   0.000000
   54  C  16  X   0.033225   0.001542   0.000119   0.514543   0.000000
   55  C  16  Y   0.027854  -0.000577   0.000048  -0.312359   0.000000
   56  C  16  Z   0.000000   0.000000   0.000000   0.000000   0.000000
   57  H  17  S  -0.004972  -0.005155  -1.129101  -0.000038  -0.182572
   58  H  18  S  -0.005155  -0.004972  -0.000038  -1.129101   0.000000
   59  H  19  S  -0.000035  -0.004758  -0.040258  -0.000005  -0.189552
   60  H  20  S  -0.004758  -0.000035  -0.000005  -0.040258   0.000000

                     36         37         38         39         40

   36  C  11  S -17.003592
   37  C  11  X  -0.703745 -16.397946
   38  C  11  Y   0.659096  -0.145794 -15.955114
   39  C  11  Z   0.000000   0.000000   0.000000 -15.505653
   40  C  12  S   0.000000   0.000000   0.000000   0.000000 -30.093659
   41  C  12  S  -0.000016  -0.000045   0.000008   0.000000  -7.340934
   42  C  12  X   0.000045   0.000121  -0.000023   0.000000   0.058323
   43  C  12  Y  -0.000008  -0.000023  -0.000001   0.000000  -0.057108
   44  C  12  Z   0.000000   0.000000   0.000000  -0.000004   0.000000
   45  H  13  S  -7.504247   1.197947  -6.319943   0.000000   0.000000
   46  H  14  S  -0.000007  -0.000019   0.000007   0.000000  -1.866530
   47  C  15  S  -1.288229   1.590758   1.426562   0.000000   0.000000
   48  C  15  S  -6.710364   4.823479   4.650517   0.000000   0.000000
   49  C  15  X  -5.432287   1.281976   4.785911   0.000000   0.000000
   50  C  15  Y  -4.572429   4.314015   0.385138   0.000000   0.000000
   51  C  15  Z   0.000000   0.000000   0.000000  -3.654082   0.000000
   52  C  16  S   0.000000   0.000000   0.000000   0.000000  -0.000194
   53  C  16  S   0.000000  -0.000001   0.000000   0.000000  -1.368381
   54  C  16  X   0.000001   0.000002   0.000000   0.000000   1.693280
   55  C  16  Y   0.000000   0.000000   0.000000   0.000000   1.511244
   56  C  16  Z   0.000000   0.000000   0.000000   0.000000   0.000000
   57  H  17  S  -1.684929   0.795946   1.919463   0.000000   0.000000
   58  H  18  S  -0.000002  -0.000006  -0.000001   0.000000  -0.182572
   59  H  19  S  -1.624254   1.863975   0.630962   0.000000   0.000000
   60  H  20  S   0.000000   0.000000   0.000000   0.000000  -0.189552

                     41         42         43         44         45

   41  C  12  S -17.003592
   42  C  12  X   0.703745 -16.397946
   43  C  12  Y  -0.659096  -0.145794 -15.955114
   44  C  12  Z   0.000000   0.000000   0.000000 -15.505653
   45  H  13  S  -0.000007   0.000019  -0.000007   0.000000 -12.723241
   46  H  14  S  -7.504247  -1.197947   6.319943   0.000000  -0.000002
   47  C  15  S   0.000000   0.000000   0.000000   0.000000  -0.188063
   48  C  15  S   0.000000   0.000001   0.000000   0.000000  -1.734002
   49  C  15  X  -0.000001   0.000002   0.000000   0.000000  -0.922937
   50  C  15  Y   0.000000   0.000000   0.000000   0.000000  -1.971237
   51  C  15  Z   0.000000   0.000000   0.000000   0.000000   0.000000
   52  C  16  S  -1.288229  -1.590758  -1.426562   0.000000   0.000000
   53  C  16  S  -6.710364  -4.823479  -4.650517   0.000000   0.000000
   54  C  16  X   5.432287   1.281976   4.785911   0.000000   0.000001
   55  C  16  Y   4.572429   4.314015   0.385138   0.000000   0.000000
   56  C  16  Z   0.000000   0.000000   0.000000  -3.654082   0.000000
   57  H  17  S  -0.000002   0.000006   0.000001   0.000000  -0.256172
   58  H  18  S  -1.684929  -0.795946  -1.919463   0.000000  -0.000004
   59  H  19  S   0.000000   0.000000   0.000000   0.000000  -0.769965
   60  H  20  S  -1.624254  -1.863975  -0.630962   0.000000   0.000000

                     46         47         48         49         50

   46  H  14  S -12.723241
   47  C  15  S   0.000000 -28.145489
   48  C  15  S   0.000000  -6.857082 -15.048921
   49  C  15  X  -0.000001  -0.104214  -1.204661 -14.272179
   50  C  15  Y   0.000000  -0.043892  -0.501293  -0.224092 -14.067345
   51  C  15  Z   0.000000   0.000000   0.000000   0.000000   0.000000
   52  C  16  S  -0.188063   0.000000   0.000000   0.000000   0.000000
   53  C  16  S  -1.734002   0.000000   0.000000   0.000000   0.000000
   54  C  16  X   0.922937   0.000000   0.000000   0.000000   0.000000
   55  C  16  Y   1.971237   0.000000   0.000000   0.000000   0.000000
   56  C  16  Z   0.000000   0.000000   0.000000   0.000000   0.000000
   57  H  17  S  -0.000004  -1.765252  -6.890685  -1.366961   5.894463
   58  H  18  S  -0.256172   0.000000   0.000000   0.000000   0.000000
   59  H  19  S   0.000000  -1.755367  -6.517632   5.160917  -1.811219
   60  H  20  S  -0.769965   0.000000   0.000000   0.000000   0.000000

                     51         52         53         54         55

   51  C  15  Z -13.659944
   52  C  16  S   0.000000 -28.145489
   53  C  16  S   0.000000  -6.857082 -15.048921
   54  C  16  X   0.000000   0.104214   1.204661 -14.272179
   55  C  16  Y   0.000000   0.043892   0.501293  -0.224092 -14.067345
   56  C  16  Z   0.000000   0.000000   0.000000   0.000000   0.000000
   57  H  17  S   0.000000   0.000000   0.000000   0.000000   0.000000
   58  H  18  S   0.000000  -1.765252  -6.890685   1.366961  -5.894463
   59  H  19  S   0.000000   0.000000   0.000000   0.000000   0.000000
   60  H  20  S   0.000000  -1.755367  -6.517632  -5.160917   1.811219

                     56         57         58         59         60

   56  C  16  Z -13.659944
   57  H  17  S   0.000000 -11.959142
   58  H  18  S   0.000000   0.000000 -11.959142
   59  H  19  S   0.000000  -1.999390   0.000000 -10.733986
   60  H  20  S   0.000000   0.000000  -1.999390   0.000000 -10.733986
KINETIC ENERGY INTEGRALS

                      1          2          3          4          5

    1  C   1  S  15.891122
    2  C   1  S  -0.085890   0.472250
    3  C   1  X   0.000000   0.000000   1.477728
    4  C   1  Y   0.000000   0.000000   0.000000   1.477728
    5  C   1  Z   0.000000   0.000000   0.000000   0.000000   1.477728
    6  C   2  S   0.000000  -0.000705   0.001459  -0.000237   0.000000
    7  C   2  S  -0.000705  -0.011605   0.012196  -0.001983   0.000000
    8  C   2  X  -0.001459  -0.012196   0.007230  -0.001707   0.000000
    9  C   2  Y   0.000237   0.001983  -0.001707  -0.002989   0.000000
   10  C   2  Z   0.000000   0.000000   0.000000   0.000000  -0.003266
   11  C   3  S  -0.000035  -0.008431   0.007561   0.008864   0.000000
   12  C   3  S  -0.008431   0.045880  -0.096960  -0.113666   0.000000
   13  C   3  X  -0.007561   0.096960  -0.086912  -0.189448   0.000000
   14  C   3  Y  -0.008864   0.113666  -0.189448  -0.147397   0.000000
   15  C   3  Z   0.000000   0.000000   0.000000   0.000000   0.074692
   16  C   4  S   0.000000  -0.002300   0.002766  -0.002229   0.000000
   17  C   4  S  -0.002300  -0.017541   0.008003  -0.006449   0.000000
   18  C   4  X  -0.002766  -0.008003  -0.008149   0.003444   0.000000
   19  C   4  Y   0.002229   0.006449   0.003444  -0.006651   0.000000
   20  C   4  Z   0.000000   0.000000   0.000000   0.000000  -0.003876
   21  C   5  S   0.000000  -0.002260   0.003294   0.001223   0.000000
   22  C   5  S  -0.002260  -0.017469   0.009790   0.003636   0.000000
   23  C   5  X  -0.003294  -0.009790  -0.009580  -0.002111   0.000000
   24  C   5  Y  -0.001223  -0.003636  -0.002111  -0.004680   0.000000
   25  C   5  Z   0.000000   0.000000   0.000000   0.000000  -0.003896
   26  C   6  S  -0.000035  -0.008431   0.004303  -0.010815   0.000000
   27  C   6  S  -0.008431   0.046025  -0.055329   0.139067   0.000000
   28  C   6  X  -0.004303   0.055329   0.022365   0.132015   0.000000
   29  C   6  Y   0.010815  -0.139067   0.132015  -0.256926   0.000000
[...]

                         46          47          48          49          50
       FREQUENCY:      1819.25     1888.91     1948.25     2038.69     2040.37  
    IR INTENSITY:      0.44187     0.00000     0.00000     0.00000     0.01563

  1   C            X  0.10338377 -0.01774299  0.08145802 -0.02483927 -0.02949156
                   Y -0.02674502 -0.13608672 -0.01854088 -0.02605383 -0.01085222
                   Z  0.00000000  0.00000000  0.00000000  0.00000000  0.00000000
  2   C            X  0.10338377  0.01774299 -0.08145802  0.02483927 -0.02949156
                   Y -0.02674502  0.13608672  0.01854088  0.02605383 -0.01085222
                   Z  0.00000000  0.00000000  0.00000000  0.00000000  0.00000000
  3   C            X -0.07459312  0.06040215 -0.12201260  0.00181838 -0.00284368
                   Y -0.05092112  0.07523925 -0.01171547  0.01229013  0.00589563
                   Z  0.00000000  0.00000000  0.00000000  0.00000000  0.00000000
  4   C            X -0.07459312 -0.06040215  0.12201260 -0.00181838 -0.00284368
                   Y -0.05092112 -0.07523925  0.01171547 -0.01229013  0.00589563
                   Z  0.00000000  0.00000000  0.00000000  0.00000000  0.00000000
  5   C            X -0.04317316  0.02298435  0.11261984  0.00386377  0.01137429
                   Y  0.07433330 -0.08785633 -0.05412773 -0.01249644 -0.00320501
                   Z  0.00000000  0.00000000  0.00000000  0.00000000  0.00000000
  6   C            X -0.04317316 -0.02298435 -0.11261984 -0.00386377  0.01137429
                   Y  0.07433330  0.08785633  0.05412773  0.01249644 -0.00320501
                   Z  0.00000000  0.00000000  0.00000000  0.00000000  0.00000000
  7   H            X  0.27423886 -0.13281624  0.12095617 -0.01397019 -0.00189586
                   Y  0.06902018  0.01705967  0.08695303  0.01004275  0.00947316
                   Z  0.00000000  0.00000000  0.00000000  0.00000000  0.00000000
  8   H            X  0.27423886  0.13281624 -0.12095617  0.01397019 -0.00189586
                   Y  0.06902018 -0.01705967 -0.08695303 -0.01004275  0.00947316
                   Z  0.00000000  0.00000000  0.00000000  0.00000000  0.00000000
  9   H            X  0.23072774 -0.13504026 -0.09423314 -0.00321896 -0.02203595
                   Y -0.12897664  0.02009165  0.11876085 -0.01049119  0.02625921
                   Z  0.00000000  0.00000000  0.00000000  0.00000000  0.00000000
 10   H            X  0.23072774  0.13504026  0.09423314  0.00321896 -0.02203595
                   Y -0.12897664 -0.02009165 -0.11876085  0.01049119  0.02625921
                   Z  0.00000000  0.00000000  0.00000000  0.00000000  0.00000000
 11   C            X -0.01668443  0.01644074  0.00893386 -0.11600126  0.11795046
                   Y  0.01662778 -0.00187078 -0.00729312 -0.07341946  0.07251457
                   Z  0.00000000  0.00000000  0.00000000  0.00000000  0.00000000
 12   C            X -0.01668443 -0.01644074 -0.00893386  0.11600126  0.11795046
                   Y  0.01662778  0.00187078  0.00729312  0.07341946  0.07251457
                   Z  0.00000000  0.00000000  0.00000000  0.00000000  0.00000000
 13   H            X -0.02372730  0.06202522  0.00381177  0.13480706 -0.12955721
                   Y  0.02086936  0.01092549 -0.01169783 -0.03660341  0.03632225
                   Z  0.00000000  0.00000000  0.00000000  0.00000000  0.00000000
 14   H            X -0.02372730 -0.06202522 -0.00381177 -0.13480706 -0.12955721
                   Y  0.02086936 -0.01092549  0.01169783  0.03660341  0.03632225
                   Z  0.00000000  0.00000000  0.00000000  0.00000000  0.00000000
 15   C            X -0.01570902 -0.02361642  0.00497043  0.09342839 -0.09406073
                   Y -0.01669356 -0.01607098  0.00604931  0.07761853 -0.07775688
                   Z  0.00000000  0.00000000  0.00000000  0.00000000  0.00000000
 16   C            X -0.01570902  0.02361642 -0.00497043 -0.09342839 -0.09406073
                   Y -0.01669356  0.01607098 -0.00604931 -0.07761853 -0.07775688
                   Z  0.00000000  0.00000000  0.00000000  0.00000000  0.00000000
 17   H            X  0.06239519  0.07850534 -0.01089733 -0.16797718  0.16951841
                   Y -0.00654771 -0.00233345  0.00433185  0.06137164 -0.06124622
                   Z  0.00000000  0.00000000  0.00000000  0.00000000  0.00000000
 18   H            X  0.06239519 -0.07850534  0.01089733  0.16797718  0.16951841
                   Y -0.00654771  0.00233345 -0.00433185 -0.06137164 -0.06124622
                   Z  0.00000000  0.00000000  0.00000000  0.00000000  0.00000000
 19   H            X  0.01331854 -0.00528208 -0.00227363  0.04996127 -0.05090195
                   Y  0.08610166  0.05575968 -0.02100764 -0.14944564  0.14878961
                   Z  0.00000000  0.00000000  0.00000000  0.00000000  0.00000000
 20   H            X  0.01331854  0.00528208  0.00227363 -0.04996127 -0.05090195
                   Y  0.08610166 -0.05575968  0.02100764  0.14944564  0.14878961
                   Z  0.00000000  0.00000000  0.00000000  0.00000000  0.00000000

 TRANS. SAYVETZ    X -0.00000046  0.00000000  0.00000000  0.00000000 -0.00000026
                   Y  0.00000001  0.00000000  0.00000000  0.00000000 -0.00000013
                   Z  0.00000000  0.00000000  0.00000000  0.00000000  0.00000000
               TOTAL  0.00000046  0.00000000  0.00000000  0.00000000  0.00000029

   ROT. SAYVETZ    X  0.00000000  0.00000000  0.00000000  0.00000000  0.00000000
                   Y  0.00000000  0.00000000  0.00000000  0.00000000  0.00000000
                   Z  0.00000000 -0.00014317  0.00028309  0.00008024  0.00000000
               TOTAL  0.00000000  0.00014317  0.00028309  0.00008024  0.00000000

                         51          52          53          54          55
       FREQUENCY:      3658.18     3659.26     3710.99     3711.08     3715.56  
    IR INTENSITY:      3.23521     0.00000     0.22789     0.00000     0.03178

  1   C            X -0.00031835 -0.00041033 -0.00169710 -0.00166245  0.00249397
                   Y -0.00014518 -0.00012176  0.00051276  0.00053259  0.00095532
                   Z  0.00000000  0.00000000  0.00000000  0.00000000  0.00000000
  2   C            X -0.00031835  0.00041033 -0.00169710  0.00166245  0.00249397
                   Y -0.00014518  0.00012176  0.00051276 -0.00053259  0.00095532
                   Z  0.00000000  0.00000000  0.00000000  0.00000000  0.00000000
  3   C            X  0.00028545  0.00000406 -0.00008276  0.00035661  0.01707347
                   Y -0.00144731 -0.00002513  0.00060526 -0.00090993 -0.05033146
                   Z  0.00000000  0.00000000  0.00000000  0.00000000  0.00000000
  4   C            X  0.00028545 -0.00000406 -0.00008276 -0.00035661  0.01707347
                   Y -0.00144731  0.00002513  0.00060526  0.00090993 -0.05033146
                   Z  0.00000000  0.00000000  0.00000000  0.00000000  0.00000000
  5   C            X  0.00191188 -0.00138430 -0.00082316  0.00096859  0.01385106
                   Y  0.00255721 -0.00193940 -0.00077859  0.00104669  0.02233174
                   Z  0.00000000  0.00000000  0.00000000  0.00000000  0.00000000
  6   C            X  0.00191188  0.00138430 -0.00082316 -0.00096859  0.01385106
                   Y  0.00255721  0.00193940 -0.00077859 -0.00104669  0.02233174
                   Z  0.00000000  0.00000000  0.00000000  0.00000000  0.00000000
  7   H            X -0.00606186  0.00009860  0.00243146 -0.00381856 -0.20787632
                   Y  0.01685119 -0.00062340 -0.00597153  0.01091661  0.56192474
                   Z  0.00000000  0.00000000  0.00000000  0.00000000  0.00000000
  8   H            X -0.00606186 -0.00009860  0.00243146  0.00381856 -0.20787632
                   Y  0.01685119  0.00062340 -0.00597153 -0.01091661  0.56192474
                   Z  0.00000000  0.00000000  0.00000000  0.00000000  0.00000000
  9   H            X -0.01995824  0.01342392  0.00674597 -0.00794078 -0.18969043
                   Y -0.02714226  0.01876300  0.00873177 -0.01074923 -0.24075565
                   Z  0.00000000  0.00000000  0.00000000  0.00000000  0.00000000
 10   H            X -0.01995824 -0.01342392  0.00674597  0.00794078 -0.18969043
                   Y -0.02714226 -0.01876300  0.00873177  0.01074923 -0.24075565
                   Z  0.00000000  0.00000000  0.00000000  0.00000000  0.00000000
 11   C            X  0.00911332 -0.00911362  0.00821666 -0.00827708 -0.00031820
                   Y -0.01278524  0.01256471 -0.05806876  0.05813833 -0.00014502
                   Z  0.00000000  0.00000000  0.00000000  0.00000000  0.00000000
 12   C            X  0.00911332  0.00911362  0.00821666  0.00827708 -0.00031820
                   Y -0.01278524 -0.01256471 -0.05806876 -0.05813833 -0.00014502
                   Z  0.00000000  0.00000000  0.00000000  0.00000000  0.00000000
 13   H            X -0.04457748  0.04401421 -0.14084231  0.14107780 -0.00076270
                   Y  0.20049289 -0.19718702  0.62440716 -0.62526375  0.00124759
                   Z  0.00000000  0.00000000  0.00000000  0.00000000  0.00000000
 14   H            X -0.04457748 -0.04401421 -0.14084231 -0.14107780 -0.00076270
                   Y  0.20049289  0.19718702  0.62440716  0.62526375  0.00124759
                   Z  0.00000000  0.00000000  0.00000000  0.00000000  0.00000000
 15   C            X -0.03688820  0.03703169  0.01326501 -0.01305587  0.00237577
                   Y -0.02925663  0.02928387  0.01488532 -0.01476007  0.00088402
                   Z  0.00000000  0.00000000  0.00000000  0.00000000  0.00000000
 16   C            X -0.03688820 -0.03703169  0.01326501  0.01305587  0.00237577
                   Y -0.02925663 -0.02928387  0.01488532  0.01476007  0.00088402
                   Z  0.00000000  0.00000000  0.00000000  0.00000000  0.00000000
 17   H            X -0.07267243  0.07286505  0.02760884 -0.02726688  0.00379095
                   Y  0.44022235 -0.44138621 -0.15418136  0.15203297 -0.01774367
                   Z  0.00000000  0.00000000  0.00000000  0.00000000  0.00000000
 18   H            X -0.07267243 -0.07286505  0.02760884  0.02726688  0.00379095
                   Y  0.44022235  0.44138621 -0.15418136 -0.15203297 -0.01774367
                   Z  0.00000000  0.00000000  0.00000000  0.00000000  0.00000000
 19   H            X  0.45160819 -0.45281527 -0.12072875  0.11836411 -0.02786894
                   Y -0.14132554  0.14182719  0.03715013 -0.03637526  0.00854095
                   Z  0.00000000  0.00000000  0.00000000  0.00000000  0.00000000
 20   H            X  0.45160819  0.45281527 -0.12072875 -0.11836411 -0.02786894
                   Y -0.14132554 -0.14182719  0.03715013  0.03637526  0.00854095
                   Z  0.00000000  0.00000000  0.00000000  0.00000000  0.00000000

 TRANS. SAYVETZ    X  0.00000029  0.00000000  0.00000001  0.00000000  0.00000013
                   Y  0.00000002  0.00000000 -0.00000003  0.00000000 -0.00000001
                   Z  0.00000000  0.00000000  0.00000000  0.00000000  0.00000000
               TOTAL  0.00000029  0.00000000  0.00000003  0.00000000  0.00000013

   ROT. SAYVETZ    X  0.00000000  0.00000000  0.00000000  0.00000000  0.00000000
                   Y  0.00000000  0.00000000  0.00000000  0.00000000  0.00000000
                   Z  0.00000000 -0.00019838  0.00000000 -0.00001412  0.00000000
               TOTAL  0.00000000  0.00019838  0.00000000  0.00001412  0.00000000

                         56          57          58          59          60
       FREQUENCY:      3722.64     3741.53     3744.84     3816.54     3816.56  
    IR INTENSITY:      0.00000     0.17417     0.00000     0.00658     0.00000

  1   C            X -0.00160744  0.00006322  0.00196700 -0.00027978 -0.00029579
                   Y -0.00340249  0.00428875 -0.00177847 -0.00007748 -0.00010870
                   Z  0.00000000  0.00000000  0.00000000  0.00000000  0.00000000
  2   C            X  0.00160744  0.00006322 -0.00196700 -0.00027978  0.00029579
                   Y  0.00340249  0.00428875  0.00177847 -0.00007748  0.00010870
                   Z  0.00000000  0.00000000  0.00000000  0.00000000  0.00000000
  3   C            X -0.01813043  0.01277985  0.01156910  0.00013949 -0.00019802
                   Y  0.05198163 -0.02589990 -0.02316375 -0.00012554  0.00025388
                   Z  0.00000000  0.00000000  0.00000000  0.00000000  0.00000000
  4   C            X  0.01813043  0.01277985 -0.01156910  0.00013949  0.00019802
                   Y -0.05198163 -0.02589990  0.02316375 -0.00012554 -0.00025388
                   Z  0.00000000  0.00000000  0.00000000  0.00000000  0.00000000
  5   C            X -0.01206947 -0.03486967 -0.03575992 -0.00102078  0.00120427
                   Y -0.01977377 -0.04152726 -0.04306118 -0.00130392  0.00148476
                   Z  0.00000000  0.00000000  0.00000000  0.00000000  0.00000000
  6   C            X  0.01206947 -0.03486967  0.03575992 -0.00102078 -0.00120427
                   Y  0.01977377 -0.04152726  0.04306118 -0.00130392 -0.00148476
                   Z  0.00000000  0.00000000  0.00000000  0.00000000  0.00000000
  7   H            X  0.21407373 -0.10743656 -0.09453489 -0.00063309  0.00083235
                   Y -0.57761763  0.28545263  0.25170074  0.00181840 -0.00221564
                   Z  0.00000000  0.00000000  0.00000000  0.00000000  0.00000000
  8   H            X -0.21407373 -0.10743656  0.09453489 -0.00063309 -0.00083235
                   Y  0.57761763  0.28545263 -0.25170074  0.00181840  0.00221564
                   Z  0.00000000  0.00000000  0.00000000  0.00000000  0.00000000
  9   H            X  0.16809516  0.37264766  0.38297414  0.01296994 -0.01471280
                   Y  0.21285330  0.46699794  0.48031390  0.01550852 -0.01760933
                   Z  0.00000000  0.00000000  0.00000000  0.00000000  0.00000000
 10   H            X -0.16809516  0.37264766 -0.38297414  0.01296994  0.01471280
                   Y -0.21285330  0.46699794 -0.48031390  0.01550852  0.01760933
                   Z  0.00000000  0.00000000  0.00000000  0.00000000  0.00000000
 11   C            X -0.00017228  0.00007908  0.00012305  0.00049911 -0.00049856
                   Y  0.00109631 -0.00009264  0.00008597 -0.00207622  0.00208346
                   Z  0.00000000  0.00000000  0.00000000  0.00000000  0.00000000
 12   C            X  0.00017228  0.00007908 -0.00012305  0.00049911  0.00049856
                   Y -0.00109631 -0.00009264 -0.00008597 -0.00207622 -0.00208346
                   Z  0.00000000  0.00000000  0.00000000  0.00000000  0.00000000
 13   H            X  0.00293843  0.00095194  0.00141290 -0.00401407  0.00402751
                   Y -0.01228754 -0.00087869 -0.00206932  0.02694392 -0.02700399
                   Z  0.00000000  0.00000000  0.00000000  0.00000000  0.00000000
 14   H            X -0.00293843  0.00095194 -0.00141290 -0.00401407 -0.00402751
                   Y  0.01228754 -0.00087869  0.00206932  0.02694392  0.02700399
                   Z  0.00000000  0.00000000  0.00000000  0.00000000  0.00000000
 15   C            X -0.00138044 -0.00262059 -0.00274043  0.04325170 -0.04324055
                   Y -0.00010103  0.00059417  0.00079034 -0.05107956  0.05107389
                   Z  0.00000000  0.00000000  0.00000000  0.00000000  0.00000000
 16   C            X  0.00138044 -0.00262059  0.00274043  0.04325170  0.04324055
                   Y  0.00010103  0.00059417 -0.00079034 -0.05107956 -0.05107389
                   Z  0.00000000  0.00000000  0.00000000  0.00000000  0.00000000
 17   H            X -0.00152235 -0.00190041 -0.00152713 -0.07479098  0.07479053
                   Y  0.00534248  0.00302895  0.00031319  0.47329668 -0.47328123
                   Z  0.00000000  0.00000000  0.00000000  0.00000000  0.00000000
 18   H            X  0.00152235 -0.00190041  0.00152713 -0.07479098 -0.07479053
                   Y -0.00534248  0.00302895 -0.00031319  0.47329668  0.47328123
                   Z  0.00000000  0.00000000  0.00000000  0.00000000  0.00000000
 19   H            X  0.01386499  0.02826546  0.02997556 -0.44064064  0.44053595
                   Y -0.00442188 -0.00879423 -0.00906198  0.13329213 -0.13325475
                   Z  0.00000000  0.00000000  0.00000000  0.00000000  0.00000000
 20   H            X -0.01386499  0.02826546 -0.02997556 -0.44064064 -0.44053595
                   Y  0.00442188 -0.00879423  0.00906198  0.13329213  0.13325475
                   Z  0.00000000  0.00000000  0.00000000  0.00000000  0.00000000

 TRANS. SAYVETZ    X  0.00000000 -0.00000030  0.00000000  0.00000000  0.00000000
                   Y  0.00000000 -0.00000012  0.00000000 -0.00000002  0.00000000
                   Z  0.00000000  0.00000000  0.00000000  0.00000000  0.00000000
               TOTAL  0.00000000  0.00000032  0.00000000  0.00000002  0.00000000

   ROT. SAYVETZ    X  0.00000000  0.00000000  0.00000000  0.00000000  0.00000000
                   Y  0.00000000  0.00000000  0.00000000  0.00000000  0.00000000
                   Z  0.00000010  0.00000000  0.00021839  0.00000000 -0.00011258
               TOTAL  0.00000010  0.00000000  0.00021839  0.00000000  0.00011258

 REFERENCE ON SAYVETZ CONDITIONS - A. SAYVETZ, J.CHEM.PHYS., 7, 383-389(1939).

 NOTE - THE MODES J,K ARE ORTHONORMALIZED ACCORDING TO
 SUM ON I   M(I) * (X(I,J)*X(I,K) + Y(I,J)*Y(I,K) + Z(I,J)*Z(I,K)) = DELTA(J,K)

     -------------------------------
     THERMOCHEMISTRY AT T=  298.15 K
     -------------------------------

 USING IDEAL GAS, RIGID ROTOR, HARMONIC NORMAL MODE APPROXIMATIONS.
 P=  1.01325E+05 PASCAL.
 ALL FREQUENCIES ARE SCALED BY   1.00000
 THE MOMENTS OF INERTIA ARE (IN AMU*BOHR**2)
    376.14022  2576.75033  2952.89056
 THE ROTATIONAL SYMMETRY NUMBER IS  2.0
 THE ROTATIONAL CONSTANTS ARE (IN GHZ)
      4.79366     0.69975     0.61062
 THE HARMONIC ZERO POINT ENERGY IS (SCALED BY   1.000)
        0.193500 HARTREE/MOLECULE    42468.369895 CM**-1/MOLECULE 
      121.423284 KCAL/MOL              508.035022 KJ/MOL

               Q               LN Q
 ELEC.     1.00000E+00       0.000000
 TRANS.    5.83124E+07      17.881325
 ROT.      3.02793E+05      12.620805
 VIB.      2.28108E+02       5.429821
 TOT.      4.02762E+15      35.931951

              E         H         G         CV        CP        S
           KJ/MOL    KJ/MOL    KJ/MOL   J/MOL-K   J/MOL-K   J/MOL-K
 ELEC.      0.000     0.000     0.000     0.000     0.000     0.000
 TRANS.     3.718     6.197   -44.327    12.472    20.786   169.459
 ROT.       3.718     3.718   -31.286    12.472    12.472   117.406
 VIB.     522.471   522.471   494.575   102.082   102.082    93.565
 TOTAL    529.908   532.387   418.962   127.025   135.340   380.430

              E         H         G         CV        CP        S
         KCAL/MOL  KCAL/MOL  KCAL/MOL CAL/MOL-K CAL/MOL-K CAL/MOL-K
 ELEC.      0.000     0.000     0.000     0.000     0.000     0.000
 TRANS.     0.889     1.481   -10.594     2.981     4.968    40.502
 ROT.       0.889     0.889    -7.478     2.981     2.981    28.061
 VIB.     124.874   124.874   118.206    24.398    24.398    22.363
 TOTAL    126.651   127.244   100.134    30.360    32.347    90.925
 ......END OF NORMAL COORDINATE ANALYSIS......

 CPU        TIME:   STEP =      0.07 ,  TOTAL =      157.8 SECONDS (    2.6 MIN)
 WALL CLOCK TIME:   STEP =      0.10 ,  TOTAL =      160.8 SECONDS (    2.7 MIN)
 CPU UTILIZATION:   STEP =     70.10%,  TOTAL =      98.12%
     1362888 WORDS OF    DYNAMIC MEMORY USED
 EXECUTION OF GAMESS TERMINATED NORMALLY 13:41:43 LT  19-MAR-2006
