1         ******************************************************
          *            GAMESS VERSION =  6 JUN 1999            *
          *             FROM IOWA STATE UNIVERSITY             *
          * M.W.SCHMIDT, K.K.BALDRIDGE, J.A.BOATZ, S.T.ELBERT, *
          *   M.S.GORDON, J.H.JENSEN, S.KOSEKI, N.MATSUNAGA,   *
          *          K.A.NGUYEN, S.J.SU, T.L.WINDUS,           *
          *       TOGETHER WITH M.DUPUIS, J.A.MONTGOMERY       *
          *         J.COMPUT.CHEM.  14, 1347-1363(1993)        *
          *******Intel x86 (Win32,Linux,OS/2,DOS) VERSION*******
          * PC GAMESS version 7.0 (Dragon), build number 3970  *
          *   Compiled on    Monday,    14-08-2006, 21:10:41   *
          *      Intel specific optimization, bug fixes,       *
          *    code changes, and additional functionality -    *
          *  copyright (c) 1994, 2006 by  Alex A. Granovsky,   *
          *        Laboratory of Chemical Cybernetics,         *
          *      Moscow State University, Moscow, Russia.      *
          *   Some parts of this program include code due to   *
          * work of Jim Kress, Peter Burger, and Robert Ponec. *
          ******************************************************
          *                PC GAMESS homepage:                 *
          * http://classic.chem.msu.su/gran/gamess/index.html  *
          *                      e-mail:                       *
          *               gran@classic.chem.msu.su             *
          *   This program may not be redistributed without    *
          * the specific, written permission of its developers.*
          ******************************************************


 Pentium III/ Win32  PC GAMESS version running under Windows NT
 Running on Intel CPU:  Brand ID  0, Family  6, Model 14, Stepping  8
 CPU Brand String    :  Genuine Intel(R) CPU           T2250  @ 1.73GHz 
 CPU Features        :  CMOV, MMX, SSE, SSE2, SSE3                              
 Data cache size     :  L1 32 KB, L2 2048 KB, L3    0 KB
 # of cores/package  :  2
 Operating System successfully passed SSE support test.


 PARALLEL VERSION (UNIFIED) RUNNING SEQUENTIALLY ON SINGLE NODE

 EXECUTION OF GAMESS BEGUN 12:18:54 LT  24-FEB-2007

            ECHO OF THE FIRST FEW INPUT CARDS -
 INPUT CARD> $CONTRL COORD=CART UNITS=ANGS SCFTYP=RHF CITYP=TDDFT                           
 INPUT CARD>         DFTTYP=B3LYP $END                                                      
 INPUT CARD> $BASIS  GBASIS=STO NGAUSS=3 $END                                               
 INPUT CARD> $GUESS  GUESS=HUCKEL $END                                                      
 INPUT CARD> $TDDFT NSTATE=5 $END                                                           
 INPUT CARD> $DATA                                                                          
 INPUT CARD>divinylbenzene                                                                  
 INPUT CARD>cnh  2                                                                          
 INPUT CARD>                                                                                
 INPUT CARD> C           6.0  -1.3939882447   0.2213755683   0.0000000000                   
 INPUT CARD> C           6.0   1.3939882447  -0.2213755683   0.0000000000                   
 INPUT CARD> C           6.0  -0.4919705715   1.2868407086   0.0000000000                   
 INPUT CARD> C           6.0   0.4919705715  -1.2868407086   0.0000000000                   
 INPUT CARD> C           6.0   0.8733456137   1.0731470812   0.0000000000                   
 INPUT CARD> C           6.0  -0.8733456137  -1.0731470812   0.0000000000                   
 INPUT CARD> H           1.0  -0.8715846529   2.3007508400   0.0000000000                   
 INPUT CARD> H           1.0   0.8715846529  -2.3007508400   0.0000000000                   
 INPUT CARD> H           1.0   1.5389282156   1.9253173698   0.0000000000                   
 INPUT CARD> H           1.0  -1.5389282156  -1.9253173698   0.0000000000                   
 INPUT CARD> C           6.0   2.8621079750  -0.5097799325   0.0000000000                   
 INPUT CARD> C           6.0  -2.8621079750   0.5097799325   0.0000000000                   
 INPUT CARD> H           1.0   3.1070578958  -1.5662206184   0.0000000000                   
 INPUT CARD> H           1.0  -3.1070578958   1.5662206184   0.0000000000                   
 INPUT CARD> C           6.0   3.8375160019   0.3700444858   0.0000000000                   
 INPUT CARD> C           6.0  -3.8375160019  -0.3700444858   0.0000000000                   
 INPUT CARD> H           1.0   3.6688910549   1.4371664215   0.0000000000                   
 INPUT CARD> H           1.0  -3.6688910549  -1.4371664215   0.0000000000                   
 INPUT CARD> H           1.0   4.8733853301   0.0604752833   0.0000000000                   
 INPUT CARD> H           1.0  -4.8733853301  -0.0604752833   0.0000000000                   
 INPUT CARD> $END                                                                           
    2000000 WORDS OF MEMORY AVAILABLE

     BASIS OPTIONS
     -------------
     GBASIS=STO          IGAUSS=       3      POLAR=NONE    
     NDFUNC=       0     NFFUNC=       0     DIFFSP=       F
     NPFUNC=       0      DIFFS=       F


     RUN TITLE
     ---------
 divinylbenzene                                                                  

 THE POINT GROUP OF THE MOLECULE IS CNH     
 THE ORDER OF THE PRINCIPAL AXIS IS     2

 THE MOMENTS OF INERTIA ARE (AMU-ANGSTROM**2)
 IXX=     105.330   IYY=     721.564   IZZ=     826.894

 ATOM      ATOMIC                      COORDINATES (BOHR)
           CHARGE         X                   Y                   Z
 C           6.0     2.6326754828       -0.4281718636        0.0000000000
 C           6.0    -2.6326754828        0.4281718636        0.0000000000
 C           6.0     0.9206034836       -2.4352305938        0.0000000000
 C           6.0    -0.9206034836        2.4352305938        0.0000000000
 C           6.0    -1.6579442427       -2.0217776949        0.0000000000
 C           6.0     1.6579442427        2.0217776949        0.0000000000
 H           1.0     1.6308111945       -4.3539080202        0.0000000000
 H           1.0    -1.6308111945        4.3539080202        0.0000000000
 H           1.0    -2.9217169051       -3.6274386342        0.0000000000
 H           1.0     2.9217169051        3.6274386342        0.0000000000
 C           6.0    -5.4049652465        0.9835319540        0.0000000000
 C           6.0     5.4049652465       -0.9835319540        0.0000000000
 H           1.0    -5.8603962828        2.9816297594        0.0000000000
 H           1.0     5.8603962828       -2.9816297594        0.0000000000
 C           6.0    -7.2544141054       -0.6722013017        0.0000000000
 C           6.0     7.2544141054        0.6722013017        0.0000000000
 H           1.0    -6.9432907143       -2.6899450727        0.0000000000
 H           1.0     6.9432907143        2.6899450727        0.0000000000
 H           1.0    -9.2097254111       -0.0798955904        0.0000000000
 H           1.0     9.2097254111        0.0798955904        0.0000000000

          INTERNUCLEAR DISTANCES (ANGS.)
          ------------------------------

                    C              C              C              C         

  1  C               0.0000000      2.8229136 *    1.3960128 *    2.4148617 *  
  2  C               2.8229136 *    0.0000000      2.4148617 *    1.3960128 *  
  3  C               1.3960128 *    2.4148617 *    0.0000000      2.7553541 *  
  4  C               2.4148617 *    1.3960128 *    2.7553541 *    0.0000000    
  5  C               2.4220482 *    1.3952984 *    1.3819382 *    2.3906044 *  
  6  C               1.3952984 *    2.4220482 *    2.3906044 *    1.3819382 *  
  7  H               2.1439932 *    3.3902717      1.0826452 *    3.8379807    
  8  H               3.3902717      2.1439932 *    3.8379807      1.0826452 *  
  9  H               3.3919635      2.1515804 *    2.1288970 *    3.3784730    
 10  H               2.1515804 *    3.3919635      3.3784730      2.1288970 *  
 11  C               4.3184422      1.4961793 *    3.8049558      2.4942684 *  
 12  C               1.4961793 *    4.3184422      2.4942684 *    3.8049558    
 13  H               4.8430276      2.1778925 *    4.5927078      2.6299686 *  
 14  H               2.1778925 *    4.8430276      2.6299686 *    4.5927078    
 15  C               5.2336163      2.5140815 *    4.4254909      3.7333554    
 16  C               2.5140815 *    5.2336163      3.7333554      4.4254909    
 17  H               5.2068123      2.8153054 *    4.1635763      4.1848583    
 18  H               2.8153054 *    5.2068123      4.1848583      4.1635763    
 19  H               6.2694386      3.4907942      5.5037275      4.5838909    
 20  H               3.4907942      6.2694386      4.5838909      5.5037275    

                    C              C              H              H         

  1  C               2.4220482 *    1.3952984 *    2.1439932 *    3.3902717    
  2  C               1.3952984 *    2.4220482 *    3.3902717      2.1439932 *  
  3  C               1.3819382 *    2.3906044 *    1.0826452 *    3.8379807    
  4  C               2.3906044 *    1.3819382 *    3.8379807      1.0826452 *  
  5  C               0.0000000      2.7672204 *    2.1334931 *    3.3738984    
  6  C               2.7672204 *    0.0000000      3.3738984      2.1334931 *  
  7  H               2.1334931 *    3.3738984      0.0000000      4.9206155    
  8  H               3.3738984      2.1334931 *    4.9206155      0.0000000    
  9  H               1.0812929 *    3.8483573      2.4395743 *    4.2784343    
 10  H               3.8483573      1.0812929 *    4.2784343      2.4395743 *  
 11  C               2.5418170 *    3.7776972      4.6732798      2.6776407 *  
 12  C               3.7776972      2.5418170 *    2.6776407 *    4.6732798    
 13  H               3.4577062      4.0108270      5.5482488      2.3530566 *  
 14  H               4.0108270      3.4577062      2.3530566 *    5.5482488    
 15  C               3.0464175      4.9269685      5.0895241      3.9912274    
 16  C               4.9269685      3.0464175      3.9912274      5.0895241    
 17  H               2.8191460 *    5.1897580      4.6218717      4.6687202    
 18  H               5.1897580      2.8191460 *    4.6687202      4.6218717    
 19  H               4.1262358      5.8574752      6.1663210      4.6464823    
 20  H               5.8574752      4.1262358      4.6464823      6.1663210    

                    H              H              C              C         

  1  C               3.3919635      2.1515804 *    4.3184422      1.4961793 *  
  2  C               2.1515804 *    3.3919635      1.4961793 *    4.3184422    
  3  C               2.1288970 *    3.3784730      3.8049558      2.4942684 *  
  4  C               3.3784730      2.1288970 *    2.4942684 *    3.8049558    
  5  C               1.0812929 *    3.8483573      2.5418170 *    3.7776972    
  6  C               3.8483573      1.0812929 *    3.7776972      2.5418170 *  
  7  H               2.4395743 *    4.2784343      4.6732798      2.6776407 *  
  8  H               4.2784343      2.4395743 *    2.6776407 *    4.6732798    
  9  H               0.0000000      4.9295627      2.7713721 *    4.6230797    
 10  H               4.9295627      0.0000000      4.6230797      2.7713721 *  
 11  C               2.7713721 *    4.6230797      0.0000000      5.8143057    
 12  C               4.6230797      2.7713721 *    5.8143057      0.0000000    
 13  H               3.8275146      4.6598431      1.0844664 *    6.3198670    
 14  H               4.6598431      3.8275146      6.3198670      1.0844664 *  
 15  C               2.7753161 *    5.8459249      1.3135874 *    6.7010811    
 16  C               5.8459249      2.7753161 *    6.7010811      1.3135874 *  
 17  H               2.1851849 *    6.1990063      2.1074864 *    6.5965138    
 18  H               6.1990063      2.1851849 *    6.5965138      2.1074864 *  
 19  H               3.8205026      6.7127593      2.0905568 *    7.7485309    
 20  H               6.7127593      3.8205026      7.7485309      2.0905568 *  

                    H              H              C              C         

  1  C               4.8430276      2.1778925 *    5.2336163      2.5140815 *  
  2  C               2.1778925 *    4.8430276      2.5140815 *    5.2336163    
  3  C               4.5927078      2.6299686 *    4.4254909      3.7333554    
  4  C               2.6299686 *    4.5927078      3.7333554      4.4254909    
  5  C               3.4577062      4.0108270      3.0464175      4.9269685    
  6  C               4.0108270      3.4577062      4.9269685      3.0464175    
  7  H               5.5482488      2.3530566 *    5.0895241      3.9912274    
  8  H               2.3530566 *    5.5482488      3.9912274      5.0895241    
  9  H               3.8275146      4.6598431      2.7753161 *    5.8459249    
 10  H               4.6598431      3.8275146      5.8459249      2.7753161 *  
 11  C               1.0844664 *    6.3198670      1.3135874 *    6.7010811    
 12  C               6.3198670      1.0844664 *    6.7010811      1.3135874 *  
 13  H               0.0000000      6.9589815      2.0694665 *    7.0468393    
 14  H               6.9589815      0.0000000      7.0468393      2.0694665 *  
 15  C               2.0694665 *    7.0468393      0.0000000      7.7106321    
 16  C               7.0468393      2.0694665 *    7.7106321      0.0000000    
 17  H               3.0554853      6.7771778      1.0803627 *    7.7208910    
 18  H               6.7771778      3.0554853      7.7208910      1.0803627 *  
 19  H               2.4012605 *    8.1212526      1.0811375 *    8.7215337    
 20  H               8.1212526      2.4012605 *    8.7215337      1.0811375 *  

                    H              H              H              H         

  1  C               5.2068123      2.8153054 *    6.2694386      3.4907942    
  2  C               2.8153054 *    5.2068123      3.4907942      6.2694386    
  3  C               4.1635763      4.1848583      5.5037275      4.5838909    
  4  C               4.1848583      4.1635763      4.5838909      5.5037275    
  5  C               2.8191460 *    5.1897580      4.1262358      5.8574752    
  6  C               5.1897580      2.8191460 *    5.8574752      4.1262358    
  7  H               4.6218717      4.6687202      6.1663210      4.6464823    
  8  H               4.6687202      4.6218717      4.6464823      6.1663210    
  9  H               2.1851849 *    6.1990063      3.8205026      6.7127593    
 10  H               6.1990063      2.1851849 *    6.7127593      3.8205026    
 11  C               2.1074864 *    6.5965138      2.0905568 *    7.7485309    
 12  C               6.5965138      2.1074864 *    7.7485309      2.0905568 *  
 13  H               3.0554853      6.7771778      2.4012605 *    8.1212526    
 14  H               6.7771778      3.0554853      8.1212526      2.4012605 *  
 15  C               1.0803627 *    7.7208910      1.0811375 *    8.7215337    
 16  C               7.7208910      1.0803627 *    8.7215337      1.0811375 *  
 17  H               0.0000000      7.8806621      1.8292307 *    8.6725669    
 18  H               7.8806621      0.0000000      8.6725669      1.8292307 *  
 19  H               1.8292307 *    8.6725669      0.0000000      9.7475211    
 20  H               8.6725669      1.8292307 *    9.7475211      0.0000000    

  * ... LESS THAN  3.000


     ATOMIC BASIS SET
     ----------------
 THE CONTRACTED PRIMITIVE FUNCTIONS HAVE BEEN UNNORMALIZED
 THE CONTRACTED BASIS FUNCTIONS ARE NOW NORMALIZED TO UNITY

 SHELL TYPE PRIM    EXPONENT          CONTRACTION COEFFICIENTS

 C         

   3   S    1      71.616837    2.707814 (  0.154329) 
   3   S    2      13.045096    2.618880 (  0.535328) 
   3   S    3       3.530512    0.816191 (  0.444635) 

   4   L    4       2.941249   -0.160017 ( -0.099967)     0.856045 (  0.155916) 
   4   L    5       0.683483    0.214036 (  0.399513)     0.538304 (  0.607684) 
   4   L    6       0.222290    0.161536 (  0.700115)     0.085276 (  0.391957) 

 C         

   7   S    7      71.616837    2.707814 (  0.154329) 
   7   S    8      13.045096    2.618880 (  0.535328) 
   7   S    9       3.530512    0.816191 (  0.444635) 

   8   L   10       2.941249   -0.160017 ( -0.099967)     0.856045 (  0.155916) 
   8   L   11       0.683483    0.214036 (  0.399513)     0.538304 (  0.607684) 
   8   L   12       0.222290    0.161536 (  0.700115)     0.085276 (  0.391957) 

 C         

  11   S   13      71.616837    2.707814 (  0.154329) 
  11   S   14      13.045096    2.618880 (  0.535328) 
  11   S   15       3.530512    0.816191 (  0.444635) 

  12   L   16       2.941249   -0.160017 ( -0.099967)     0.856045 (  0.155916) 
  12   L   17       0.683483    0.214036 (  0.399513)     0.538304 (  0.607684) 
  12   L   18       0.222290    0.161536 (  0.700115)     0.085276 (  0.391957) 

 H         

  14   S   19       3.425251    0.276934 (  0.154329) 
  14   S   20       0.623914    0.267839 (  0.535328) 
  14   S   21       0.168855    0.083474 (  0.444635) 

 H         

  16   S   22       3.425251    0.276934 (  0.154329) 
  16   S   23       0.623914    0.267839 (  0.535328) 
  16   S   24       0.168855    0.083474 (  0.444635) 

 C         

  19   S   25      71.616837    2.707814 (  0.154329) 
  19   S   26      13.045096    2.618880 (  0.535328) 
  19   S   27       3.530512    0.816191 (  0.444635) 

  20   L   28       2.941249   -0.160017 ( -0.099967)     0.856045 (  0.155916) 
  20   L   29       0.683483    0.214036 (  0.399513)     0.538304 (  0.607684) 
  20   L   30       0.222290    0.161536 (  0.700115)     0.085276 (  0.391957) 

 H         

  22   S   31       3.425251    0.276934 (  0.154329) 
  22   S   32       0.623914    0.267839 (  0.535328) 
  22   S   33       0.168855    0.083474 (  0.444635) 

 C         

  25   S   34      71.616837    2.707814 (  0.154329) 
  25   S   35      13.045096    2.618880 (  0.535328) 
  25   S   36       3.530512    0.816191 (  0.444635) 

  26   L   37       2.941249   -0.160017 ( -0.099967)     0.856045 (  0.155916) 
  26   L   38       0.683483    0.214036 (  0.399513)     0.538304 (  0.607684) 
  26   L   39       0.222290    0.161536 (  0.700115)     0.085276 (  0.391957) 

 H         

  28   S   40       3.425251    0.276934 (  0.154329) 
  28   S   41       0.623914    0.267839 (  0.535328) 
  28   S   42       0.168855    0.083474 (  0.444635) 

 H         

  30   S   43       3.425251    0.276934 (  0.154329) 
  30   S   44       0.623914    0.267839 (  0.535328) 
  30   S   45       0.168855    0.083474 (  0.444635) 

 TOTAL NUMBER OF SHELLS              =   30
 TOTAL NUMBER OF BASIS FUNCTIONS     =   60
 NUMBER OF ELECTRONS                 =   70
 CHARGE OF MOLECULE                  =    0
 STATE MULTIPLICITY                  =    1
 NUMBER OF OCCUPIED ORBITALS (ALPHA) =   35
 NUMBER OF OCCUPIED ORBITALS (BETA ) =   35
 TOTAL NUMBER OF ATOMS               =   20
 THE NUCLEAR REPULSION ENERGY IS      452.1260015068

     $CONTRL OPTIONS
     ---------------
     SCFTYP=RHF          RUNTYP=ENERGY       EXETYP=RUN     
     MPLEVL=       0     LOCAL =NONE         UNITS =ANGS    
     MULT  =       1     ICHARG=       0     MAXIT =      30
     NPRINT=       7     IREST =       0     COORD =CART    
     ECP   =NONE         NORMF =       0     NORMP =       0
     ITOL  =      20     ICUT  =       9     NZVAR =       0
     NOSYM =       0     INTTYP=POPLE        GEOM  =INPUT   
     PLTORB=       F     MOLPLT=       F     RPAC  =       F
     AIMPAC=       F     FRIEND=             CITYP =TDDFT   
     DFTTYP=B3LYP   

     $SYSTEM OPTIONS
     ---------------
     KDIAG =       0     MEMORY=  2000000     TIMLIM=    36000.0 SEC.
     COREFL=       F     PTIME =        F     XDR   =       F
     BALTYP=LOOP    

          ----------------
          PROPERTIES INPUT
          ----------------

     MOMENTS            FIELD           POTENTIAL          DENSITY
 IEMOM =       1   IEFLD =       0   IEPOT =       0   IEDEN =       0
 WHERE =COMASS     WHERE =NUCLEI     WHERE =NUCLEI     WHERE =NUCLEI  
 OUTPUT=BOTH       OUTPUT=BOTH       OUTPUT=BOTH       OUTPUT=BOTH    
 IEMINT=       0   IEFINT=       0                     IEDINT=       0
                                                       MORB  =       0


          ----------------   ------------------------------------
          DFT CODE OPTIONS   PROGRAM WRITTEN BY ALEX A. GRANOVSKY
          ----------------   ------------------------------------
          NRAD   =   63      LMAX   =  29 ( 302 POINTS PER SHELL)
          ANGPRN =    T      RADPRN =   T
          KAP    =   5.000
          CUTOFF = 1.0E-10   CUTAO  = 1.0E-10
          CUTWGT = 1.0E-20   CUTORB = 1.0E-15
          CUTGG1 = 1.0E-13   CUTGG2 = 1.0E-13
          CUTGG3 = 1.0E-13   CUTGG4 = 1.0E-30
          B3LYP  =  NWCHEM  



          EXTRAPOLATION IN EFFECT
          DAMPING IN EFFECT
          LEVEL SHIFTING IN EFFECT
          DIIS IN EFFECT

          ----------------------
          INTEGRAL INPUT OPTIONS
          ----------------------
 NOPK  =       1 NORDER=       0 SCHWRZ=       T

 ATTENTION! AO INTEGRALS WILL BE PACKED.
 THRESHOLD FOR PACKING PKTHR =  0.10000000D-01

     -------------------------------
     INTEGRAL TRANSFORMATION OPTIONS
     -------------------------------
     NWORD  =       0     CUTTRF = 1.0E-09
     MPTRAN =       0     DIRTRF =       F
     AOINTS =DUP          IREST  =       0

     ---------------------------------
     TDDFT PROGRAM CONTROL INFORMATION
     ---------------------------------
     NACORE =       10  NBCORE   =       10
     NSTATE =        5  ISTATE   =        1
     MULT   =        1  DIAGZN   =    DAVID
     MXVEC  =       80  NDAVIT   =       50
     DAVCVG = 3.00E-05  NGSVEC   =       10
     TDA    =        F  MNMEOP   =        F
     RDTDVC =        F  ISTSYM   =        0

     NUMBER OF CORE -A-  ORBITALS =    10
     NUMBER OF CORE -B-  ORBITALS =    10
     NUMBER OF OCC. -A-  ORBITALS =    35
     NUMBER OF OCC. -B-  ORBITALS =    35
     NUMBER OF MOLECULAR ORBITALS =    60
     NUMBER OF   BASIS  FUNCTIONS =    60


     ------------------------------------------
     THE POINT GROUP IS CNH, NAXIS= 2, ORDER= 4
     ------------------------------------------

     DIMENSIONS OF THE SYMMETRY SUBSPACES ARE
 AG  =  25      AU  =   5      BU  =  25      BG  =   5

 ..... DONE SETTING UP THE RUN .....

 CPU        TIME:   STEP =      0.03 ,  TOTAL =        0.0 SECONDS (    0.0 MIN)
 WALL CLOCK TIME:   STEP =      0.03 ,  TOTAL =        0.0 SECONDS (    0.0 MIN)
 CPU UTILIZATION:   STEP =    108.26%,  TOTAL =     162.38%

          ********************
          1 ELECTRON INTEGRALS
          ********************
 ...... END OF ONE-ELECTRON INTEGRALS ......

 CPU        TIME:   STEP =      0.06 ,  TOTAL =        0.1 SECONDS (    0.0 MIN)
 WALL CLOCK TIME:   STEP =      0.08 ,  TOTAL =        0.1 SECONDS (    0.0 MIN)
 CPU UTILIZATION:   STEP =     77.33%,  TOTAL =      99.71%

          -------------
          GUESS OPTIONS
          -------------
          GUESS =HUCKEL            NORB  =       0          NORDER=       0
          MIX   =       F          PRTMO =       F          SYMDEN=       F
          TOLZ  = 1.0E-08          TOLE  = 1.0E-05

 INITIAL GUESS ORBITALS GENERATED BY HUCKEL   ROUTINE.
 HUCKEL GUESS REQUIRES     46220 WORDS.

 SYMMETRIES FOR INITIAL GUESS ORBITALS FOLLOW.   BOTH SET(S).
    35 ORBITALS ARE OCCUPIED (   10 CORE ORBITALS).
    11=AG      12=BU      13=AG      14=BU      15=BU      16=AG      17=AG  
    18=AG      19=BU      20=AG      21=BU      22=AU      23=BU      24=AG  
    25=BU      26=BG      27=BU      28=AG      29=AU      30=BU      31=BU  
    32=BG      33=BG      34=AG      35=AG      36=AU      37=AU      38=BG  
    39=AU      40=BG      41=AG      42=AG      43=AG      44=AG      45=AG  
 ...... END OF INITIAL ORBITAL SELECTION ......

 CPU        TIME:   STEP =      0.05 ,  TOTAL =        0.2 SECONDS (    0.0 MIN)
 WALL CLOCK TIME:   STEP =      0.06 ,  TOTAL =        0.2 SECONDS (    0.0 MIN)
 CPU UTILIZATION:   STEP =     72.30%,  TOTAL =      89.53%

          --------------------
          2 ELECTRON INTEGRALS
          --------------------

 THE -PK- OPTION IS OFF, THE INTEGRALS ARE NOT IN SUPERMATRIX FORM.
 STORING    4998 INTEGRALS/RECORD ON DISK, USING 12 BYTES/INTEGRAL.
 TWO ELECTRON INTEGRAL EVALUATION REQUIRES   35213 WORDS OF MEMORY.
 SCHWARZ INEQUALITY OVERHEAD:      1684 INTEGRALS, T=        0.00
 II,JST,KST,LST =  1  1  1  1 NREC =         1 INTLOC =    1
 II,JST,KST,LST =  2  1  1  1 NREC =         1 INTLOC =    1
 II,JST,KST,LST =  3  1  1  1 NREC =         1 INTLOC =    1
 II,JST,KST,LST =  4  1  1  1 NREC =         1 INTLOC =    3
 II,JST,KST,LST =  5  1  1  1 NREC =         1 INTLOC =  473
 II,JST,KST,LST =  6  1  1  1 NREC =         1 INTLOC =  473
 II,JST,KST,LST =  7  1  1  1 NREC =         1 INTLOC =  473
 II,JST,KST,LST =  8  1  1  1 NREC =         1 INTLOC =  882
 II,JST,KST,LST =  9  1  1  1 NREC =         2 INTLOC = 1385
 II,JST,KST,LST = 10  1  1  1 NREC =         2 INTLOC = 1385
 II,JST,KST,LST = 11  1  1  1 NREC =         2 INTLOC = 1385
 II,JST,KST,LST = 12  1  1  1 NREC =         2 INTLOC = 3980
 II,JST,KST,LST = 13  1  1  1 NREC =         7 INTLOC =  275
 II,JST,KST,LST = 14  1  1  1 NREC =         7 INTLOC =  275
 II,JST,KST,LST = 15  1  1  1 NREC =         8 INTLOC = 4815
 II,JST,KST,LST = 16  1  1  1 NREC =         8 INTLOC = 4815
 II,JST,KST,LST = 17  1  1  1 NREC =        11 INTLOC = 1562
 II,JST,KST,LST = 18  1  1  1 NREC =        11 INTLOC = 1562
 II,JST,KST,LST = 19  1  1  1 NREC =        11 INTLOC = 1562
 II,JST,KST,LST = 20  1  1  1 NREC =        13 INTLOC = 1306
 II,JST,KST,LST = 21  1  1  1 NREC =        26 INTLOC = 4265
 II,JST,KST,LST = 22  1  1  1 NREC =        26 INTLOC = 4265
 II,JST,KST,LST = 23  1  1  1 NREC =        31 INTLOC = 4836
 II,JST,KST,LST = 24  1  1  1 NREC =        31 INTLOC = 4836
 II,JST,KST,LST = 25  1  1  1 NREC =        31 INTLOC = 4836
 II,JST,KST,LST = 26  1  1  1 NREC =        34 INTLOC = 3303
 II,JST,KST,LST = 27  1  1  1 NREC =        56 INTLOC = 1346
 II,JST,KST,LST = 28  1  1  1 NREC =        56 INTLOC = 1346
 II,JST,KST,LST = 29  1  1  1 NREC =        64 INTLOC = 1298
 II,JST,KST,LST = 30  1  1  1 NREC =        64 INTLOC = 1298
 SCHWARZ INEQUALITY TEST SKIPPED     21685 INTEGRAL BLOCKS.
 TOTAL NUMBER OF NONZERO TWO-ELECTRON INTEGRALS =              352579
         71 INTEGRAL RECORDS WERE STORED ON DISK FILE  8.
 ...... END OF TWO-ELECTRON INTEGRALS .....

 CPU        TIME:   STEP =      0.39 ,  TOTAL =        0.5 SECONDS (    0.0 MIN)
 WALL CLOCK TIME:   STEP =      0.39 ,  TOTAL =        0.6 SECONDS (    0.0 MIN)
 CPU UTILIZATION:   STEP =    101.36%,  TOTAL =      97.67%

          --------------------------
          R-B3LYP    SCF CALCULATION
          --------------------------

     NUCLEAR ENERGY =       452.1260015068
     MAXIT =   30     NPUNCH=    2
     EXTRAP=T  DAMP=T  SHIFT=T  RSTRCT=F  DIIS=T  DEM=F  SOSCF=F
     DENSITY CONV=  1.00E-05
     MEMORY REQUIRED FOR SCF STEP=    271319 WORDS.

 XC FUNCTIONAL: SLATER + BECKE 88 + HF EXCHANGE, LYP 88 + VWN 1 RPA CORRELATION 


 ITER EX DEM  TOTAL ENERGY      E CHANGE  DENSITY CHANGE    DIIS ERROR
          * * *   INITIATING DIIS PROCEDURE   * * *
   1  0  0  -381.943268310  -381.943268310   0.273900059   0.711351859
   2  1  0  -382.274665177    -0.331396868   0.119589337   0.048595328
   3  2  0  -382.297616979    -0.022951802   0.086417119   0.026573248
   4  3  0  -382.297557383     0.000059596   0.044000523   0.028356931
   5  4  0  -382.300398496    -0.002841113   0.002115642   0.001305617
   6  5  0  -382.300404864    -0.000006368   0.000705250   0.000498451
   7  6  0  -382.300405957    -0.000001093   0.000123967   0.000097223
   8  7  0  -382.300406020    -0.000000063   0.000012849   0.000006174
   9  8  0  -382.300406020     0.000000000   0.000006349   0.000004787
  10  9  0  -382.300406020     0.000000000   0.000000530   0.000000495

          -----------------
          DENSITY CONVERGED
          -----------------
     TIME TO FORM FOCK OPERATORS=      13.5 SECONDS (       1.4 SEC/ITER)
     OF THE ABOVE TIME, DFT PART=      13.4 SECONDS (       1.3 SEC/ITER)
     TIME TO SOLVE SCF EQUATIONS=       0.0 SECONDS (       0.0 SEC/ITER)

 FINAL ENERGY IS     -382.3004060197 AFTER  10 ITERATIONS
 DFT EXCHANGE + CORRELATION ENERGY IS      -46.8893934863
 INTEGRATED TOTAL ELECTRON NUMBER  IS       69.9998572351


          ------------
          EIGENVECTORS
          ------------

                      1          2          3          4          5
                  -10.0205   -10.0204   -10.0085   -10.0085   -10.0068
                     BU         AG         BU         AG         BU  
    1  C   1  S   0.699371   0.699354  -0.028411   0.028648  -0.023283
    2  C   1  S   0.032201   0.031997   0.004144  -0.004070   0.008428
    3  C   1  X  -0.001177  -0.000889   0.004150  -0.004126  -0.002885
    4  C   1  Y   0.000066   0.000009  -0.000641   0.000634   0.002214
    5  C   1  Z   0.000000   0.000000   0.000000   0.000000   0.000000
    6  C   2  S  -0.699371   0.699354   0.028411   0.028648   0.023283
    7  C   2  S  -0.032201   0.031997  -0.004144  -0.004070  -0.008428
    8  C   2  X  -0.001177   0.000889   0.004150   0.004126  -0.002885
    9  C   2  Y   0.000066  -0.000009  -0.000641  -0.000634   0.002214
   10  C   2  Z   0.000000   0.000000   0.000000   0.000000   0.000000
   11  C   3  S  -0.015815  -0.016674   0.006362  -0.009845  -0.308258
   12  C   3  S  -0.008014  -0.007182   0.000418  -0.000516  -0.020273
   13  C   3  X  -0.002671  -0.003042   0.000013  -0.000051   0.004255
   14  C   3  Y  -0.003609  -0.003439   0.000130  -0.000203  -0.001148
   15  C   3  Z   0.000000   0.000000   0.000000   0.000000   0.000000
   16  C   4  S   0.015815  -0.016674  -0.006362  -0.009845   0.308258
   17  C   4  S   0.008014  -0.007182  -0.000418  -0.000516   0.020273
   18  C   4  X  -0.002671   0.003042   0.000013   0.000051   0.004255
   19  C   4  Y  -0.003609   0.003439   0.000130   0.000203  -0.001148
   20  C   4  Z   0.000000   0.000000   0.000000   0.000000   0.000000
   21  C   5  S   0.016393  -0.017011  -0.005189  -0.008532   0.628068
   22  C   5  S   0.007994  -0.007136  -0.000312  -0.000365   0.031573
   23  C   5  X  -0.001368   0.001786  -0.000059  -0.000022   0.002785
   24  C   5  Y   0.004252  -0.004173  -0.000136  -0.000214   0.000419
   25  C   5  Z   0.000000   0.000000   0.000000   0.000000   0.000000
   26  C   6  S  -0.016393  -0.017011   0.005189  -0.008532  -0.628068
   27  C   6  S  -0.007994  -0.007136   0.000312  -0.000365  -0.031573
   28  C   6  X  -0.001368  -0.001786  -0.000059   0.000022   0.002785
   29  C   6  Y   0.004252   0.004173  -0.000136   0.000214   0.000419
   30  C   6  Z   0.000000   0.000000   0.000000   0.000000   0.000000
   31  H   7  S   0.000336   0.000207  -0.000055   0.000066   0.003043
   32  H   8  S  -0.000336   0.000207   0.000055   0.000066  -0.003043
   33  H   9  S  -0.000335   0.000210  -0.000091  -0.000086  -0.005915
   34  H  10  S   0.000335   0.000210   0.000091  -0.000086   0.005915
   35  C  11  S   0.027626  -0.028040   0.699856   0.699775   0.006603
   36  C  11  S   0.006782  -0.006859   0.031343   0.031322   0.000480
   37  C  11  X   0.003965  -0.004008  -0.001340  -0.001352  -0.000003
   38  C  11  Y  -0.000907   0.000915  -0.000821  -0.000819  -0.000051
   39  C  11  Z   0.000000   0.000000   0.000000   0.000000   0.000000
   40  C  12  S  -0.027626  -0.028040  -0.699856   0.699775  -0.006603
   41  C  12  S  -0.006782  -0.006859  -0.031343   0.031322  -0.000480
   42  C  12  X   0.003965   0.004008  -0.001340   0.001352  -0.000003
   43  C  12  Y  -0.000907  -0.000915  -0.000821   0.000819  -0.000051
   44  C  12  Z   0.000000   0.000000   0.000000   0.000000   0.000000
   45  H  13  S  -0.000340   0.000352  -0.006586  -0.006583  -0.000118
   46  H  14  S   0.000340   0.000352   0.006586  -0.006583   0.000118
   47  C  15  S  -0.000099   0.000112  -0.003592  -0.003585  -0.000889
   48  C  15  S  -0.000507   0.000511  -0.007905  -0.007903  -0.000207
   49  C  15  X  -0.000296   0.000303  -0.003507  -0.003505  -0.000114
   50  C  15  Y   0.000010  -0.000010  -0.003110  -0.003110   0.000011
   51  C  15  Z   0.000000   0.000000   0.000000   0.000000   0.000000
   52  C  16  S   0.000099   0.000112   0.003592  -0.003585   0.000889
   53  C  16  S   0.000507   0.000511   0.007905  -0.007903   0.000207
   54  C  16  X  -0.000296  -0.000303  -0.003507   0.003505  -0.000114
   55  C  16  Y   0.000010   0.000010  -0.003110   0.003110   0.000011
   56  C  16  Z   0.000000   0.000000   0.000000   0.000000   0.000000
   57  H  17  S   0.000157  -0.000149   0.000169   0.000169   0.000159
   58  H  18  S  -0.000157  -0.000149  -0.000169   0.000169  -0.000159
   59  H  19  S   0.000029  -0.000028   0.000204   0.000205  -0.000013
   60  H  20  S  -0.000029  -0.000028  -0.000204   0.000205   0.000013

                      6          7          8          9         10
                  -10.0067   -10.0061   -10.0059    -9.9926    -9.9926
                     AG         BU         AG         BU         AG  
    1  C   1  S   0.007150   0.007540   0.024729  -0.000072   0.000071
    2  C   1  S  -0.002182  -0.002884  -0.007802  -0.000222   0.000221
    3  C   1  X  -0.000019   0.001891   0.003235  -0.000086   0.000084
    4  C   1  Y  -0.005288   0.004744   0.000937   0.000011  -0.000010
    5  C   1  Z   0.000000   0.000000   0.000000   0.000000   0.000000
    6  C   2  S   0.007150  -0.007540   0.024729   0.000072   0.000071
    7  C   2  S  -0.002182   0.002884  -0.007802   0.000222   0.000221
    8  C   2  X   0.000019   0.001891  -0.003235  -0.000086  -0.000084
    9  C   2  Y   0.005288   0.004744  -0.000937   0.000011   0.000010
   10  C   2  Z   0.000000   0.000000   0.000000   0.000000   0.000000
   11  C   3  S  -0.342507   0.628662   0.610673  -0.000284   0.000595
   12  C   3  S  -0.021401   0.025393   0.024124   0.000008  -0.000075
   13  C   3  X   0.004100   0.001452   0.001769   0.000086  -0.000027
   14  C   3  Y  -0.001083   0.000582   0.000119   0.000010  -0.000021
   15  C   3  Z   0.000000   0.000000   0.000000   0.000000   0.000000
   16  C   4  S  -0.342507  -0.628662   0.610673   0.000284   0.000595
   17  C   4  S  -0.021401  -0.025393   0.024124  -0.000008  -0.000075
   18  C   4  X  -0.004100   0.001452  -0.001769   0.000086   0.000027
   19  C   4  Y   0.001083   0.000582  -0.000119   0.000010   0.000021
   20  C   4  Z   0.000000   0.000000   0.000000   0.000000   0.000000
   21  C   5  S   0.610443   0.309458   0.342929   0.000838   0.000882
   22  C   5  S   0.030848   0.007728   0.009488  -0.000007  -0.000026
   23  C   5  X   0.002804  -0.003612  -0.003567   0.000111   0.000096
   24  C   5  Y   0.000138   0.000935   0.000710  -0.000005  -0.000001
   25  C   5  Z   0.000000   0.000000   0.000000   0.000000   0.000000
   26  C   6  S   0.610443  -0.309458   0.342929  -0.000838   0.000882
   27  C   6  S   0.030848  -0.007728   0.009488   0.000007  -0.000026
   28  C   6  X  -0.002804  -0.003612   0.003567   0.000111  -0.000096
   29  C   6  Y  -0.000138   0.000935  -0.000710  -0.000005   0.000001
   30  C   6  Z   0.000000   0.000000   0.000000   0.000000   0.000000
   31  H   7  S   0.003268  -0.005708  -0.005718   0.000010  -0.000015
   32  H   8  S   0.003268   0.005708  -0.005718  -0.000010  -0.000015
   33  H   9  S  -0.005780  -0.002672  -0.003190   0.000093   0.000093
   34  H  10  S  -0.005780   0.002672  -0.003190  -0.000093   0.000093
   35  C  11  S   0.002348  -0.003155   0.011868   0.004410   0.004413
   36  C  11  S   0.000112  -0.000217   0.000574  -0.007565  -0.007564
   37  C  11  X  -0.000049   0.000027  -0.000153   0.003454   0.003454
   38  C  11  Y  -0.000089   0.000028  -0.000017   0.003141   0.003141
   39  C  11  Z   0.000000   0.000000   0.000000   0.000000   0.000000
   40  C  12  S   0.002348   0.003155   0.011868  -0.004410   0.004413
   41  C  12  S   0.000112   0.000217   0.000574   0.007565  -0.007564
   42  C  12  X   0.000049   0.000027   0.000153   0.003454  -0.003454
   43  C  12  Y   0.000089   0.000028   0.000017   0.003141  -0.003141
   44  C  12  Z   0.000000   0.000000   0.000000   0.000000   0.000000
   45  H  13  S  -0.000057   0.000058  -0.000203   0.000107   0.000106
   46  H  14  S  -0.000057  -0.000058  -0.000203  -0.000107   0.000106
   47  C  15  S  -0.000478  -0.000096  -0.000985   0.700460   0.700459
   48  C  15  S  -0.000100   0.000063  -0.000271   0.031623   0.031623
   49  C  15  X  -0.000042   0.000028  -0.000161   0.001086   0.001086
   50  C  15  Y   0.000026   0.000047  -0.000037   0.001052   0.001052
   51  C  15  Z   0.000000   0.000000   0.000000   0.000000   0.000000
   52  C  16  S  -0.000478   0.000096  -0.000985  -0.700460   0.700459
   53  C  16  S  -0.000100  -0.000063  -0.000271  -0.031623   0.031623
   54  C  16  X   0.000042   0.000028   0.000161   0.001086  -0.001086
   55  C  16  Y  -0.000026   0.000047   0.000037   0.001052  -0.001052
   56  C  16  Z   0.000000   0.000000   0.000000   0.000000   0.000000
   57  H  17  S   0.000159   0.000055   0.000066  -0.006501  -0.006501
   58  H  18  S   0.000159  -0.000055   0.000066   0.006501  -0.006501
   59  H  19  S  -0.000008  -0.000009  -0.000012  -0.006527  -0.006527
   60  H  20  S  -0.000008   0.000009  -0.000012   0.006527  -0.006527

                     11         12         13         14         15
                   -0.8228    -0.7631    -0.7287    -0.7084    -0.6777
                     AG         BU         AG         BU         BU  
    1  C   1  S  -0.108174   0.102706  -0.004770  -0.013335  -0.101940
    2  C   1  S   0.270127  -0.267433   0.015911   0.035501   0.275077
    3  C   1  X  -0.046413  -0.029731   0.094353  -0.023376  -0.059292
    4  C   1  Y   0.006313   0.003551  -0.009947  -0.128349   0.019160
    5  C   1  Z   0.000000   0.000000   0.000000   0.000000   0.000000
    6  C   2  S  -0.108174  -0.102706  -0.004770   0.013335   0.101940
    7  C   2  S   0.270127   0.267433   0.015911  -0.035501  -0.275077
    8  C   2  X   0.046413  -0.029731  -0.094353  -0.023376  -0.059292
    9  C   2  Y  -0.006313   0.003551   0.009947  -0.128349   0.019160
   10  C   2  Z   0.000000   0.000000   0.000000   0.000000   0.000000
   11  C   3  S  -0.099309   0.039122   0.043682  -0.133399  -0.041526
   12  C   3  S   0.245397  -0.100512  -0.111987   0.353999   0.112500
   13  C   3  X  -0.015525  -0.060139   0.036128  -0.056495   0.094283
   14  C   3  Y   0.055798  -0.028380  -0.016465  -0.003185   0.040367
   15  C   3  Z   0.000000   0.000000   0.000000   0.000000   0.000000
   16  C   4  S  -0.099309  -0.039122   0.043682   0.133399   0.041526
   17  C   4  S   0.245397   0.100512  -0.111987  -0.353999  -0.112500
   18  C   4  X   0.015525  -0.060139  -0.036128  -0.056495   0.094283
   19  C   4  Y  -0.055798  -0.028380   0.016465  -0.003185   0.040367
   20  C   4  Z   0.000000   0.000000   0.000000   0.000000   0.000000
   21  C   5  S  -0.098985  -0.043404   0.039161  -0.120352   0.074867
   22  C   5  S   0.245071   0.112104  -0.099828   0.319317  -0.202589
   23  C   5  X   0.033115  -0.047234  -0.046540   0.067759   0.048287
   24  C   5  Y   0.048224   0.045692  -0.002927  -0.034936  -0.056876
   25  C   5  Z   0.000000   0.000000   0.000000   0.000000   0.000000
   26  C   6  S  -0.098985   0.043404   0.039161   0.120352  -0.074867
   27  C   6  S   0.245071  -0.112104  -0.099828  -0.319317   0.202589
   28  C   6  X  -0.033115  -0.047234   0.046540   0.067759   0.048287
   29  C   6  Y  -0.048224   0.045692   0.002927  -0.034936  -0.056876
   30  C   6  Z   0.000000   0.000000   0.000000   0.000000   0.000000
   31  H   7  S   0.044413  -0.026611  -0.021138   0.098376   0.031983
   32  H   8  S   0.044413   0.026611  -0.021138  -0.098376  -0.031983
   33  H   9  S   0.044509   0.030461  -0.014897   0.089535  -0.053663
   34  H  10  S   0.044509  -0.030461  -0.014897  -0.089535   0.053663
   35  C  11  S  -0.047011  -0.114364  -0.120997   0.000242  -0.052724
   36  C  11  S   0.119090   0.293650   0.313326  -0.001529   0.136437
   37  C  11  X   0.026885   0.003077  -0.062022  -0.019006  -0.130437
   38  C  11  Y  -0.012468  -0.035865  -0.047607  -0.023140  -0.040062
   39  C  11  Z   0.000000   0.000000   0.000000   0.000000   0.000000
   40  C  12  S  -0.047011   0.114364  -0.120997  -0.000242   0.052724
   41  C  12  S   0.119090  -0.293650   0.313326   0.001529  -0.136437
   42  C  12  X  -0.026885   0.003077   0.062022  -0.019006  -0.130437
   43  C  12  Y   0.012468  -0.035865   0.047607  -0.023140  -0.040062
   44  C  12  Z   0.000000   0.000000   0.000000   0.000000   0.000000
   45  H  13  S   0.023906   0.066876   0.076491  -0.009988   0.037430
   46  H  14  S   0.023906  -0.066876   0.076491   0.009988  -0.037430
   47  C  15  S  -0.023531  -0.083344  -0.119633  -0.014489  -0.108885
   48  C  15  S   0.058709   0.212031   0.309026   0.037049   0.289462
   49  C  15  X   0.019846   0.052098   0.055814   0.006494   0.018386
   50  C  15  Y   0.012151   0.039578   0.052180  -0.001402   0.037178
   51  C  15  Z   0.000000   0.000000   0.000000   0.000000   0.000000
   52  C  16  S  -0.023531   0.083344  -0.119633   0.014489   0.108885
   53  C  16  S   0.058709  -0.212031   0.309026  -0.037049  -0.289462
   54  C  16  X  -0.019846   0.052098  -0.055814   0.006494   0.018386
   55  C  16  Y  -0.012151   0.039578  -0.052180  -0.001402   0.037178
   56  C  16  Z   0.000000   0.000000   0.000000   0.000000   0.000000
   57  H  17  S   0.013124   0.049172   0.073913   0.014374   0.074405
   58  H  18  S   0.013124  -0.049172   0.073913  -0.014374  -0.074405
   59  H  19  S   0.009842   0.044609   0.074700   0.008813   0.087013
   60  H  20  S   0.009842  -0.044609   0.074700  -0.008813  -0.087013

                     16         17         18         19         20
                   -0.5938    -0.5656    -0.5357    -0.5185    -0.4661
                     AG         AG         BU         AG         AG  
    1  C   1  S   0.069755   0.058393  -0.013110  -0.049966   0.034067
    2  C   1  S  -0.200005  -0.169979   0.036020   0.143524  -0.111123
    3  C   1  X  -0.068335  -0.064583  -0.133158  -0.148445  -0.126421
    4  C   1  Y   0.131062  -0.184005   0.054916  -0.021945   0.052671
    5  C   1  Z   0.000000   0.000000   0.000000   0.000000   0.000000
    6  C   2  S   0.069755   0.058393   0.013110  -0.049966   0.034067
    7  C   2  S  -0.200005  -0.169979  -0.036020   0.143524  -0.111123
    8  C   2  X   0.068335   0.064583  -0.133158   0.148445   0.126421
    9  C   2  Y  -0.131062   0.184005   0.054916   0.021945  -0.052671
   10  C   2  Z   0.000000   0.000000   0.000000   0.000000   0.000000
   11  C   3  S   0.007801  -0.110215  -0.048791   0.006154   0.013804
   12  C   3  S  -0.023481   0.319825   0.146742  -0.024140  -0.053225
   13  C   3  X  -0.167821   0.027293   0.000085   0.082710  -0.144493
   14  C   3  Y  -0.029830  -0.085585   0.007030   0.187960   0.128914
   15  C   3  Z   0.000000   0.000000   0.000000   0.000000   0.000000
   16  C   4  S   0.007801  -0.110215   0.048791   0.006154   0.013804
   17  C   4  S  -0.023481   0.319825  -0.146742  -0.024140  -0.053225
   18  C   4  X   0.167821  -0.027293   0.000085  -0.082710   0.144493
   19  C   4  Y   0.029830   0.085585   0.007030  -0.187960  -0.128914
   20  C   4  Z   0.000000   0.000000   0.000000   0.000000   0.000000
   21  C   5  S  -0.084497   0.052753   0.027870   0.052781  -0.020343
   22  C   5  S   0.237055  -0.153918  -0.083024  -0.166418   0.055908
   23  C   5  X   0.019585   0.174457   0.078282   0.043743   0.133214
   24  C   5  Y  -0.064759  -0.095622  -0.038449   0.203011   0.078897
   25  C   5  Z   0.000000   0.000000   0.000000   0.000000   0.000000
   26  C   6  S  -0.084497   0.052753  -0.027870   0.052781  -0.020343
   27  C   6  S   0.237055  -0.153918   0.083024  -0.166418   0.055908
   28  C   6  X  -0.019585  -0.174457   0.078282  -0.043743  -0.133214
   29  C   6  Y   0.064759   0.095622  -0.038449  -0.203011  -0.078897
   30  C   6  Z   0.000000   0.000000   0.000000   0.000000   0.000000
   31  H   7  S  -0.025607   0.167965   0.045950  -0.099703  -0.129753
   32  H   8  S  -0.025607   0.167965  -0.045950  -0.099703  -0.129753
   33  H   9  S   0.109441  -0.074023  -0.050541  -0.171530  -0.082662
   34  H  10  S   0.109441  -0.074023   0.050541  -0.171530  -0.082662
   35  C  11  S   0.052332   0.009131  -0.098437   0.057463  -0.042422
   36  C  11  S  -0.156214  -0.029383   0.297912  -0.172798   0.131529
   37  C  11  X  -0.126417  -0.083108   0.040140  -0.009528  -0.184004
   38  C  11  Y  -0.084372   0.044524   0.120981  -0.061536   0.116141
   39  C  11  Z   0.000000   0.000000   0.000000   0.000000   0.000000
   40  C  12  S   0.052332   0.009131   0.098437   0.057463  -0.042422
   41  C  12  S  -0.156214  -0.029383  -0.297912  -0.172798   0.131529
   42  C  12  X   0.126417   0.083108   0.040140   0.009528   0.184004
   43  C  12  Y   0.084372  -0.044524   0.120981   0.061536  -0.116141
   44  C  12  Z   0.000000   0.000000   0.000000   0.000000   0.000000
   45  H  13  S  -0.082082   0.029482   0.173297  -0.106104   0.153366
   46  H  14  S  -0.082082   0.029482  -0.173297  -0.106104   0.153366
   47  C  15  S  -0.080058  -0.039382   0.081104  -0.052752   0.019250
   48  C  15  S   0.226921   0.116189  -0.247563   0.164655  -0.071636
   49  C  15  X  -0.036952  -0.051698   0.093390  -0.082833  -0.002841
   50  C  15  Y  -0.035705   0.014206   0.128059  -0.074468   0.219038
   51  C  15  Z   0.000000   0.000000   0.000000   0.000000   0.000000
   52  C  16  S  -0.080058  -0.039382  -0.081104  -0.052752   0.019250
   53  C  16  S   0.226921   0.116189   0.247563   0.164655  -0.071636
   54  C  16  X   0.036952   0.051698   0.093390   0.082833   0.002841
   55  C  16  Y   0.035705  -0.014206   0.128059   0.074468  -0.219038
   56  C  16  Z   0.000000   0.000000   0.000000   0.000000   0.000000
   57  H  17  S   0.099732   0.024982  -0.163302   0.092757  -0.182191
   58  H  18  S   0.099732   0.024982   0.163302   0.092757  -0.182191
   59  H  19  S   0.092893   0.070076  -0.125003   0.098505   0.014611
   60  H  20  S   0.092893   0.070076   0.125003   0.098505   0.014611

                     21         22         23         24         25
                   -0.4466    -0.4142    -0.4056    -0.4035    -0.3798
                     BU         BU         BU         AG         BU  
    1  C   1  S   0.017673   0.067973   0.027750   0.021663  -0.002936
    2  C   1  S  -0.061170  -0.228501  -0.092229  -0.070440   0.009924
    3  C   1  X  -0.136231   0.009575   0.149617  -0.010529  -0.082425
    4  C   1  Y  -0.133868   0.109624  -0.213026   0.009735  -0.092864
    5  C   1  Z   0.000000   0.000000   0.000000   0.000000   0.000000
    6  C   2  S  -0.017673  -0.067973  -0.027750   0.021663   0.002936
    7  C   2  S   0.061170   0.228501   0.092229  -0.070440  -0.009924
    8  C   2  X  -0.136231   0.009575   0.149617   0.010529  -0.082425
    9  C   2  Y  -0.133868   0.109624  -0.213026  -0.009735  -0.092864
   10  C   2  Z   0.000000   0.000000   0.000000   0.000000   0.000000
   11  C   3  S  -0.019104  -0.048828  -0.002149  -0.025765  -0.030134
   12  C   3  S   0.063227   0.166993   0.010635   0.084764   0.094478
   13  C   3  X   0.189299  -0.057654   0.117385  -0.078185  -0.138966
   14  C   3  Y  -0.001228  -0.227319  -0.021208   0.005142   0.312493
   15  C   3  Z   0.000000   0.000000   0.000000   0.000000   0.000000
   16  C   4  S   0.019104   0.048828   0.002149  -0.025765   0.030134
   17  C   4  S  -0.063227  -0.166993  -0.010635   0.084764  -0.094478
   18  C   4  X   0.189299  -0.057654   0.117385   0.078185  -0.138966
   19  C   4  Y  -0.001228  -0.227319  -0.021208  -0.005142   0.312493
   20  C   4  Z   0.000000   0.000000   0.000000   0.000000   0.000000
   21  C   5  S   0.039079   0.047665  -0.008975   0.019042  -0.020441
   22  C   5  S  -0.125538  -0.163833   0.025451  -0.070326   0.063614
   23  C   5  X  -0.112809   0.178030  -0.045259   0.135045   0.218863
   24  C   5  Y   0.092807   0.104889   0.261275   0.033856   0.195461
   25  C   5  Z   0.000000   0.000000   0.000000   0.000000   0.000000
   26  C   6  S  -0.039079  -0.047665   0.008975   0.019042   0.020441
   27  C   6  S   0.125538   0.163833  -0.025451  -0.070326  -0.063614
   28  C   6  X  -0.112809   0.178030  -0.045259  -0.135045   0.218863
   29  C   6  Y   0.092807   0.104889   0.261275  -0.033856   0.195461
   30  C   6  Z   0.000000   0.000000   0.000000   0.000000   0.000000
   31  H   7  S   0.083258   0.232494   0.054283   0.008697  -0.248694
   32  H   8  S  -0.083258  -0.232494  -0.054283   0.008697   0.248694
   33  H   9  S  -0.049168  -0.226373  -0.147828  -0.110250  -0.215081
   34  H  10  S   0.049168   0.226373   0.147828  -0.110250   0.215081
   35  C  11  S  -0.020048   0.011461   0.003783  -0.027906   0.001974
   36  C  11  S   0.059966  -0.027146  -0.019524   0.077457  -0.003276
   37  C  11  X   0.091133   0.141552  -0.174038  -0.080866   0.071680
   38  C  11  Y  -0.219362   0.027184  -0.032135  -0.256055  -0.006401
   39  C  11  Z   0.000000   0.000000   0.000000   0.000000   0.000000
   40  C  12  S   0.020048  -0.011461  -0.003783  -0.027906  -0.001974
   41  C  12  S  -0.059966   0.027146   0.019524   0.077457   0.003276
   42  C  12  X   0.091133   0.141552  -0.174038   0.080866   0.071680
   43  C  12  Y  -0.219362   0.027184  -0.032135   0.256055  -0.006401
   44  C  12  Z   0.000000   0.000000   0.000000   0.000000   0.000000
   45  H  13  S  -0.146400  -0.032220  -0.009923  -0.146963  -0.006358
   46  H  14  S   0.146400   0.032220   0.009923  -0.146963   0.006358
   47  C  15  S   0.010119  -0.010753  -0.001524  -0.004595  -0.003530
   48  C  15  S  -0.039212   0.047154  -0.006792  -0.002509   0.016399
   49  C  15  X   0.222530  -0.108690  -0.048556   0.340861  -0.004952
   50  C  15  Y  -0.081784  -0.100386   0.242712   0.014397  -0.081837
   51  C  15  Z   0.000000   0.000000   0.000000   0.000000   0.000000
   52  C  16  S  -0.010119   0.010753   0.001524  -0.004595   0.003530
   53  C  16  S   0.039212  -0.047154   0.006792  -0.002509  -0.016399
   54  C  16  X   0.222530  -0.108690  -0.048556  -0.340861  -0.004952
   55  C  16  Y  -0.081784  -0.100386   0.242712  -0.014397  -0.081837
   56  C  16  Z   0.000000   0.000000   0.000000   0.000000   0.000000
   57  H  17  S   0.062761   0.064180  -0.206323   0.019123   0.056498
   58  H  18  S  -0.062761  -0.064180   0.206323   0.019123  -0.056498
   59  H  19  S  -0.184992   0.078182   0.092289  -0.258570  -0.008851
   60  H  20  S   0.184992  -0.078182  -0.092289  -0.258570   0.008851

                     26         27         28         29         30
                   -0.3590    -0.3511    -0.3351    -0.3125    -0.2953
                     BU         AG         AU         BU         AG  
    1  C   1  S  -0.003642  -0.026109   0.000000  -0.012532   0.001203
    2  C   1  S   0.013958   0.092404   0.000000   0.054727  -0.012848
    3  C   1  X   0.171556  -0.008605   0.000000   0.248224  -0.215424
    4  C   1  Y   0.164205   0.084034   0.000000  -0.085031  -0.232893
    5  C   1  Z   0.000000   0.000000   0.334544   0.000000   0.000000
    6  C   2  S   0.003642  -0.026109   0.000000   0.012532   0.001203
    7  C   2  S  -0.013958   0.092404   0.000000  -0.054727  -0.012848
    8  C   2  X   0.171556   0.008605   0.000000   0.248224   0.215424
    9  C   2  Y   0.164205  -0.084034   0.000000  -0.085031   0.232893
   10  C   2  Z   0.000000   0.000000   0.334544   0.000000   0.000000
   11  C   3  S   0.016962  -0.005586   0.000000   0.008394  -0.006053
   12  C   3  S  -0.060778   0.028896   0.000000  -0.026070   0.016287
   13  C   3  X  -0.229287   0.145653   0.000000   0.036799   0.237884
   14  C   3  Y  -0.083463  -0.125141   0.000000  -0.066239   0.209520
   15  C   3  Z   0.000000   0.000000   0.297635   0.000000   0.000000
   16  C   4  S  -0.016962  -0.005586   0.000000  -0.008394  -0.006053
   17  C   4  S   0.060778   0.028896   0.000000   0.026070   0.016287
   18  C   4  X  -0.229287  -0.145653   0.000000   0.036799  -0.237884
   19  C   4  Y  -0.083463   0.125141   0.000000  -0.066239  -0.209520
   20  C   4  Z   0.000000   0.000000   0.297635   0.000000   0.000000
   21  C   5  S  -0.008240   0.007738   0.000000  -0.014520   0.010043
   22  C   5  S   0.023490  -0.025492   0.000000   0.049183  -0.025392
   23  C   5  X   0.201491  -0.149506   0.000000  -0.006946  -0.180955
   24  C   5  Y  -0.063703   0.062371   0.000000   0.133580  -0.183207
   25  C   5  Z   0.000000   0.000000   0.296900   0.000000   0.000000
   26  C   6  S   0.008240   0.007738   0.000000   0.014520   0.010043
   27  C   6  S  -0.023490  -0.025492   0.000000  -0.049183  -0.025392
   28  C   6  X   0.201491   0.149506   0.000000  -0.006946   0.180955
   29  C   6  Y  -0.063703  -0.062371   0.000000   0.133580   0.183207
   30  C   6  Z   0.000000   0.000000   0.296900   0.000000   0.000000
   31  H   7  S  -0.022534   0.156001   0.000000   0.042342  -0.117711
   32  H   8  S   0.022534   0.156001   0.000000  -0.042342  -0.117711
   33  H   9  S  -0.051118  -0.001724   0.000000  -0.044777   0.281742
   34  H  10  S   0.051118  -0.001724   0.000000   0.044777   0.281742
   35  C  11  S  -0.000863   0.018985   0.000000   0.002264   0.014573
   36  C  11  S  -0.016836  -0.080307   0.000000  -0.005632  -0.065068
   37  C  11  X  -0.184339  -0.094542   0.000000  -0.174861  -0.188909
   38  C  11  Y  -0.209847  -0.205292   0.000000   0.214407  -0.002673
   39  C  11  Z   0.000000   0.000000   0.166992   0.000000   0.000000
   40  C  12  S   0.000863   0.018985   0.000000  -0.002264   0.014573
   41  C  12  S   0.016836  -0.080307   0.000000   0.005632  -0.065068
   42  C  12  X  -0.184339   0.094542   0.000000  -0.174861   0.188909
   43  C  12  Y  -0.209847   0.205292   0.000000   0.214407   0.002673
   44  C  12  Z   0.000000   0.000000   0.166992   0.000000   0.000000
   45  H  13  S  -0.152180  -0.199094   0.000000   0.256761   0.000955
   46  H  14  S   0.152180  -0.199094   0.000000  -0.256761   0.000955
   47  C  15  S  -0.021030  -0.011171   0.000000   0.003170  -0.009359
   48  C  15  S   0.054569   0.027117   0.000000  -0.013725   0.024838
   49  C  15  X   0.243420  -0.049288   0.000000   0.145029   0.119569
   50  C  15  Y   0.122860   0.295070   0.000000  -0.199540   0.055998
   51  C  15  Z   0.000000   0.000000   0.090047   0.000000   0.000000
   52  C  16  S   0.021030  -0.011171   0.000000  -0.003170  -0.009359
   53  C  16  S  -0.054569   0.027117   0.000000   0.013725   0.024838
   54  C  16  X   0.243420   0.049288   0.000000   0.145029  -0.119569
   55  C  16  Y   0.122860  -0.295070   0.000000  -0.199540  -0.055998
   56  C  16  Z   0.000000   0.000000   0.090047   0.000000   0.000000
   57  H  17  S  -0.056018  -0.263197   0.000000   0.231773   0.014965
   58  H  18  S   0.056018  -0.263197   0.000000  -0.231773   0.014965
   59  H  19  S  -0.151004   0.143056   0.000000  -0.219430  -0.095003
   60  H  20  S   0.151004   0.143056   0.000000   0.219430  -0.095003

                     31         32         33         34         35
                   -0.2896    -0.2708    -0.2209    -0.2006    -0.1607
                     AG         BG         AU         BG         BG  
    1  C   1  S   0.009125   0.000000   0.000000   0.000000   0.000000
    2  C   1  S  -0.047360   0.000000   0.000000   0.000000   0.000000
    3  C   1  X  -0.188665   0.000000   0.000000   0.000000   0.000000
    4  C   1  Y   0.226674   0.000000   0.000000   0.000000   0.000000
    5  C   1  Z   0.000000  -0.343012  -0.019778   0.005871   0.391157
    6  C   2  S   0.009125   0.000000   0.000000   0.000000   0.000000
    7  C   2  S  -0.047360   0.000000   0.000000   0.000000   0.000000
    8  C   2  X   0.188665   0.000000   0.000000   0.000000   0.000000
    9  C   2  Y  -0.226674   0.000000   0.000000   0.000000   0.000000
   10  C   2  Z   0.000000   0.343012  -0.019778  -0.005871  -0.391157
   11  C   3  S   0.009508   0.000000   0.000000   0.000000   0.000000
   12  C   3  S  -0.026275   0.000000   0.000000   0.000000   0.000000
   13  C   3  X   0.145538   0.000000   0.000000   0.000000   0.000000
   14  C   3  Y  -0.159140   0.000000   0.000000   0.000000   0.000000
   15  C   3  Z   0.000000  -0.130433  -0.172362   0.462823   0.216904
   16  C   4  S   0.009508   0.000000   0.000000   0.000000   0.000000
   17  C   4  S  -0.026275   0.000000   0.000000   0.000000   0.000000
   18  C   4  X  -0.145538   0.000000   0.000000   0.000000   0.000000
   19  C   4  Y   0.159140   0.000000   0.000000   0.000000   0.000000
   20  C   4  Z   0.000000   0.130433  -0.172362  -0.462823  -0.216904
   21  C   5  S  -0.003923   0.000000   0.000000   0.000000   0.000000
   22  C   5  S   0.010408   0.000000   0.000000   0.000000   0.000000
   23  C   5  X  -0.173995   0.000000   0.000000   0.000000   0.000000
   24  C   5  Y   0.229248   0.000000   0.000000   0.000000   0.000000
   25  C   5  Z   0.000000   0.132546  -0.169708   0.456869  -0.230968
   26  C   6  S  -0.003923   0.000000   0.000000   0.000000   0.000000
   27  C   6  S   0.010408   0.000000   0.000000   0.000000   0.000000
   28  C   6  X   0.173995   0.000000   0.000000   0.000000   0.000000
   29  C   6  Y  -0.229248   0.000000   0.000000   0.000000   0.000000
   30  C   6  Z   0.000000  -0.132546  -0.169708  -0.456869   0.230968
   31  H   7  S   0.232885   0.000000   0.000000   0.000000   0.000000
   32  H   8  S   0.232885   0.000000   0.000000   0.000000   0.000000
   33  H   9  S  -0.053242   0.000000   0.000000   0.000000   0.000000
   34  H  10  S  -0.053242   0.000000   0.000000   0.000000   0.000000
   35  C  11  S   0.017623   0.000000   0.000000   0.000000   0.000000
   36  C  11  S  -0.066700   0.000000   0.000000   0.000000   0.000000
   37  C  11  X  -0.197073   0.000000   0.000000   0.000000   0.000000
   38  C  11  Y   0.145159   0.000000   0.000000   0.000000   0.000000
   39  C  11  Z   0.000000   0.374673   0.413815  -0.001705   0.223257
   40  C  12  S   0.017623   0.000000   0.000000   0.000000   0.000000
   41  C  12  S  -0.066700   0.000000   0.000000   0.000000   0.000000
   42  C  12  X   0.197073   0.000000   0.000000   0.000000   0.000000
   43  C  12  Y  -0.145159   0.000000   0.000000   0.000000   0.000000
   44  C  12  Z   0.000000  -0.374673   0.413815   0.001705  -0.223257
   45  H  13  S   0.194552   0.000000   0.000000   0.000000   0.000000
   46  H  14  S   0.194552   0.000000   0.000000   0.000000   0.000000
   47  C  15  S   0.001132   0.000000   0.000000   0.000000   0.000000
   48  C  15  S  -0.009257   0.000000   0.000000   0.000000   0.000000
   49  C  15  X   0.091331   0.000000   0.000000   0.000000   0.000000
   50  C  15  Y  -0.096493   0.000000   0.000000   0.000000   0.000000
   51  C  15  Z   0.000000   0.275782   0.418693   0.008475   0.389095
   52  C  16  S   0.001132   0.000000   0.000000   0.000000   0.000000
   53  C  16  S  -0.009257   0.000000   0.000000   0.000000   0.000000
   54  C  16  X  -0.091331   0.000000   0.000000   0.000000   0.000000
   55  C  16  Y   0.096493   0.000000   0.000000   0.000000   0.000000
   56  C  16  Z   0.000000  -0.275782   0.418693  -0.008475  -0.389095
   57  H  17  S   0.132089   0.000000   0.000000   0.000000   0.000000
   58  H  18  S   0.132089   0.000000   0.000000   0.000000   0.000000
   59  H  19  S  -0.138201   0.000000   0.000000   0.000000   0.000000
   60  H  20  S  -0.138201   0.000000   0.000000   0.000000   0.000000

                     36         37         38         39         40
                    0.0428     0.0936     0.1178     0.1891     0.2850
                     AU         AU         BG         AU         BG  
    1  C   1  S   0.000000   0.000000   0.000000   0.000000   0.000000
    2  C   1  S   0.000000   0.000000   0.000000   0.000000   0.000000
    3  C   1  X   0.000000   0.000000   0.000000   0.000000   0.000000
    4  C   1  Y   0.000000   0.000000   0.000000   0.000000   0.000000
    5  C   1  Z   0.451034  -0.035096   0.026311  -0.496135   0.549812
    6  C   2  S   0.000000   0.000000   0.000000   0.000000   0.000000
    7  C   2  S   0.000000   0.000000   0.000000   0.000000   0.000000
    8  C   2  X   0.000000   0.000000   0.000000   0.000000   0.000000
    9  C   2  Y   0.000000   0.000000   0.000000   0.000000   0.000000
   10  C   2  Z   0.451034  -0.035096  -0.026311  -0.496135  -0.549812
   11  C   3  S   0.000000   0.000000   0.000000   0.000000   0.000000
   12  C   3  S   0.000000   0.000000   0.000000   0.000000   0.000000
   13  C   3  X   0.000000   0.000000   0.000000   0.000000   0.000000
   14  C   3  Y   0.000000   0.000000   0.000000   0.000000   0.000000
   15  C   3  Z  -0.232810   0.587764  -0.235996   0.167489  -0.472346
   16  C   4  S   0.000000   0.000000   0.000000   0.000000   0.000000
   17  C   4  S   0.000000   0.000000   0.000000   0.000000   0.000000
   18  C   4  X   0.000000   0.000000   0.000000   0.000000   0.000000
   19  C   4  Y   0.000000   0.000000   0.000000   0.000000   0.000000
   20  C   4  Z  -0.232810   0.587764   0.235996   0.167489   0.472346
   21  C   5  S   0.000000   0.000000   0.000000   0.000000   0.000000
   22  C   5  S   0.000000   0.000000   0.000000   0.000000   0.000000
   23  C   5  X   0.000000   0.000000   0.000000   0.000000   0.000000
   24  C   5  Y   0.000000   0.000000   0.000000   0.000000   0.000000
   25  C   5  Z  -0.283702  -0.554952   0.227018   0.202076   0.475303
   26  C   6  S   0.000000   0.000000   0.000000   0.000000   0.000000
   27  C   6  S   0.000000   0.000000   0.000000   0.000000   0.000000
   28  C   6  X   0.000000   0.000000   0.000000   0.000000   0.000000
   29  C   6  Y   0.000000   0.000000   0.000000   0.000000   0.000000
   30  C   6  Z  -0.283702  -0.554952  -0.227018   0.202076  -0.475303
   31  H   7  S   0.000000   0.000000   0.000000   0.000000   0.000000
   32  H   8  S   0.000000   0.000000   0.000000   0.000000   0.000000
   33  H   9  S   0.000000   0.000000   0.000000   0.000000   0.000000
   34  H  10  S   0.000000   0.000000   0.000000   0.000000   0.000000
   35  C  11  S   0.000000   0.000000   0.000000   0.000000   0.000000
   36  C  11  S   0.000000   0.000000   0.000000   0.000000   0.000000
   37  C  11  X   0.000000   0.000000   0.000000   0.000000   0.000000
   38  C  11  Y   0.000000   0.000000   0.000000   0.000000   0.000000
   39  C  11  Z   0.260031   0.003308  -0.529753   0.533086   0.283249
   40  C  12  S   0.000000   0.000000   0.000000   0.000000   0.000000
   41  C  12  S   0.000000   0.000000   0.000000   0.000000   0.000000
   42  C  12  X   0.000000   0.000000   0.000000   0.000000   0.000000
   43  C  12  Y   0.000000   0.000000   0.000000   0.000000   0.000000
   44  C  12  Z   0.260031   0.003308   0.529753   0.533086  -0.283249
   45  H  13  S   0.000000   0.000000   0.000000   0.000000   0.000000
   46  H  14  S   0.000000   0.000000   0.000000   0.000000   0.000000
   47  C  15  S   0.000000   0.000000   0.000000   0.000000   0.000000
   48  C  15  S   0.000000   0.000000   0.000000   0.000000   0.000000
   49  C  15  X   0.000000   0.000000   0.000000   0.000000   0.000000
   50  C  15  Y   0.000000   0.000000   0.000000   0.000000   0.000000
   51  C  15  Z  -0.445005   0.011987   0.530528  -0.389511  -0.155951
   52  C  16  S   0.000000   0.000000   0.000000   0.000000   0.000000
   53  C  16  S   0.000000   0.000000   0.000000   0.000000   0.000000
   54  C  16  X   0.000000   0.000000   0.000000   0.000000   0.000000
   55  C  16  Y   0.000000   0.000000   0.000000   0.000000   0.000000
   56  C  16  Z  -0.445005   0.011987  -0.530528  -0.389511   0.155951
   57  H  17  S   0.000000   0.000000   0.000000   0.000000   0.000000
   58  H  18  S   0.000000   0.000000   0.000000   0.000000   0.000000
   59  H  19  S   0.000000   0.000000   0.000000   0.000000   0.000000
   60  H  20  S   0.000000   0.000000   0.000000   0.000000   0.000000

                     41         42         43         44         45
                    0.3360     0.3472     0.3859     0.3939     0.4322
                     AG         BU         BU         AG         AG  
    1  C   1  S  -0.070227  -0.041813  -0.050936   0.017430   0.051112
    2  C   1  S   0.416277   0.245625   0.294537  -0.107415  -0.313024
    3  C   1  X   0.293574   0.214539   0.453453   0.073261  -0.164462
    4  C   1  Y  -0.082354  -0.262211   0.146313   0.085376  -0.237829
    5  C   1  Z   0.000000   0.000000   0.000000   0.000000   0.000000
    6  C   2  S  -0.070227   0.041813   0.050936   0.017430   0.051112
    7  C   2  S   0.416277  -0.245625  -0.294537  -0.107415  -0.313024
    8  C   2  X  -0.293574   0.214539   0.453453  -0.073261   0.164462
    9  C   2  Y   0.082354  -0.262211   0.146313  -0.085376   0.237829
   10  C   2  Z   0.000000   0.000000   0.000000   0.000000   0.000000
   11  C   3  S  -0.029355   0.007375   0.021688  -0.061253   0.063849
   12  C   3  S   0.182602  -0.038335  -0.134129   0.381584  -0.399298
   13  C   3  X   0.042647   0.049346   0.243132   0.126334   0.159861
   14  C   3  Y  -0.294143  -0.332668   0.193137  -0.027689   0.021792
   15  C   3  Z   0.000000   0.000000   0.000000   0.000000   0.000000
   16  C   4  S  -0.029355  -0.007375  -0.021688  -0.061253   0.063849
   17  C   4  S   0.182602   0.038335   0.134129   0.381584  -0.399298
   18  C   4  X  -0.042647   0.049346   0.243132  -0.126334  -0.159861
   19  C   4  Y   0.294143  -0.332668   0.193137   0.027689  -0.021792
   20  C   4  Z   0.000000   0.000000   0.000000   0.000000   0.000000
   21  C   5  S  -0.041966  -0.015783  -0.001417  -0.025645  -0.096771
   22  C   5  S   0.257532   0.095245   0.001797   0.165072   0.604994
   23  C   5  X  -0.111881   0.051321   0.324229  -0.209014  -0.010829
   24  C   5  Y  -0.190715  -0.241822   0.311486  -0.196156   0.026515
   25  C   5  Z   0.000000   0.000000   0.000000   0.000000   0.000000
   26  C   6  S  -0.041966   0.015783   0.001417  -0.025645  -0.096771
   27  C   6  S   0.257532  -0.095245  -0.001797   0.165072   0.604994
   28  C   6  X   0.111881   0.051321   0.324229   0.209014   0.010829
   29  C   6  Y   0.190715  -0.241822   0.311486   0.196156  -0.026515
   30  C   6  Z   0.000000   0.000000   0.000000   0.000000   0.000000
   31  H   7  S  -0.409196  -0.312943   0.157528  -0.309555   0.181980
   32  H   8  S  -0.409196   0.312943  -0.157528  -0.309555   0.181980
   33  H   9  S  -0.403704  -0.205920   0.464139  -0.335046  -0.232087
   34  H  10  S  -0.403704   0.205920  -0.464139  -0.335046  -0.232087
   35  C  11  S   0.047861  -0.005247  -0.092070   0.065602  -0.029965
   36  C  11  S  -0.270286   0.026573   0.542856  -0.399922   0.195162
   37  C  11  X  -0.364011   0.273964   0.322110   0.049586   0.222706
   38  C  11  Y   0.252055  -0.347385   0.006177  -0.325860   0.165048
   39  C  11  Z   0.000000   0.000000   0.000000   0.000000   0.000000
   40  C  12  S   0.047861   0.005247   0.092070   0.065602  -0.029965
   41  C  12  S  -0.270286  -0.026573  -0.542856  -0.399922   0.195162
   42  C  12  X   0.364011   0.273964   0.322110  -0.049586  -0.222706
   43  C  12  Y  -0.252055  -0.347385   0.006177   0.325860  -0.165048
   44  C  12  Z   0.000000   0.000000   0.000000   0.000000   0.000000
   45  H  13  S  -0.167296   0.412133  -0.224210   0.575787  -0.209537
   46  H  14  S  -0.167296  -0.412133   0.224210   0.575787  -0.209537
   47  C  15  S  -0.033183   0.006639   0.039001  -0.021288  -0.106961
   48  C  15  S   0.191875  -0.042423  -0.224874   0.119325   0.686078
   49  C  15  X  -0.156221   0.184240   0.098693   0.239696  -0.119536
   50  C  15  Y   0.160991  -0.315129  -0.056015  -0.308577  -0.247113
   51  C  15  Z   0.000000   0.000000   0.000000   0.000000   0.000000
   52  C  16  S  -0.033183  -0.006639  -0.039001  -0.021288  -0.106961
   53  C  16  S   0.191875   0.042423   0.224874   0.119325   0.686078
   54  C  16  X   0.156221   0.184240   0.098693  -0.239696   0.119536
   55  C  16  Y  -0.160991  -0.315129  -0.056015   0.308577   0.247113
   56  C  16  Z   0.000000   0.000000   0.000000   0.000000   0.000000
   57  H  17  S   0.158169  -0.338617   0.001615  -0.396570  -0.529254
   58  H  18  S   0.158169   0.338617  -0.001615  -0.396570  -0.529254
   59  H  19  S  -0.355485   0.328529   0.260881   0.252044  -0.369613
   60  H  20  S  -0.355485  -0.328529  -0.260881   0.252044  -0.369613

                     46         47         48         49         50
                    0.4334     0.4408     0.4642     0.4768     0.5028
                     BU         BU         AG         BU         AG  
    1  C   1  S  -0.065880  -0.039152  -0.123803   0.070913   0.037835
    2  C   1  S   0.390631   0.244848   0.767129  -0.431794  -0.240936
    3  C   1  X   0.080707  -0.203128   0.014356   0.082666   0.046258
    4  C   1  Y   0.074258   0.161356   0.020086   0.114261   0.374861
    5  C   1  Z   0.000000   0.000000   0.000000   0.000000   0.000000
    6  C   2  S   0.065880   0.039152  -0.123803  -0.070913   0.037835
    7  C   2  S  -0.390631  -0.244848   0.767129   0.431794  -0.240936
    8  C   2  X   0.080707  -0.203128  -0.014356   0.082666  -0.046258
    9  C   2  Y   0.074258   0.161356  -0.020086   0.114261  -0.374861
   10  C   2  Z   0.000000   0.000000   0.000000   0.000000   0.000000
   11  C   3  S   0.049381   0.070513   0.076437  -0.064813  -0.122081
   12  C   3  S  -0.294972  -0.440218  -0.489143   0.401450   0.791498
   13  C   3  X   0.095502  -0.289534  -0.274896   0.133408  -0.116848
   14  C   3  Y   0.014371   0.357004   0.054543   0.108730   0.075575
   15  C   3  Z   0.000000   0.000000   0.000000   0.000000   0.000000
   16  C   4  S  -0.049381  -0.070513   0.076437   0.064813  -0.122081
   17  C   4  S   0.294972   0.440218  -0.489143  -0.401450   0.791498
   18  C   4  X   0.095502  -0.289534   0.274896   0.133408   0.116848
   19  C   4  Y   0.014371   0.357004  -0.054543   0.108730  -0.075575
   20  C   4  Z   0.000000   0.000000   0.000000   0.000000   0.000000
   21  C   5  S  -0.089583  -0.029918   0.064895   0.074670   0.102796
   22  C   5  S   0.556923   0.174259  -0.416010  -0.467100  -0.667732
   23  C   5  X  -0.111757  -0.147803   0.246081   0.159739  -0.201541
   24  C   5  Y  -0.077119   0.215618  -0.212111   0.153771   0.130895
   25  C   5  Z   0.000000   0.000000   0.000000   0.000000   0.000000
   26  C   6  S   0.089583   0.029918   0.064895  -0.074670   0.102796
   27  C   6  S  -0.556923  -0.174259  -0.416010   0.467100  -0.667732
   28  C   6  X  -0.111757  -0.147803  -0.246081   0.159739   0.201541
   29  C   6  Y  -0.077119   0.215618   0.212111   0.153771  -0.130895
   30  C   6  Z   0.000000   0.000000   0.000000   0.000000   0.000000
   31  H   7  S   0.132509   0.671572   0.340640  -0.136602  -0.269597
   32  H   8  S  -0.132509  -0.671572   0.340640   0.136602  -0.269597
   33  H   9  S  -0.352849  -0.019283   0.207527   0.493408   0.333494
   34  H  10  S   0.352849   0.019283   0.207527  -0.493408   0.333494
   35  C  11  S  -0.053809   0.059504   0.094239   0.072615  -0.032056
   36  C  11  S   0.348976  -0.377772  -0.578302  -0.446089   0.230609
   37  C  11  X   0.170489   0.003033  -0.100898   0.071638   0.065340
   38  C  11  Y   0.222704  -0.170517  -0.126787  -0.069451   0.011365
   39  C  11  Z   0.000000   0.000000   0.000000   0.000000   0.000000
   40  C  12  S   0.053809  -0.059504   0.094239  -0.072615  -0.032056
   41  C  12  S  -0.348976   0.377772  -0.578302   0.446089   0.230609
   42  C  12  X   0.170489   0.003033   0.100898   0.071638  -0.065340
   43  C  12  Y   0.222704  -0.170517   0.126787  -0.069451  -0.011365
   44  C  12  Z   0.000000   0.000000   0.000000   0.000000   0.000000
   45  H  13  S  -0.318587   0.376273   0.376508   0.299590  -0.060789
   46  H  14  S   0.318587  -0.376273   0.376508  -0.299590  -0.060789
   47  C  15  S  -0.094716  -0.013059  -0.071965  -0.109683  -0.054605
   48  C  15  S   0.610502   0.075434   0.446081   0.700737   0.358183
   49  C  15  X  -0.233342   0.251177  -0.086729  -0.074910  -0.374914
   50  C  15  Y  -0.232385  -0.154565  -0.004414  -0.127306  -0.130865
   51  C  15  Z   0.000000   0.000000   0.000000   0.000000   0.000000
   52  C  16  S   0.094716   0.013059  -0.071965   0.109683  -0.054605
   53  C  16  S  -0.610502  -0.075434   0.446081  -0.700737   0.358183
   54  C  16  X  -0.233342   0.251177   0.086729  -0.074910   0.374914
   55  C  16  Y  -0.232385  -0.154565   0.004414  -0.127306   0.130865
   56  C  16  Z   0.000000   0.000000   0.000000   0.000000   0.000000
   57  H  17  S  -0.444428  -0.235567  -0.226390  -0.491151  -0.267632
   58  H  18  S   0.444428   0.235567  -0.226390   0.491151  -0.267632
   59  H  19  S  -0.439703   0.225922  -0.303443  -0.365335  -0.438604
   60  H  20  S   0.439703  -0.225922  -0.303443   0.365335  -0.438604

                     51         52         53         54         55
                    0.5501     0.5719     0.5980     0.6259     0.6507
                     AG         BU         AG         BU         BU  
    1  C   1  S   0.080795   0.006879   0.004009   0.061194  -0.085529
    2  C   1  S  -0.552374  -0.032786  -0.035671  -0.436799   0.593331
    3  C   1  X   0.610023   0.067835   0.093381  -0.010123   0.071161
    4  C   1  Y  -0.117619   0.569699  -0.211327   0.281113   0.260658
    5  C   1  Z   0.000000   0.000000   0.000000   0.000000   0.000000
    6  C   2  S   0.080795  -0.006879   0.004009  -0.061194   0.085529
    7  C   2  S  -0.552374   0.032786  -0.035671   0.436799  -0.593331
    8  C   2  X  -0.610023   0.067835  -0.093381  -0.010123   0.071161
    9  C   2  Y   0.117619   0.569699   0.211327   0.281113   0.260658
   10  C   2  Z   0.000000   0.000000   0.000000   0.000000   0.000000
   11  C   3  S  -0.018374  -0.101988   0.005727   0.034371  -0.011419
   12  C   3  S   0.125674   0.702058  -0.046911  -0.239251   0.096314
   13  C   3  X   0.167111   0.104156   0.248174   0.747901  -0.071935
   14  C   3  Y   0.504218  -0.020317  -0.518116   0.232412  -0.210431
   15  C   3  Z   0.000000   0.000000   0.000000   0.000000   0.000000
   16  C   4  S  -0.018374   0.101988   0.005727  -0.034371   0.011419
   17  C   4  S   0.125674  -0.702058  -0.046911   0.239251  -0.096314
   18  C   4  X  -0.167111   0.104156  -0.248174   0.747901  -0.071935
   19  C   4  Y  -0.504218  -0.020317   0.518116   0.232412  -0.210431
   20  C   4  Z   0.000000   0.000000   0.000000   0.000000   0.000000
   21  C   5  S  -0.054979  -0.028984  -0.009037  -0.089684  -0.038931
   22  C   5  S   0.366735   0.213079   0.071310   0.634985   0.266401
   23  C   5  X  -0.022734  -0.484351   0.434748   0.392243  -0.222930
   24  C   5  Y   0.319057   0.206645   0.552448  -0.336089   0.352433
   25  C   5  Z   0.000000   0.000000   0.000000   0.000000   0.000000
   26  C   6  S  -0.054979   0.028984  -0.009037   0.089684   0.038931
   27  C   6  S   0.366735  -0.213079   0.071310  -0.634985  -0.266401
   28  C   6  X   0.022734  -0.484351  -0.434748   0.392243  -0.222930
   29  C   6  Y  -0.319057   0.206645  -0.552448  -0.336089   0.352433
   30  C   6  Z   0.000000   0.000000   0.000000   0.000000   0.000000
   31  H   7  S   0.270439  -0.326224  -0.444894   0.078520  -0.125671
   32  H   8  S   0.270439   0.326224  -0.444894  -0.078520   0.125671
   33  H   9  S   0.013586  -0.178576   0.534857  -0.275267  -0.033832
   34  H  10  S   0.013586   0.178576   0.534857   0.275267   0.033832
   35  C  11  S   0.063701   0.024315   0.052466   0.059795   0.025412
   36  C  11  S  -0.425263  -0.184838  -0.367319  -0.421313  -0.202568
   37  C  11  X   0.009252   0.028276   0.126766   0.039501   0.479523
   38  C  11  Y  -0.163354   0.286669   0.086160  -0.058342  -0.335807
   39  C  11  Z   0.000000   0.000000   0.000000   0.000000   0.000000
   40  C  12  S   0.063701  -0.024315   0.052466  -0.059795  -0.025412
   41  C  12  S  -0.425263   0.184838  -0.367319   0.421313   0.202568
   42  C  12  X  -0.009252   0.028276  -0.126766   0.039501   0.479523
   43  C  12  Y   0.163354   0.286669  -0.086160  -0.058342  -0.335807
   44  C  12  Z   0.000000   0.000000   0.000000   0.000000   0.000000
   45  H  13  S   0.283650  -0.173390   0.117073   0.229934   0.375258
   46  H  14  S   0.283650   0.173390   0.117073  -0.229934  -0.375258
   47  C  15  S  -0.016641  -0.012122  -0.041303  -0.007416  -0.018024
   48  C  15  S   0.104919   0.096156   0.288119   0.048302   0.132659
   49  C  15  X  -0.145228   0.479696   0.228154   0.122101  -0.242163
   50  C  15  Y   0.307031  -0.051825   0.077340   0.228976   0.538138
   51  C  15  Z   0.000000   0.000000   0.000000   0.000000   0.000000
   52  C  16  S  -0.016641   0.012122  -0.041303   0.007416   0.018024
   53  C  16  S   0.104919  -0.096156   0.288119  -0.048302  -0.132659
   54  C  16  X   0.145228   0.479696  -0.228154   0.122101  -0.242163
   55  C  16  Y  -0.307031  -0.051825  -0.077340   0.228976   0.538138
   56  C  16  Z   0.000000   0.000000   0.000000   0.000000   0.000000
   57  H  17  S   0.214232  -0.132681  -0.133989   0.175965   0.371978
   58  H  18  S   0.214232   0.132681  -0.133989  -0.175965  -0.371978
   59  H  19  S  -0.245943   0.348616   0.037315   0.011376  -0.345385
   60  H  20  S  -0.245943  -0.348616   0.037315  -0.011376   0.345385

                     56         57         58         59         60
                    0.6623     0.7147     0.7558     0.8162     0.8307
                     AG         AG         BU         AG         BU  
    1  C   1  S  -0.014680   0.011469  -0.022149   0.004731   0.052717
    2  C   1  S   0.084841  -0.072126   0.161014  -0.031530  -0.406758
    3  C   1  X   0.407439  -0.320218  -0.146963   0.051336   0.666148
    4  C   1  Y  -0.112541  -0.191755  -0.437261   0.712995  -0.171705
    5  C   1  Z   0.000000   0.000000   0.000000   0.000000   0.000000
[...]
    9            -0.000486  -0.000142  -0.000187   0.000000   0.000000
   10            -0.000486  -0.000142  -0.000187   0.000000   0.000000
   11             0.000012   0.000021   0.000288  -0.001109  -0.001109
   12             0.000012   0.000021   0.000288  -0.001109  -0.001109
   13             0.000000   0.000000  -0.000001   0.000001   0.000001
   14             0.000000   0.000000  -0.000001   0.000001   0.000001
   15             0.000000   0.000000   0.000001   1.002434   1.002433
   16             0.000000   0.000000   0.000001   1.002434   1.002433
   17             0.000000   0.000000   0.000000  -0.000664  -0.000664
   18             0.000000   0.000000   0.000000  -0.000664  -0.000664
   19             0.000000   0.000000   0.000000  -0.000665  -0.000665
   20             0.000000   0.000000   0.000000  -0.000665  -0.000665

                     11         12         13         14         15

                  2.000000   2.000000   2.000000   2.000000   2.000000

    1             0.316179   0.262559   0.058548   0.101611   0.233677
    2             0.316179   0.262559   0.058548   0.101611   0.233677
    3             0.277945   0.065483   0.052211   0.413123   0.092936
    4             0.277945   0.065483   0.052211   0.413123   0.092936
    5             0.277193   0.073922   0.047485   0.354626   0.148057
    6             0.277193   0.073922   0.047485   0.354626   0.148057
    7             0.017566   0.005623   0.002769   0.063731   0.005966
    8             0.017566   0.005623   0.002769   0.063731   0.005966
    9             0.017645   0.007505   0.001152   0.052923   0.016350
   10             0.017645   0.007505   0.001152   0.052923   0.016350
   11             0.066888   0.323636   0.362503   0.006144   0.153504
   12             0.066888   0.323636   0.362503   0.006144   0.153504
   13             0.005461   0.034839   0.040557   0.000816   0.008236
   14             0.005461   0.034839   0.040557   0.000816   0.008236
   15             0.018517   0.192137   0.357812   0.004961   0.262464
   16             0.018517   0.192137   0.357812   0.004961   0.262464
   17             0.001726   0.018912   0.037684   0.001562   0.032450
   18             0.001726   0.018912   0.037684   0.001562   0.032450
   19             0.000879   0.015386   0.039278   0.000502   0.046360
   20             0.000879   0.015386   0.039278   0.000502   0.046360

                     16         17         18         19         20

                  2.000000   2.000000   2.000000   2.000000   2.000000

    1             0.200538   0.230739   0.084606   0.126474   0.091431
    2             0.200538   0.230739   0.084606   0.126474   0.091431
    3             0.136928   0.275307   0.043602   0.172292   0.140377
    4             0.136928   0.275307   0.043602   0.172292   0.140377
    5             0.161330   0.226998   0.045186   0.238616   0.090685
    6             0.161330   0.226998   0.045186   0.238616   0.090685
    7             0.003315   0.124717   0.007849   0.041414   0.058606
    8             0.003315   0.124717   0.007849   0.041414   0.058606
    9             0.057661   0.023684   0.010794   0.116856   0.025553
   10             0.057661   0.023684   0.010794   0.116856   0.025553
   11             0.170678   0.043022   0.260260   0.078298   0.204988
   12             0.170678   0.043022   0.260260   0.078298   0.204988
   13             0.032897   0.004477   0.122435   0.043961   0.080380
   14             0.032897   0.004477   0.122435   0.043961   0.080380
   15             0.145753   0.046084   0.247903   0.109995   0.190002
   16             0.145753   0.046084   0.247903   0.109995   0.190002
   17             0.049103   0.002519   0.112399   0.033476   0.117267
   18             0.049103   0.002519   0.112399   0.033476   0.117267
   19             0.041796   0.022453   0.064967   0.038619   0.000710
   20             0.041796   0.022453   0.064967   0.038619   0.000710

                     21         22         23         24         25

                  2.000000   2.000000   2.000000   2.000000   2.000000

    1             0.130581   0.113282   0.214186   0.008637   0.041156
    2             0.130581   0.113282   0.214186   0.008637   0.041156
    3             0.127052   0.220081   0.045403   0.028495   0.353091
    4             0.127052   0.220081   0.045403   0.028495   0.353091
    5             0.097246   0.182384   0.215112   0.067983   0.255849
    6             0.097246   0.182384   0.215112   0.067983   0.255849
    7             0.022863   0.161336   0.008644   0.000119   0.175035
    8             0.022863   0.161336   0.008644   0.000119   0.175035
    9             0.007235   0.152061   0.066393   0.035428   0.130247
   10             0.007235   0.152061   0.066393   0.035428   0.130247
   11             0.208027   0.063118   0.097816   0.224897   0.015218
   12             0.208027   0.063118   0.097816   0.224897   0.015218
   13             0.073373   0.003135   0.000291   0.066118   0.000072
   14             0.073373   0.003135   0.000291   0.066118   0.000072
   15             0.206334   0.073285   0.199674   0.366123   0.020617
   16             0.206334   0.073285   0.199674   0.366123   0.020617
   17             0.012574   0.012345   0.128069   0.000697   0.008518
   18             0.012574   0.012345   0.128069   0.000697   0.008518
   19             0.114714   0.018974   0.024414   0.201504   0.000197
   20             0.114714   0.018974   0.024414   0.201504   0.000197

                     26         27         28         29         30

                  2.000000   2.000000   2.000000   2.000000   2.000000

    1             0.154521   0.029826   0.342673   0.174504   0.235101
    2             0.154521   0.029826   0.342673   0.174504   0.235101
    3             0.165455   0.102562   0.272932   0.015349   0.235835
    4             0.165455   0.102562   0.272932   0.015349   0.235835
    5             0.124005   0.069727   0.271846   0.046647   0.163221
    6             0.124005   0.069727   0.271846   0.046647   0.163221
    7             0.001198   0.062425   0.000000   0.004107   0.031231
    8             0.001198   0.062425   0.000000   0.004107   0.031231
    9             0.007117   0.000014   0.000000   0.004572   0.179904
   10             0.007117   0.000014   0.000000   0.004572   0.179904
   11             0.208304   0.148257   0.087314   0.199993   0.091237
   12             0.208304   0.148257   0.087314   0.199993   0.091237
   13             0.062024   0.101609   0.000000   0.155162   0.000000
   14             0.062024   0.101609   0.000000   0.155162   0.000000
   15             0.205579   0.255121   0.025234   0.162982   0.042104
   16             0.205579   0.255121   0.025234   0.162982   0.042104
   17             0.009191   0.179643   0.000000   0.124955   0.000513
   18             0.009191   0.179643   0.000000   0.124955   0.000513
   19             0.062606   0.050816   0.000000   0.111728   0.020853
   20             0.062606   0.050816   0.000000   0.111728   0.020853

                     31         32         33         34         35

                  2.000000   2.000000   2.000000   2.000000   2.000000

    1             0.202689   0.316932   0.000781   0.000079   0.332102
    2             0.202689   0.316932   0.000781   0.000079   0.332102
    3             0.113009   0.045948   0.072963   0.506247   0.103652
    4             0.113009   0.045948   0.072963   0.506247   0.103652
    5             0.191519   0.047527   0.070823   0.493498   0.117645
    6             0.191519   0.047527   0.070823   0.493498   0.117645
    7             0.122304   0.000000   0.000000   0.000000   0.000000
    8             0.122304   0.000000   0.000000   0.000000   0.000000
    9             0.006069   0.000000   0.000000   0.000000   0.000000
   10             0.006069   0.000000   0.000000   0.000000   0.000000
   11             0.153434   0.381840   0.419851   0.000006   0.107824
   12             0.153434   0.381840   0.419851   0.000006   0.107824
   13             0.085662   0.000000   0.000000   0.000000   0.000000
   14             0.085662   0.000000   0.000000   0.000000   0.000000
   15             0.044974   0.207754   0.435583   0.000169   0.338776
   16             0.044974   0.207754   0.435583   0.000169   0.338776
   17             0.038232   0.000000   0.000000   0.000000   0.000000
   18             0.038232   0.000000   0.000000   0.000000   0.000000
   19             0.042108   0.000000   0.000000   0.000000   0.000000
   20             0.042108   0.000000   0.000000   0.000000   0.000000

               ----- POPULATIONS IN EACH AO -----
                             MULLIKEN      LOWDIN
              1  C   1  S     1.99056     1.98501
              2  C   1  S     1.13044     1.03041
              3  C   1  X     0.93588     0.98122
              4  C   1  Y     0.95401     1.00656
              5  C   1  Z     1.01004     1.00917
              6  C   2  S     1.99056     1.98501
              7  C   2  S     1.13044     1.03041
              8  C   2  X     0.93588     0.98122
              9  C   2  Y     0.95401     1.00656
             10  C   2  Z     1.01004     1.00917
             11  C   3  S     1.99071     1.98555
             12  C   3  S     1.14361     1.02823
             13  C   3  X     0.96016     1.01336
             14  C   3  Y     0.98332     1.01658
             15  C   3  Z     0.89569     0.89601
             16  C   4  S     1.99071     1.98555
             17  C   4  S     1.14361     1.02823
             18  C   4  X     0.96016     1.01336
             19  C   4  Y     0.98332     1.01658
             20  C   4  Z     0.89569     0.89601
             21  C   5  S     1.99068     1.98550
             22  C   5  S     1.14144     1.02581
             23  C   5  X     0.97118     1.01731
             24  C   5  Y     0.97583     1.01601
             25  C   5  Z     1.05224     1.05256
             26  C   6  S     1.99068     1.98550
             27  C   6  S     1.14144     1.02581
             28  C   6  X     0.97118     1.01731
             29  C   6  Y     0.97583     1.01601
             30  C   6  Z     1.05224     1.05256
             31  H   7  S     0.91947     0.95651
             32  H   8  S     0.91947     0.95651
             33  H   9  S     0.91785     0.95473
             34  H  10  S     0.91785     0.95473
             35  C  11  S     1.99084     1.98566
             36  C  11  S     1.14958     1.03288
             37  C  11  X     0.94280     0.99344
             38  C  11  Y     0.99833     1.03122
             39  C  11  Z     1.00947     1.00895
             40  C  12  S     1.99084     1.98566
             41  C  12  S     1.14958     1.03288
             42  C  12  X     0.94280     0.99344
             43  C  12  Y     0.99833     1.03122
             44  C  12  Z     1.00947     1.00895
             45  H  13  S     0.92018     0.95724
             46  H  14  S     0.92018     0.95724
             47  C  15  S     1.99091     1.98600
             48  C  15  S     1.16233     1.02931
             49  C  15  X     0.99920     1.03698
             50  C  15  Y     1.00262     1.03662
             51  C  15  Z     1.03255     1.03331
             52  C  16  S     1.99091     1.98600
             53  C  16  S     1.16233     1.02931
             54  C  16  X     0.99920     1.03698
             55  C  16  Y     1.00262     1.03662
             56  C  16  Z     1.03255     1.03331
             57  H  17  S     0.92052     0.95483
             58  H  18  S     0.92052     0.95483
             59  H  19  S     0.91754     0.95302
             60  H  20  S     0.91754     0.95302

          ----- MULLIKEN ATOMIC OVERLAP POPULATIONS -----
          (OFF-DIAGONAL ELEMENTS NEED TO BE MULTIPLIED BY 2)

             1           2           3           4           5

    1    4.8202243
    2   -0.0093680   4.8202243
    3    0.4733174  -0.0280582   4.7585213
    4   -0.0280582   0.4733174  -0.0097547   4.7585213
    5   -0.0314189   0.4709961   0.4773500  -0.0333793   4.9175761
    6    0.4709961  -0.0314189  -0.0333793   0.4773500  -0.0090612
    7   -0.0265511   0.0015310   0.3927159   0.0000520  -0.0264681
    8    0.0015310  -0.0265511   0.0000520   0.3927159   0.0015575
    9    0.0015279  -0.0256276  -0.0265874   0.0015590   0.3925831
   10   -0.0256276   0.0015279   0.0015590  -0.0265874   0.0000435
   11    0.0000217   0.4295120   0.0008380  -0.0296288  -0.0263099
   12    0.4295120   0.0000217  -0.0296288   0.0008380   0.0009054
   13   -0.0000008  -0.0267773  -0.0000200  -0.0042706   0.0011738
   14   -0.0267773  -0.0000008  -0.0042706  -0.0000200   0.0000241
   15   -0.0000005  -0.0258187   0.0000133   0.0008375  -0.0036523
   16   -0.0258187  -0.0000005   0.0008375   0.0000133  -0.0000075
   17   -0.0000003  -0.0040714  -0.0000155   0.0000171  -0.0005560
   18   -0.0040714  -0.0000003   0.0000171  -0.0000155  -0.0000005
   19    0.0000000   0.0015017   0.0000002  -0.0000186   0.0000177
   20    0.0015017   0.0000000  -0.0000186   0.0000002   0.0000001

             6           7           8           9          10

    6    4.9175761
    7    0.0015575   0.5845166
    8   -0.0264681   0.0000025   0.5845166
    9    0.0000435  -0.0044255  -0.0000407   0.5823314
   10    0.3925831  -0.0000407  -0.0044255   0.0000025   0.5823314
   11    0.0009054  -0.0000169  -0.0044794  -0.0034993  -0.0000180
   12   -0.0263099  -0.0044794  -0.0000169  -0.0000180  -0.0034993
   13    0.0000241   0.0000004   0.0010362   0.0000258  -0.0000019
   14    0.0011738   0.0010362   0.0000004  -0.0000019   0.0000258
   15   -0.0000075   0.0000001   0.0000394  -0.0006150   0.0000001
   16   -0.0036523   0.0000394   0.0000001   0.0000001  -0.0006150
   17   -0.0000005   0.0000027   0.0000013   0.0006112   0.0000000
   18   -0.0005560   0.0000013   0.0000027   0.0000000   0.0006112
   19    0.0000001   0.0000000  -0.0000032  -0.0000220   0.0000000
   20    0.0000177  -0.0000032   0.0000000   0.0000000  -0.0000220

            11          12          13          14          15

   11    4.8066877
   12    0.0000001   4.8066877
   13    0.3906273   0.0000000   0.5913891
   14    0.0000000   0.3906273   0.0000000   0.5913891
   15    0.5763221   0.0000000  -0.0293692   0.0000000   4.8881284
   16    0.0000000   0.5763221   0.0000000  -0.0293692   0.0000000
   17   -0.0247662   0.0000000   0.0023416   0.0000000   0.3896348
   18    0.0000000  -0.0247662   0.0000000   0.0023416   0.0000000
   19   -0.0251686   0.0000000  -0.0059992   0.0000000   0.3921030
   20    0.0000000  -0.0251686   0.0000000  -0.0059992   0.0000000

            16          17          18          19          20

   16    4.8881284
   17    0.0000000   0.5818904
   18    0.3896348   0.0000000   0.5818904
   19    0.0000000  -0.0245733   0.0000000   0.5797042
   20    0.3921030   0.0000000  -0.0245733   0.0000000   0.5797042

          TOTAL MULLIKEN AND LOWDIN ATOMIC POPULATIONS
       ATOM         MULL.POP.    CHARGE          LOW.POP.     CHARGE
    1 C             6.020939   -0.020939         6.012376   -0.012376
    2 C             6.020939   -0.020939         6.012376   -0.012376
    3 C             5.973489    0.026511         5.939729    0.060271
    4 C             5.973489    0.026511         5.939729    0.060271
    5 C             6.131374   -0.131374         6.097193   -0.097193
    6 C             6.131374   -0.131374         6.097193   -0.097193
    7 H             0.919471    0.080529         0.956510    0.043490
    8 H             0.919471    0.080529         0.956510    0.043490
    9 H             0.917847    0.082153         0.954732    0.045268
   10 H             0.917847    0.082153         0.954732    0.045268
   11 C             6.091027   -0.091027         6.052154   -0.052154
   12 C             6.091027   -0.091027         6.052154   -0.052154
   13 H             0.920179    0.079821         0.957243    0.042757
   14 H             0.920179    0.079821         0.957243    0.042757
   15 C             6.187616   -0.187616         6.122217   -0.122217
   16 C             6.187616   -0.187616         6.122217   -0.122217
   17 H             0.920516    0.079484         0.954827    0.045173
   18 H             0.920516    0.079484         0.954827    0.045173
   19 H             0.917542    0.082458         0.953019    0.046981
   20 H             0.917542    0.082458         0.953019    0.046981

          -------------------------------
          BOND ORDER AND VALENCE ANALYSIS     BOND ORDER THRESHOLD=0.050
          -------------------------------

                   BOND                       BOND                       BOND
  ATOM PAIR DIST  ORDER      ATOM PAIR DIST  ORDER      ATOM PAIR DIST  ORDER
    1   3  1.396  1.236        1   6  1.395  1.255        1  12  1.496  1.125
    2   4  1.396  1.236        2   5  1.395  1.255        2  11  1.496  1.125
    3   5  1.382  1.261        3   7  1.083  0.962        4   6  1.382  1.261
    4   8  1.083  0.962        5   9  1.081  0.960        6  10  1.081  0.960
   11  13  1.084  0.959       11  15  1.314  1.761       12  14  1.084  0.959
   12  16  1.314  1.761       15  17  1.080  0.966       15  19  1.081  0.969
   16  18  1.080  0.966       16  20  1.081  0.969

                       TOTAL       BONDED        FREE
      ATOM            VALENCE     VALENCE     VALENCE
    1 C                 3.979       3.694       0.285
    2 C                 3.979       3.694       0.285
    3 C                 3.964       3.526       0.438
    4 C                 3.964       3.526       0.438
    5 C                 3.973       3.551       0.422
    6 C                 3.973       3.551       0.422
    7 H                 0.994       0.993       0.000
    8 H                 0.994       0.993       0.000
    9 H                 0.993       0.993       0.000
   10 H                 0.993       0.993       0.000
   11 C                 3.973       3.908       0.064
   12 C                 3.973       3.908       0.064
   13 H                 0.994       0.994       0.000
   14 H                 0.994       0.994       0.000
   15 C                 3.969       3.743       0.226
   16 C                 3.969       3.743       0.226
   17 H                 0.994       0.994       0.000
   18 H                 0.994       0.994       0.000
   19 H                 0.993       0.993       0.000
   20 H                 0.993       0.993       0.000

          ---------------------
          ELECTROSTATIC MOMENTS
          ---------------------

 POINT   1           X           Y           Z (BOHR)    CHARGE
                 0.000000    0.000000    0.000000        0.00 (A.U.)
         DX          DY          DZ         /D/  (DEBYE)
     0.000000    0.000000    0.000000    0.000000
 ...... END OF PROPERTY EVALUATION ......

 CPU        TIME:   STEP =      0.03 ,  TOTAL =      171.1 SECONDS (    2.9 MIN)
 WALL CLOCK TIME:   STEP =      0.01 ,  TOTAL =      165.1 SECONDS (    2.8 MIN)
 CPU UTILIZATION:   STEP =    245.38%,  TOTAL =     103.63%
 ......END OF NBO ANALYSIS......

 CPU        TIME:   STEP =      0.00 ,  TOTAL =      171.1 SECONDS (    2.9 MIN)
 WALL CLOCK TIME:   STEP =      0.00 ,  TOTAL =      165.1 SECONDS (    2.8 MIN)
 CPU UTILIZATION:   STEP =      0.00%,  TOTAL =     103.63%

                         I/O STATISTICS:
 DATA READ TOTAL =     1050.326 MB,  DATA WRITTEN TOTAL =       23.973 MB

      575983 WORDS OF    DYNAMIC MEMORY USED
 EXECUTION OF GAMESS TERMINATED NORMALLY 12:21:39 LT  24-FEB-2007
