19
 energy: -24.265910603492 gnorm: 0.000716061636 xtb: 6.4.1 (unknown)
C         1.21849393805282   -0.14059588231318   -0.09077480025091
C        -0.48794418455855    1.33358248542848   -0.46367646237084
C         0.12498690365069   -0.90664326658172   -0.29495189116012
C         0.81901766831999    1.25928545596840   -0.19911008454486
C        -1.07557348252366   -0.04624843076403   -0.54424920230310
H        -1.08332578306138    2.21932149303108   -0.58984387026013
H         0.07270966953947   -1.98003993985682   -0.27513252504270
H         1.49270063612012    2.08834444241591   -0.08179445015076
H        -1.49723570866636   -0.23639559370328   -1.53677586702846
C         2.55253193197573   -0.63071297804184    0.18159028915443
C        -2.14168567021374   -0.25836038228034    0.49173028694679
H         2.63541877160799   -1.70965413508605    0.23997129189906
H        -1.81638845737764   -0.09521923614392    1.51035989703471
C         3.63258143926512    0.12352476071041    0.35429101402726
C        -3.38446697106003   -0.61242509295570    0.22450463495099
H         3.59884257627629    1.19853740113439    0.30203318015567
H        -3.72707389065602   -0.77698947015187   -0.78469958532132
H         4.59734459852731   -0.31106450359948    0.55332896455445
H        -4.11568066281773   -0.74846891261053    1.00319917970967
