 operating system is UNIX !
 hostname is         mn238.mpi

 dscf(mn238.mpi) : TURBOMOLE V6.1 22 Sep 2009 at 17:26:03
 Copyright (C) 2009 TURBOMOLE GmbH, Karlsruhe


    2010-09-20 16:01:32.320 



                             d s c f - program

                   idea & directorship : reinhart ahlrichs
                   program development : marco haeser
                                         michael baer
                           dft version : oliver treutler


                          quantum chemistry group
                          universitaet  karlsruhe
                                  germany




                          References             
                                                 
          TURBOMOLE:                             
              R. Ahlrichs, M. Baer, M. Haeser, H. Horn, and
              C. Koelmel
              Electronic structure calculations on workstation
              computers: the program system TURBOMOLE
              Chem. Phys. Lett. 162: 165 (1989)
          Density Functional:                              
              O. Treutler and R. Ahlrichs                      
              Efficient Molecular Numerical Integration Schemes
              J. Chem. Phys. 102: 346 (1995)                   
          Parallel Version:                                
              Performance of parallel TURBOMOLE for Density    
              Functional Calculations                          
              M. v. Arnim and R. Ahlrichs                      
              J. Comp. Chem. 19: 1746 (1998)                   
                                         



 UHF mode switched on !

   *************************************************************************
   dvb_un_sp test                                                           
   *************************************************************************




              +--------------------------------------------------+
              | Atomic coordinate, charge and isotop information |
              +--------------------------------------------------+


              atomic coordinates              atom shells charge pseudo isotop
     0.00004914   -0.00008806   -0.01265018    c      3    6.000    0     0
    -0.02295426   -0.00008769    2.73189601    c      3    6.000    0     0
    -1.83679775   -0.00009762    3.74571561    h      1    1.000    0     0
     2.22070223   -0.00010692    4.08245733    c      3    6.000    0     0
     2.19172794   -0.00011724    6.16304955    h      1    1.000    0     0
     4.65264550   -0.00008914    2.80377254    c      3    6.000    0     0
     4.67564567   -0.00008890    0.05921862    c      3    6.000    0     0
     6.48949336   -0.00010015   -0.95459606    h      1    1.000    0     0
     6.94975563   -0.00008108    4.33699128    c      3    6.000    0     0
     6.66753059   -0.00019467    6.40100095    h      1    1.000    0     0
     9.38362516    0.00018173    3.41159348    c      3    6.000    0     0
     9.81955320    0.00038200    1.37589899    h      1    1.000    0     0
    11.00930342    0.00021248    4.71507549    h      1    1.000    0     0
    -2.29705251   -0.00007945   -1.54585719    c      3    6.000    0     0
    -2.01484306   -0.00019266   -3.60986766    h      1    1.000    0     0
    -4.73092704    0.00018090   -0.62046393    c      3    6.000    0     0
    -5.16686344    0.00038010    1.41522830    h      1    1.000    0     0
    -6.35660117    0.00021107   -1.92395038    h      1    1.000    0     0
     2.43198432   -0.00010698   -1.29133459    c      3    6.000    0     0
     2.46096665   -0.00011774   -3.37192531    h      1    1.000    0     0
 

     center of nuclear mass  :    2.32634735   -0.00003090    1.39556238

     center of nuclear charge:    2.32634733   -0.00002611    1.39556242


              +--------------------------------------------------+
              |               basis set information              |
              +--------------------------------------------------+


              we will work with the  1s 3p 5d  7f  9g ... basis set
              ...i.e. with spherical basis functions...


   type   atoms  prim   cont   basis
   ---------------------------------------------------------------------------
    c       10     15      5   sto-3g hondo   [2s1p|6s3p]
    h       10      3      1   sto-3g hondo   [1s|3s]
   ---------------------------------------------------------------------------
   total:   20    180     60
   ---------------------------------------------------------------------------

   total number of primitive shells          :   12
   total number of contracted shells         :   40
   total number of cartesian basis functions :   60
   total number of SCF-basis functions       :   60


 integral neglect threshold       :  0.56E-09
 integral storage threshold THIZE :  0.10E-04
 integral storage threshold THIME :         5


 symmetry group of the molecule :   c1 

 the group has the following generators :
   c1(z)

    1 symmetry operations found

 there are 1 real representations :   a   

 maximum number of shells which are related by symmetry :  1


    mo occupation :
   irrep   mo's   occupied
    a       60       35
 
 number of basis functions   :           60
 number of occupied orbitals :           35
 
  
           ------------------
           density functional
           ------------------
 Becke-3-Parameter hybrid functional: B3-LYP
 exchange:    0.8*LDA + 0.72*B88 + 0.2*HF
 correlation: 0.19*LDA(VWN) + 0.81*LYP
 iterations will be done with small grid
  
 spherical integration : Lebedev's spherical grid
 spherical gridsize    :           3
    i.e. gridpoints    :         302
 value for diffuse not defined
 radial integration    : Chebyshev 2nd kind (scaling 3)
 radial gridsize       :           3
 integration cells     :          20
 partition function    : becke
 partition sharpness   :           3
  

          ------------------------
          nuclear repulsion energy  :   444.591285135    
          ------------------------

 
          -----------------
          -S,T+V- integrals
          -----------------

 1e-integrals will be neglected if expon. factor < 0.556994E-10
 
   Difference densities algorithm switched on.
   The maximal number of linear combinations of
   difference densities is          20 .

 DIIS switched on: error vector is FDS-SDF
 Max. Iterations for DIIS is     :   4
 DIIS matrix (see manual) 
    Scaling factor of diagonals  :  1.200
    threshold for scaling factor :  0.000

 scf convergence criterion : increment of total energy < .1000000D-05
                  and increment of one-electron energy < .1000000D-02

  MOs are in ASCII format !


 reading orbital data $uhfmo_alpha  from file alpha . 

 orbital characterization : scfconv=6
 

 reading orbital data $uhfmo_beta  from file beta . 

 orbital characterization : scfconv=6
 

 DSCF restart information will be dumped onto file alpha

          Overall gridpoints after grid construction =         25858
 
                                              current damping :  0.700
 ITERATION  ENERGY          1e-ENERGY        2e-ENERGY     NORM[dD(SAO)]  TOL
   1  -381.83486827341    -1384.1840243     557.75787085    0.000D+00 0.556D-09
                             Na = 35.000510739          Nb = 34.000500333    
                            Exc =   -46.104020127128     N = 69.001011072    
          max. resid. norm for Fia-block=  2.504D-05 for orbital     24a    alpha
          max. resid. fock norm         =  3.441D-05 for orbital     58a    beta 
          Delta Eig. =     0.0001641213 eV 
 
                                              current damping :  0.700
 ITERATION  ENERGY          1e-ENERGY        2e-ENERGY     NORM[dD(SAO)]  TOL
   2  -381.83486828139    -1384.1840174     557.75786401    0.126D-03 0.352D-09
                             Na = 35.000510722          Nb = 34.000500317    
                            Exc =   -46.104019609041     N = 69.001011039    
          Norm of current diis error: 0.35074E-04
          max. resid. norm for Fia-block=  1.247D-05 for orbital     24a    alpha
          max. resid. fock norm         =  1.546D-05 for orbital     58a    alpha
          Delta Eig. =     0.0000700391 eV 

 ENERGY CONVERGED !

          Overall gridpoints after grid construction =         96258
 
                                              current damping :  0.750
 ITERATION  ENERGY          1e-ENERGY        2e-ENERGY     NORM[dD(SAO)]  TOL
   3  -381.83487448880    -1384.1840221     557.75786245    0.103D-04 0.266D-09
                             Na = 34.999990809          Nb = 33.999994693    
                            Exc =   -46.104025841268     N = 68.999985502    
          max. resid. norm for Fia-block=  5.592D-06 for orbital     24a    alpha
          max. resid. fock norm         =  6.496D-06 for orbital     58a    alpha

 convergence criteria satisfied after  3 iterations


   *************************************************************************
   dvb_un_sp test                                                           
   *************************************************************************


                  ------------------------------------------ 
                 |  total energy      =   -381.83487448880  |
                  ------------------------------------------ 
                 :  kinetic energy    =    374.73078593802  :
                 :  potential energy  =   -756.56566042682  :
                 :  virial theorem    =      1.98139486719  :
                 :  wavefunction norm =      1.00000000000  :
                  .......................................... 


 orbitals $uhfmo_beta  will be written to file beta

 orbitals $uhfmo_alpha  will be written to file alpha
 
 alpha: 

    irrep                 31a         32a         33a         34a         35a   
 eigenvalues H         -0.47570    -0.46573    -0.40741    -0.39213    -0.35411
            eV         -12.9446    -12.6733    -11.0862    -10.6705     -9.6358
 occupation              1.0000      1.0000      1.0000      1.0000      1.0000 

    irrep                 36a         37a         38a         39a         40a   
 eigenvalues H         -0.18634    -0.10035    -0.09666    -0.02740     0.06072
            eV          -5.0705     -2.7306     -2.6303     -0.7455      1.6522
 
 beta:  

    irrep                 30a         31a         32a         33a         34a   
 eigenvalues H         -0.49118    -0.47348    -0.44470    -0.39020    -0.37919
            eV         -13.3658    -12.8842    -12.1009    -10.6181    -10.3184
 occupation              1.0000      1.0000      1.0000      1.0000      1.0000 

    irrep                 35a         36a         37a         38a         39a   
 eigenvalues H         -0.28091    -0.15088    -0.09343    -0.07531    -0.00688
            eV          -7.6440     -4.1058     -2.5424     -2.0493     -0.1873
 

                                             _ _ _ 
  IRREP     alpha occ.     beta occ.      tr(D*D-D)


 a         35.00000000    34.00000000    -0.27215449

   -------------------------------------------------

   sum     35.00000000    34.00000000    -0.27215449

 <S*S>     0.79430898

 
 
 
 ==============================================================================
                           electrostatic moments
 ==============================================================================
 
              nuc           elec       ->  total
 ------------------------------------------------------------------------------
                          charge      
 ------------------------------------------------------------------------------
          70.000000     -69.000000       1.000000
 a-b                                     1.000000
 
 ------------------------------------------------------------------------------
                       dipole moment  
 ------------------------------------------------------------------------------
   x     162.844313    -160.517975       2.326338
   y      -0.001828       0.001865       0.000037
   z      97.689370     -96.293808       1.395562
 
   | dipole moment | =     2.7128 a.u. =     6.8954 debye 
 
 ------------------------------------------------------------------------------
                     quadrupole moment
 ------------------------------------------------------------------------------
  xx    1699.784245   -1703.629880      -3.845635
  yy       0.000001     -42.062529     -42.062528
  zz     549.439224    -576.433405     -26.994180
  xy      -0.004288       0.004374       0.000087
  xz     639.374542    -628.086555      11.287987
  yz      -0.002565       0.002617       0.000052
 
     1/3  trace=     -24.300781
     anisotropy=      38.651993
 
 ==============================================================================
 
 could not remove file twoint


    ------------------------------------------------------------------------
         total  cpu-time :   2.64 seconds
         total wall-time :   2.67 seconds
    ------------------------------------------------------------------------


   ****  dscf : all done  ****


    2010-09-20 16:01:34.988 

