    20
 Energy =       0.1303672890
c     0.0000000    0.0000000    0.0000000  0.00    0.0868975    0.0000000    0.0482962
c     0.0000000    0.0000000    1.4209995  0.00   -0.0474301    0.0000000    0.0662005
h    -0.9529997    0.0000000    1.9659993  0.00   -0.0207845    0.0000000    0.0007430
c     1.2039996    0.0000000    2.1399992  0.00   -0.0343392    0.0000000    0.0761412
h     1.1799996    0.0000000    3.2389988  0.00    0.0064051    0.0000000    0.0153378
c     2.4619991    0.0000000    1.4769995  0.00   -0.0883541    0.0000000   -0.0485672
c     2.4619991    0.0000000    0.0560000  0.00    0.0475291    0.0000000   -0.0662012
h     3.4149988    0.0000000   -0.4889998  0.00    0.0207858    0.0000000   -0.0007447
c     3.7179987    0.0000000    2.2939992  0.00    0.2253654    0.0000000    0.0941129
h     3.5529987    0.0000000    3.3819988  0.00   -0.0208369    0.0000000    0.0115948
c     4.9779982    0.0000000    1.8259993  0.00   -0.0069215    0.0000000    0.0247592
h     5.2109981    0.0000000    0.7549997  0.00    0.0042752    0.0000000   -0.0146419
h     5.8369979    0.0000000    2.5069991  0.00    0.0137354    0.0000000    0.0015762
c    -1.2549996    0.0000000   -0.8169997  0.00   -0.2219761    0.0000000   -0.0941991
h    -1.0909996    0.0000000   -1.9049993  0.00    0.0203863    0.0000000   -0.0115048
c    -2.5159991    0.0000000   -0.3489999  0.00    0.0053957    0.0000000   -0.0244543
h    -2.7489990    0.0000000    0.7219997  0.00   -0.0042307    0.0000000    0.0146518
h    -3.3749988    0.0000000   -1.0299996  0.00   -0.0137644    0.0000000   -0.0015400
c     1.2579996    0.0000000   -0.6629998  0.00    0.0342905    0.0000000   -0.0762318
h     1.2819995    0.0000000   -1.7619994  0.00   -0.0064283    0.0000000   -0.0153286
