 Entering Gaussian System, Link 0=g09
 Initial command:
 /ichec/packages/gaussian/09a02/l1.exe /ichec/scratch/gaussian/Gau-31484.inp -scrdir=/ichec/scratch/gaussian/
 Entering Link 1 = /ichec/packages/gaussian/09a02/l1.exe PID=     31485.
  
 Copyright (c) 1988,1990,1992,1993,1995,1998,2003,2009, Gaussian, Inc.
                  All Rights Reserved.
  
 This is part of the Gaussian(R) 09 program.  It is based on
 the Gaussian(R) 03 system (copyright 2003, Gaussian, Inc.),
 the Gaussian(R) 98 system (copyright 1998, Gaussian, Inc.),
 the Gaussian(R) 94 system (copyright 1995, Gaussian, Inc.),
 the Gaussian 92(TM) system (copyright 1992, Gaussian, Inc.),
 the Gaussian 90(TM) system (copyright 1990, Gaussian, Inc.),
 the Gaussian 88(TM) system (copyright 1988, Gaussian, Inc.),
 the Gaussian 86(TM) system (copyright 1986, Carnegie Mellon
 University), and the Gaussian 82(TM) system (copyright 1983,
 Carnegie Mellon University). Gaussian is a federally registered
 trademark of Gaussian, Inc.
  
 This software contains proprietary and confidential information,
 including trade secrets, belonging to Gaussian, Inc.
  
 This software is provided under written license and may be
 used, copied, transmitted, or stored only in accord with that
 written license.
  
 The following legend is applicable only to US Government
 contracts under FAR:
  
                    RESTRICTED RIGHTS LEGEND
  
 Use, reproduction and disclosure by the US Government is
 subject to restrictions as set forth in subparagraphs (a)
 and (c) of the Commercial Computer Software - Restricted
 Rights clause in FAR 52.227-19.
  
 Gaussian, Inc.
 340 Quinnipiac St., Bldg. 40, Wallingford CT 06492
  
  
 ---------------------------------------------------------------
 Warning -- This program may not be used in any manner that
 competes with the business of Gaussian, Inc. or will provide
 assistance to any competitor of Gaussian, Inc.  The licensee
 of this program is prohibited from giving any competitor of
 Gaussian, Inc. access to this program.  By using this program,
 the user acknowledges that Gaussian, Inc. is engaged in the
 business of creating and licensing software in the field of
 computational chemistry and represents and warrants to the
 licensee that it is not a competitor of Gaussian, Inc. and that
 it will not use this program in any manner prohibited above.
 ---------------------------------------------------------------
  

 Cite this work as:
 Gaussian 09, Revision A.02,
 M. J. Frisch, G. W. Trucks, H. B. Schlegel, G. E. Scuseria, 
 M. A. Robb, J. R. Cheeseman, G. Scalmani, V. Barone, B. Mennucci, 
 G. A. Petersson, H. Nakatsuji, M. Caricato, X. Li, H. P. Hratchian, 
 A. F. Izmaylov, J. Bloino, G. Zheng, J. L. Sonnenberg, M. Hada, 
 M. Ehara, K. Toyota, R. Fukuda, J. Hasegawa, M. Ishida, T. Nakajima, 
 Y. Honda, O. Kitao, H. Nakai, T. Vreven, J. A. Montgomery, Jr., 
 J. E. Peralta, F. Ogliaro, M. Bearpark, J. J. Heyd, E. Brothers, 
 K. N. Kudin, V. N. Staroverov, R. Kobayashi, J. Normand, 
 K. Raghavachari, A. Rendell, J. C. Burant, S. S. Iyengar, J. Tomasi, 
 M. Cossi, N. Rega, J. M. Millam, M. Klene, J. E. Knox, J. B. Cross, 
 V. Bakken, C. Adamo, J. Jaramillo, R. Gomperts, R. E. Stratmann, 
 O. Yazyev, A. J. Austin, R. Cammi, C. Pomelli, J. W. Ochterski, 
 R. L. Martin, K. Morokuma, V. G. Zakrzewski, G. A. Voth, 
 P. Salvador, J. J. Dannenberg, S. Dapprich, A. D. Daniels, 
 O. Farkas, J. B. Foresman, J. V. Ortiz, J. Cioslowski, 
 and D. J. Fox, Gaussian, Inc., Wallingford CT, 2009.
 
 ******************************************
 Gaussian 09:  EM64L-G09RevA.02 11-Jun-2009
                 8-Oct-2009 
 ******************************************
 %nproc=1
 Will use up to    1 processors via shared memory.
 %mem=1GB
 %Chk=534.chk
 ----------
 #T PM6 OPT
 ----------
 ------------
 C#CC#CC#CC#C
 ------------
 Symbolic Z-matrix:
 Charge =  0 Multiplicity = 1
 C                     0.73465   0.        0. 
 C                     1.93465   0.        0. 
 C                     3.46644   0.        0. 
 C                     4.66658   0.        0. 
 C                     6.19846   0.        0. 
 C                     7.39833   0.        0. 
 C                     8.93041   0.        0. 
 C                     10.13035   0.        0. 
 H                    -0.33027   0.        0. 
 H                     11.19525   0.        0. 
 

 GradGradGradGradGradGradGradGradGradGradGradGradGradGradGradGradGradGrad
 Initialization pass.
                           ----------------------------
                           !    Initial Parameters    !
                           ! (Angstroms and Degrees)  !
 --------------------------                            --------------------------
 ! Name  Definition              Value          Derivative Info.                !
 --------------------------------------------------------------------------------
 ! R1    R(1,2)                  1.2            estimate D2E/DX2                !
 ! R2    R(1,9)                  1.0649         estimate D2E/DX2                !
 ! R3    R(2,3)                  1.5318         estimate D2E/DX2                !
 ! R4    R(3,4)                  1.2001         estimate D2E/DX2                !
 ! R5    R(4,5)                  1.5319         estimate D2E/DX2                !
 ! R6    R(5,6)                  1.1999         estimate D2E/DX2                !
 ! R7    R(6,7)                  1.5321         estimate D2E/DX2                !
 ! R8    R(7,8)                  1.1999         estimate D2E/DX2                !
 ! R9    R(8,10)                 1.0649         estimate D2E/DX2                !
 ! A1    L(2,1,9,-2,-1)        180.0            estimate D2E/DX2                !
 ! A2    L(1,2,3,-2,-1)        180.0            estimate D2E/DX2                !
 ! A3    L(2,3,4,-2,-1)        180.0            estimate D2E/DX2                !
 ! A4    L(3,4,5,-2,-1)        180.0            estimate D2E/DX2                !
 ! A5    L(4,5,6,-2,-1)        180.0            estimate D2E/DX2                !
 ! A6    L(5,6,7,-2,-1)        180.0            estimate D2E/DX2                !
 ! A7    L(6,7,8,-2,-1)        180.0            estimate D2E/DX2                !
 ! A8    L(7,8,10,-2,-1)       180.0            estimate D2E/DX2                !
 ! A9    L(2,1,9,-3,-2)        180.0            estimate D2E/DX2                !
 ! A10   L(1,2,3,-3,-2)        180.0            estimate D2E/DX2                !
 ! A11   L(2,3,4,-3,-2)        180.0            estimate D2E/DX2                !
 ! A12   L(3,4,5,-3,-2)        180.0            estimate D2E/DX2                !
 ! A13   L(4,5,6,-3,-2)        180.0            estimate D2E/DX2                !
 ! A14   L(5,6,7,-3,-2)        180.0            estimate D2E/DX2                !
 ! A15   L(6,7,8,-3,-2)        180.0            estimate D2E/DX2                !
 ! A16   L(7,8,10,-3,-2)       180.0            estimate D2E/DX2                !
 --------------------------------------------------------------------------------
 Number of steps in this run=  35 maximum allowed number of steps= 100.
 GradGradGradGradGradGradGradGradGradGradGradGradGradGradGradGradGradGrad

                    Distance matrix (angstroms):
                    1          2          3          4          5
     1  C    0.000000
     2  C    1.200000   0.000000
     3  C    2.731790   1.531790   0.000000
     4  C    3.931930   2.731930   1.200140   0.000000
     5  C    5.463810   4.263810   2.732020   1.531880   0.000000
     6  C    6.663680   5.463680   3.931890   2.731750   1.199870
     7  C    8.195760   6.995760   5.463970   4.263830   2.731950
     8  C    9.395700   8.195700   6.663910   5.463770   3.931890
     9  H    1.064920   2.264920   3.796710   4.996850   6.528730
    10  H   10.460600   9.260600   7.728810   6.528670   4.996790
                    6          7          8          9         10
     6  C    0.000000
     7  C    1.532080   0.000000
     8  C    2.732020   1.199940   0.000000
     9  H    7.728600   9.260680  10.460620   0.000000
    10  H    3.796920   2.264840   1.064900  11.525520   0.000000
 Framework group  C*V[C*(HCCCCCCCCH)]
 Deg. of freedom     9
                         Standard orientation:                         
 ---------------------------------------------------------------------
 Center     Atomic      Atomic             Coordinates (Angstroms)
 Number     Number       Type             X           Y           Z
 ---------------------------------------------------------------------
      1          6           0        0.000000    0.000000    4.697834
      2          6           0        0.000000    0.000000    3.497834
      3          6           0        0.000000    0.000000    1.966044
      4          6           0        0.000000    0.000000    0.765904
      5          6           0        0.000000    0.000000   -0.765976
      6          6           0        0.000000    0.000000   -1.965846
      7          6           0        0.000000    0.000000   -3.497926
      8          6           0        0.000000    0.000000   -4.697866
      9          1           0        0.000000    0.000000    5.762754
     10          1           0        0.000000    0.000000   -5.762766
 ---------------------------------------------------------------------
 Rotational constants (GHZ):      0.0000000      0.5068509      0.5068509
    34 basis functions,   204 primitive gaussians,    34 cartesian basis functions
    17 alpha electrons       17 beta electrons
       nuclear repulsion energy       123.0220517788 Hartrees.
 Do NDO integrals.
 Simple Huckel Guess.
 Initial guess orbital symmetries:
       Occupied  (SG) (SG) (SG) (SG) (SG) (SG) (SG) (SG) (SG) (PI)
                 (PI) (PI) (PI) (PI) (PI) (PI) (PI)
       Virtual   (PI) (PI) (PI) (PI) (PI) (PI) (PI) (PI) (SG) (SG)
                 (SG) (SG) (SG) (SG) (SG) (SG) (SG)
 The electronic state of the initial guess is 1-SG.
 Overlap will be assumed to be unity.
 Fock symm off for IB=3 I1=    1 I=   19 J=   14 Cut=1.00D-07 Err=2.13D-03
 Fock matrix is not symmetric: symmetry in diagonalization turned off.
 SCF Done:  E(RPM6) =  0.419028964050     A.U. after   11 cycles
             Convg  =    0.9155D-08             -V/T =  1.0070

 **********************************************************************

            Population analysis using the SCF density.

 **********************************************************************

 Orbital symmetries:
       Occupied  (SG) (SG) (SG) (SG) (SG) (SG) (SG) (SG) (SG) (PI)
                 (PI) (PI) (PI) (PI) (PI) (PI) (PI)
       Virtual   (PI) (PI) (PI) (PI) (SG) (PI) (PI) (PI) (PI) (SG)
                 (SG) (SG) (SG) (SG) (SG) (SG) (SG)
 The electronic state is 1-SG.
 Alpha  occ. eigenvalues --   -0.99367  -0.99348  -0.98710  -0.98354  -0.80266
 Alpha  occ. eigenvalues --   -0.74738  -0.67546  -0.60760  -0.57440  -0.50196
 Alpha  occ. eigenvalues --   -0.50196  -0.46840  -0.46840  -0.42461  -0.42461
 Alpha  occ. eigenvalues --   -0.38521  -0.38521
 Alpha virt. eigenvalues --   -0.00414  -0.00414   0.03305   0.03305   0.05555
 Alpha virt. eigenvalues --    0.06819   0.06819   0.08964   0.08964   0.09819
 Alpha virt. eigenvalues --    0.13695   0.19979   0.20051   0.21361   0.22524
 Alpha virt. eigenvalues --    0.23813   0.23991
          Condensed to atoms (all electrons):
 Mulliken atomic charges:
              1
     1  C   -0.205330
     2  C    0.012514
     3  C   -0.015808
     4  C   -0.008552
     5  C   -0.008600
     6  C   -0.015781
     7  C    0.012576
     8  C   -0.205385
     9  H    0.217180
    10  H    0.217185
 Sum of Mulliken atomic charges =   0.00000
 Mulliken charges with hydrogens summed into heavy atoms:
              1
     1  C    0.011850
     2  C    0.012514
     3  C   -0.015808
     4  C   -0.008552
     5  C   -0.008600
     6  C   -0.015781
     7  C    0.012576
     8  C    0.011800
 Sum of Mulliken charges with hydrogens summed into heavy atoms =   0.00000
 Charge=              0.0000 electrons
 Dipole moment (field-independent basis, Debye):
    X=              0.0000    Y=              0.0000    Z=              0.0000  Tot=              0.0000
 Calling FoFJK, ICntrl=      2127 FMM=F ISym2X=1 I1Cent= 0 IOpClX= 0 NMat=1 NMatS=1 NMatT=0.

 GradGradGradGradGradGradGradGradGradGradGradGradGradGradGradGradGradGrad
 Internal  Forces:  Max     0.125004845 RMS     0.042976812
 Step number   1 out of a maximum of   35
 All quantities printed in internal units (Hartrees-Bohrs-Radians)
 Mixed Optimization -- RFO/linear search
 Second derivative matrix not updated -- first step.
     Eigenvalues ---    0.00342   0.00342   0.00344   0.00344   0.00345
     Eigenvalues ---    0.00345   0.00567   0.00567   0.00567   0.00567
     Eigenvalues ---    0.04733   0.04733   0.04735   0.04735   0.04736
     Eigenvalues ---    0.04736   0.29232   0.29250   0.29259   0.37880
     Eigenvalues ---    0.37882   1.04753   1.04823   1.04853   1.04888
 Linear search not attempted -- first point.
 Maximum step size (   0.300) exceeded in Quadratic search.
    -- Step size scaled by   0.568
 Iteration  1 RMS(Cart)=  0.13380803 RMS(Int)=  0.00000000
 Iteration  2 RMS(Cart)=  0.00000000 RMS(Int)=  0.00000000
 ClnCor:  largest displacement from symmetrization is 1.65D-13 for atom     1.
 Variable       Old X    -DE/DX   Delta X   Delta X   Delta X     New X
                                 (Linear)    (Quad)   (Total)
    R1        2.26767   0.00183   0.00000   0.00089   0.00089   2.26857
    R2        2.01241  -0.01542   0.00000  -0.01778  -0.01778   1.99462
    R3        2.89466  -0.12255   0.00000  -0.17135  -0.17135   2.72332
    R4        2.26794   0.00091   0.00000   0.00044   0.00044   2.26838
    R5        2.89483  -0.12500   0.00000  -0.17481  -0.17481   2.72002
    R6        2.26743   0.00156   0.00000   0.00076   0.00076   2.26819
    R7        2.89521  -0.12265   0.00000  -0.17160  -0.17160   2.72361
    R8        2.26756   0.00195   0.00000   0.00095   0.00095   2.26851
    R9        2.01237  -0.01541   0.00000  -0.01777  -0.01777   1.99460
    A1        3.14159   0.00000   0.00000   0.00000   0.00000   3.14159
    A2        3.14159   0.00000   0.00000   0.00000   0.00000   3.14159
    A3        3.14159   0.00000   0.00000   0.00000   0.00000   3.14159
    A4        3.14159   0.00000   0.00000   0.00000   0.00000   3.14159
    A5        3.14159   0.00000   0.00000   0.00000   0.00000   3.14159
    A6        3.14159   0.00000   0.00000   0.00000   0.00000   3.14159
    A7        3.14159   0.00000   0.00000   0.00000   0.00000   3.14159
    A8        3.14159   0.00000   0.00000   0.00000   0.00000   3.14159
    A9        3.14159   0.00000   0.00000   0.00000   0.00000   3.14159
   A10        3.14159   0.00000   0.00000   0.00000   0.00000   3.14159
   A11        3.14159   0.00000   0.00000   0.00000   0.00000   3.14159
   A12        3.14159   0.00000   0.00000   0.00000   0.00000   3.14159
   A13        3.14159   0.00000   0.00000   0.00000   0.00000   3.14159
   A14        3.14159   0.00000   0.00000   0.00000   0.00000   3.14159
   A15        3.14159   0.00000   0.00000   0.00000   0.00000   3.14159
   A16        3.14159   0.00000   0.00000   0.00000   0.00000   3.14159
         Item               Value     Threshold  Converged?
 Maximum Force            0.125005     0.000450     NO 
 RMS     Force            0.042977     0.000300     NO 
 Maximum Displacement     0.275135     0.001800     NO 
 RMS     Displacement     0.133808     0.001200     NO 
 GradGradGradGradGradGradGradGradGradGradGradGradGradGradGradGradGradGrad

                    Distance matrix (angstroms):
                    1          2          3          4          5
     1  C    0.000000
     2  C    1.200473   0.000000
     3  C    2.641590   1.441117   0.000000
     4  C    3.841965   2.641492   1.200375   0.000000
     5  C    5.281339   4.080866   2.639750   1.439374   0.000000
     6  C    6.481612   5.281139   3.840022   2.639647   1.200272
     7  C    7.922885   6.722412   5.281295   4.080919   2.641545
     8  C    9.123330   7.922857   6.481740   5.281365   3.841990
     9  H    1.055509   2.255982   3.697099   4.897474   6.336848
    10  H   10.178828   8.978355   7.537238   6.336862   4.897488
                    6          7          8          9         10
     6  C    0.000000
     7  C    1.441273   0.000000
     8  C    2.641718   1.200445   0.000000
     9  H    7.537121   8.978393  10.178839   0.000000
    10  H    3.697216   2.255943   1.055498  11.234336   0.000000
 Framework group  C*V[C*(HCCCCCCCCH)]
 Deg. of freedom     9
                         Standard orientation:                         
 ---------------------------------------------------------------------
 Center     Atomic      Atomic             Coordinates (Angstroms)
 Number     Number       Type             X           Y           Z
 ---------------------------------------------------------------------
      1          6           0        0.000000    0.000000    4.561650
      2          6           0        0.000000    0.000000    3.361177
      3          6           0        0.000000    0.000000    1.920060
      4          6           0        0.000000    0.000000    0.719684
      5          6           0        0.000000    0.000000   -0.719690
      6          6           0        0.000000    0.000000   -1.919962
      7          6           0        0.000000    0.000000   -3.361235
      8          6           0        0.000000    0.000000   -4.561680
      9          1           0        0.000000    0.000000    5.617158
     10          1           0        0.000000    0.000000   -5.617178
 ---------------------------------------------------------------------
 Rotational constants (GHZ):      0.0000000      0.5404775      0.5404775
    34 basis functions,   204 primitive gaussians,    34 cartesian basis functions
    17 alpha electrons       17 beta electrons
       nuclear repulsion energy       125.0855338899 Hartrees.
 Do NDO integrals.
 Initial guess read from the read-write file.
 B after Tr=     0.000000    0.000000    0.000000
         Rot=    1.000000    0.000000    0.000000    0.000000 Ang=   0.00 deg.
 Initial guess orbital symmetries:
       Occupied  (SG) (SG) (SG) (SG) (SG) (SG) (SG) (SG) (SG) (PI)
                 (PI) (PI) (PI) (PI) (PI) (PI) (PI)
       Virtual   (PI) (PI) (PI) (PI) (SG) (PI) (PI) (PI) (PI) (SG)
                 (SG) (SG) (SG) (SG) (SG) (SG) (SG)
 Overlap will be assumed to be unity.
 An orbital has undefined symmetry, so N**3 symmetry is turned off.
 SCF Done:  E(RPM6) =  0.367082873110     A.U. after   11 cycles
             Convg  =    0.9585D-08             -V/T =  1.0061
 Calling FoFJK, ICntrl=      2127 FMM=F ISym2X=1 I1Cent= 0 IOpClX= 0 NMat=1 NMatS=1 NMatT=0.

 GradGradGradGradGradGradGradGradGradGradGradGradGradGradGradGradGradGrad
 Using GEDIIS/GDIIS optimizer.
 Internal  Forces:  Max     0.071602660 RMS     0.025231635
 Step number   2 out of a maximum of   35
 All quantities printed in internal units (Hartrees-Bohrs-Radians)
 Mixed Optimization -- RFO/linear search
 Trust test= 1.01D+00 RLast= 3.00D-01 DXMaxT set to 5.05D-01
 Use linear search instead of GDIIS.
     Eigenvalues ---    0.00342   0.00342   0.00344   0.00344   0.00345
     Eigenvalues ---    0.00345   0.00567   0.00567   0.00567   0.00567
     Eigenvalues ---    0.04733   0.04733   0.04735   0.04735   0.04736
     Eigenvalues ---    0.04736   0.29233   0.29246   0.29662   0.37815
     Eigenvalues ---    0.37881   1.04793   1.04835   1.04863   1.08134
 Quartic linear search produced a step of  0.85241.
 Iteration  1 RMS(Cart)=  0.10091889 RMS(Int)=  0.00000001
 Iteration  2 RMS(Cart)=  0.00000001 RMS(Int)=  0.00000000
 ClnCor:  largest displacement from symmetrization is 1.65D-11 for atom     1.
 Variable       Old X    -DE/DX   Delta X   Delta X   Delta X     New X
                                 (Linear)    (Quad)   (Total)
    R1        2.26857   0.00987   0.00076   0.01584   0.01660   2.28517
    R2        1.99462  -0.01059  -0.01516  -0.01084  -0.02600   1.96863
    R3        2.72332  -0.06988  -0.14606  -0.00592  -0.15198   2.57134
    R4        2.26838   0.01701   0.00038   0.02922   0.02960   2.29798
    R5        2.72002  -0.07160  -0.14901  -0.00804  -0.15705   2.56297
    R6        2.26819   0.01725   0.00065   0.02905   0.02970   2.29789
    R7        2.72361  -0.06999  -0.14627  -0.00617  -0.15244   2.57117
    R8        2.26851   0.00993   0.00081   0.01582   0.01663   2.28515
    R9        1.99460  -0.01058  -0.01515  -0.01084  -0.02598   1.96862
    A1        3.14159   0.00000   0.00000   0.00000   0.00000   3.14159
    A2        3.14159   0.00000   0.00000   0.00000   0.00000   3.14159
    A3        3.14159   0.00000   0.00000   0.00000   0.00000   3.14159
    A4        3.14159   0.00000   0.00000   0.00000   0.00000   3.14159
    A5        3.14159   0.00000   0.00000   0.00000   0.00000   3.14159
    A6        3.14159   0.00000   0.00000   0.00000   0.00000   3.14159
    A7        3.14159   0.00000   0.00000   0.00000   0.00000   3.14159
    A8        3.14159   0.00000   0.00000   0.00000   0.00000   3.14159
    A9        3.14159   0.00000   0.00000   0.00000   0.00000   3.14159
   A10        3.14159   0.00000   0.00000   0.00000   0.00000   3.14159
   A11        3.14159   0.00000   0.00000   0.00000   0.00000   3.14159
   A12        3.14159   0.00000   0.00000   0.00000   0.00000   3.14159
   A13        3.14159   0.00000   0.00000   0.00000   0.00000   3.14159
   A14        3.14159   0.00000   0.00000   0.00000   0.00000   3.14159
   A15        3.14159   0.00000   0.00000   0.00000   0.00000   3.14159
   A16        3.14159   0.00000   0.00000   0.00000   0.00000   3.14159
         Item               Value     Threshold  Converged?
 Maximum Force            0.071603     0.000450     NO 
 RMS     Force            0.025232     0.000300     NO 
 Maximum Displacement     0.210522     0.001800     NO 
 RMS     Displacement     0.100919     0.001200     NO 
 GradGradGradGradGradGradGradGradGradGradGradGradGradGradGradGradGradGrad

                    Distance matrix (angstroms):
                    1          2          3          4          5
     1  C    0.000000
     2  C    1.209258   0.000000
     3  C    2.569953   1.360695   0.000000
     4  C    3.785990   2.576732   1.216038   0.000000
     5  C    5.142258   3.933000   2.572306   1.356268   0.000000
     6  C    6.358248   5.148990   3.788295   2.572258   1.215990
     7  C    7.718853   6.509595   5.148900   3.932862   2.576594
     8  C    8.928100   7.718842   6.358147   5.142110   3.785842
     9  H    1.041752   2.251010   3.611705   4.827742   6.184010
    10  H    9.969849   8.760591   7.399896   6.183858   4.827590
                    6          7          8          9         10
     6  C    0.000000
     7  C    1.360604   0.000000
     8  C    2.569852   1.209248   0.000000
     9  H    7.400000   8.760605   9.969852   0.000000
    10  H    3.611600   2.250996   1.041748  11.011601   0.000000
 Framework group  C*V[C*(HCCCCCCCCH)]
 Deg. of freedom     9
                         Standard orientation:                         
 ---------------------------------------------------------------------
 Center     Atomic      Atomic             Coordinates (Angstroms)
 Number     Number       Type             X           Y           Z
 ---------------------------------------------------------------------
      1          6           0        0.000000    0.000000   -4.464081
      2          6           0        0.000000    0.000000   -3.254823
      3          6           0        0.000000    0.000000   -1.894128
      4          6           0        0.000000    0.000000   -0.678091
      5          6           0        0.000000    0.000000    0.678177
      6          6           0        0.000000    0.000000    1.894167
      7          6           0        0.000000    0.000000    3.254771
      8          6           0        0.000000    0.000000    4.464019
      9          1           0        0.000000    0.000000   -5.505833
     10          1           0        0.000000    0.000000    5.505767
 ---------------------------------------------------------------------
 Rotational constants (GHZ):      0.0000000      0.5673566      0.5673566
    34 basis functions,   204 primitive gaussians,    34 cartesian basis functions
    17 alpha electrons       17 beta electrons
       nuclear repulsion energy       126.6768522228 Hartrees.
 Do NDO integrals.
 Initial guess read from the read-write file.
 B after Tr=     0.000000    0.000000    0.000000
         Rot=    1.000000    0.000000    0.000000    0.000000 Ang=   0.00 deg.
 Initial guess orbital symmetries:
       Occupied  (SG) (SG) (SG) (SG) (SG) (SG) (SG) (SG) (SG) (PI)
                 (PI) (PI) (PI) (PI) (PI) (PI) (PI)
       Virtual   (PI) (PI) (PI) (PI) (PI) (PI) (SG) (PI) (PI) (SG)
                 (SG) (SG) (SG) (SG) (SG) (SG) (SG)
 Overlap will be assumed to be unity.
 An orbital has undefined symmetry, so N**3 symmetry is turned off.
 SCF Done:  E(RPM6) =  0.349322555179     A.U. after   14 cycles
             Convg  =    0.2891D-08             -V/T =  1.0058
 Calling FoFJK, ICntrl=      2127 FMM=F ISym2X=1 I1Cent= 0 IOpClX= 0 NMat=1 NMatS=1 NMatT=0.

 GradGradGradGradGradGradGradGradGradGradGradGradGradGradGradGradGradGrad
 Using GEDIIS/GDIIS optimizer.
 Internal  Forces:  Max     0.003869792 RMS     0.001560593
 Step number   3 out of a maximum of   35
 All quantities printed in internal units (Hartrees-Bohrs-Radians)
 Mixed Optimization -- RFO/linear search
 Trust test= 7.64D-01 RLast= 2.73D-01 DXMaxT set to 8.20D-01
 Use linear search instead of GDIIS.
     Eigenvalues ---    0.00342   0.00342   0.00344   0.00344   0.00345
     Eigenvalues ---    0.00345   0.00567   0.00567   0.00567   0.00567
     Eigenvalues ---    0.04733   0.04733   0.04735   0.04735   0.04736
     Eigenvalues ---    0.04736   0.29239   0.29255   0.37239   0.37881
     Eigenvalues ---    0.48593   1.04792   1.04835   1.04863   1.07846
 Quartic linear search produced a step of -0.03029.
 Iteration  1 RMS(Cart)=  0.00298951 RMS(Int)=  0.00000000
 New curvilinear step failed, DQL= 2.11D-08 SP=-4.44D-04.
 Iteration  1 RMS(Cart)=  0.00286178 RMS(Int)=  0.00000001
 Iteration  2 RMS(Cart)=  0.00000002 RMS(Int)=  0.00000000
 ClnCor:  largest displacement from symmetrization is 3.78D-08 for atom     5.
 Variable       Old X    -DE/DX   Delta X   Delta X   Delta X     New X
                                 (Linear)    (Quad)   (Total)
    R1        2.28517  -0.00050  -0.00050  -0.00011  -0.00060   2.28457
    R2        1.96863  -0.00387   0.00079  -0.01104  -0.00915   1.95948
    R3        2.57134   0.00299   0.00460   0.00036   0.00493   2.57627
    R4        2.29798  -0.00097  -0.00090  -0.00029  -0.00115   2.29682
    R5        2.56297   0.00320   0.00476   0.00080   0.00548   2.56845
    R6        2.29789  -0.00084  -0.00090  -0.00016  -0.00105   2.29684
    R7        2.57117   0.00311   0.00462   0.00072   0.00526   2.57643
    R8        2.28515  -0.00046  -0.00050  -0.00007  -0.00057   2.28458
    R9        1.96862  -0.00387   0.00079  -0.01103  -0.00914   1.95948
    A1        3.14159   0.00000   0.00000   0.00000   0.00000   3.14159
    A2        3.14159   0.00000   0.00000   0.00000   0.00000   3.14159
    A3        3.14159   0.00000   0.00000   0.00000   0.00000   3.14159
    A4        3.14159   0.00000   0.00000   0.00000   0.00000   3.14159
    A5        3.14159   0.00000   0.00000   0.00000   0.00000   3.14159
    A6        3.14159   0.00000   0.00000   0.00000   0.00000   3.14159
    A7        3.14159   0.00000   0.00000   0.00000   0.00000   3.14159
    A8        3.14159   0.00000   0.00000   0.00000   0.00000   3.14159
    A9        3.14159   0.00000   0.00000   0.00000   0.00000   3.14159
   A10        3.14159   0.00000   0.00000   0.00000   0.00000   3.14159
   A11        3.14159   0.00000   0.00000   0.00000   0.00000   3.14159
   A12        3.14159   0.00000   0.00000   0.00000   0.00000   3.14159
   A13        3.14159   0.00000   0.00000   0.00000   0.00000   3.14159
   A14        3.14159   0.00000   0.00000   0.00000   0.00000   3.14159
   A15        3.14159   0.00000   0.00000   0.00000   0.00000   3.14159
   A16        3.14159   0.00000   0.00000   0.00000   0.00000   3.14159
         Item               Value     Threshold  Converged?
 Maximum Force            0.003870     0.000450     NO 
 RMS     Force            0.001561     0.000300     NO 
 Maximum Displacement     0.006804     0.001800     NO 
 RMS     Displacement     0.002862     0.001200     NO 
 GradGradGradGradGradGradGradGradGradGradGradGradGradGradGradGradGradGrad

                    Distance matrix (angstroms):
                    1          2          3          4          5
     1  C    0.000000
     2  C    1.208942   0.000000
     3  C    2.572243   1.363301   0.000000
     4  C    3.787671   2.578729   1.215427   0.000000
     5  C    5.146838   3.937896   2.574595   1.359167   0.000000
     6  C    6.362274   5.153332   3.790031   2.574604   1.215436
     7  C    7.725663   6.516721   5.153420   3.937992   2.578825
     8  C    8.934610   7.725669   6.362367   5.146940   3.787772
     9  H    1.036912   2.245854   3.609155   4.824582   6.183750
    10  H    9.971522   8.762581   7.399279   6.183852   4.824684
                    6          7          8          9         10
     6  C    0.000000
     7  C    1.363389   0.000000
     8  C    2.572336   1.208948   0.000000
     9  H    7.399186   8.762575   9.971522   0.000000
    10  H    3.609248   2.245860   1.036912  11.008434   0.000000
 Framework group  C*V[C*(HCCCCCCCCH)]
 Deg. of freedom     9
                         Standard orientation:                         
 ---------------------------------------------------------------------
 Center     Atomic      Atomic             Coordinates (Angstroms)
 Number     Number       Type             X           Y           Z
 ---------------------------------------------------------------------
      1          6           0        0.000000    0.000000    4.467281
      2          6           0        0.000000    0.000000    3.258339
      3          6           0        0.000000    0.000000    1.895038
      4          6           0        0.000000    0.000000    0.679611
      5          6           0        0.000000    0.000000   -0.679557
      6          6           0        0.000000    0.000000   -1.894993
      7          6           0        0.000000    0.000000   -3.258382
      8          6           0        0.000000    0.000000   -4.467329
      9          1           0        0.000000    0.000000    5.504193
     10          1           0        0.000000    0.000000   -5.504241
 ---------------------------------------------------------------------
 Rotational constants (GHZ):      0.0000000      0.5665008      0.5665008
    34 basis functions,   204 primitive gaussians,    34 cartesian basis functions
    17 alpha electrons       17 beta electrons
       nuclear repulsion energy       126.6421825576 Hartrees.
 Do NDO integrals.
 Initial guess read from the read-write file.
 B after Tr=     0.000000    0.000000    0.000000
         Rot=    1.000000    0.000000    0.000000    0.000000 Ang=   0.00 deg.
 Initial guess orbital symmetries:
       Occupied  (SG) (SG) (SG) (SG) (SG) (SG) (SG) (SG) (SG) (PI)
                 (PI) (PI) (PI) (PI) (PI) (PI) (PI)
       Virtual   (PI) (PI) (PI) (PI) (PI) (PI) (PI) (PI) (SG) (SG)
                 (SG) (SG) (SG) (SG) (SG) (SG) (SG)
 Overlap will be assumed to be unity.
 An orbital has undefined symmetry, so N**3 symmetry is turned off.
 SCF Done:  E(RPM6) =  0.349249040747     A.U. after   13 cycles
             Convg  =    0.5149D-08             -V/T =  1.0058
 Calling FoFJK, ICntrl=      2127 FMM=F ISym2X=1 I1Cent= 0 IOpClX= 0 NMat=1 NMatS=1 NMatT=0.

 GradGradGradGradGradGradGradGradGradGradGradGradGradGradGradGradGradGrad
 Using GEDIIS/GDIIS optimizer.
 Internal  Forces:  Max     0.001299786 RMS     0.000382637
 Step number   4 out of a maximum of   35
 All quantities printed in internal units (Hartrees-Bohrs-Radians)
 Mixed Optimization -- En-DIIS/RFO-DIIS
 Trust test= 1.08D+00 RLast= 1.59D-02 DXMaxT set to 8.20D-01
 Use linear search instead of GDIIS.
     Eigenvalues ---    0.00342   0.00342   0.00344   0.00344   0.00345
     Eigenvalues ---    0.00345   0.00567   0.00567   0.00567   0.00567
     Eigenvalues ---    0.04733   0.04733   0.04735   0.04735   0.04736
     Eigenvalues ---    0.04736   0.27632   0.29239   0.29340   0.37881
     Eigenvalues ---    0.57642   1.04803   1.04839   1.05190   1.07204
 Quartic linear search produced a step of  0.26002.
 Iteration  1 RMS(Cart)=  0.00133502 RMS(Int)=  0.00000001
 Iteration  2 RMS(Cart)=  0.00000001 RMS(Int)=  0.00000001
 ClnCor:  largest displacement from symmetrization is 5.35D-08 for atom     4.
 Variable       Old X    -DE/DX   Delta X   Delta X   Delta X     New X
                                 (Linear)    (Quad)   (Total)
    R1        2.28457   0.00019  -0.00016   0.00040   0.00025   2.28482
    R2        1.95948  -0.00130  -0.00238  -0.00234  -0.00471   1.95477
    R3        2.57627   0.00014   0.00128  -0.00086   0.00042   2.57669
    R4        2.29682  -0.00030  -0.00030  -0.00004  -0.00034   2.29648
    R5        2.56845   0.00001   0.00142  -0.00153  -0.00011   2.56834
    R6        2.29684  -0.00033  -0.00027  -0.00010  -0.00038   2.29647
    R7        2.57643   0.00003   0.00137  -0.00138  -0.00001   2.57642
    R8        2.28458   0.00017  -0.00015   0.00037   0.00022   2.28480
    R9        1.95948  -0.00130  -0.00238  -0.00234  -0.00472   1.95476
    A1        3.14159   0.00000   0.00000   0.00000   0.00000   3.14159
    A2        3.14159   0.00000   0.00000   0.00000   0.00000   3.14159
    A3        3.14159   0.00000   0.00000   0.00000   0.00000   3.14159
    A4        3.14159   0.00000   0.00000   0.00000   0.00000   3.14159
    A5        3.14159   0.00000   0.00000   0.00000   0.00000   3.14159
    A6        3.14159   0.00000   0.00000   0.00000   0.00000   3.14159
    A7        3.14159   0.00000   0.00000   0.00000   0.00000   3.14159
    A8        3.14159   0.00000   0.00000   0.00000   0.00000   3.14159
    A9        3.14159   0.00000   0.00000   0.00000   0.00000   3.14159
   A10        3.14159   0.00000   0.00000   0.00000   0.00000   3.14159
   A11        3.14159   0.00000   0.00000   0.00000   0.00000   3.14159
   A12        3.14159   0.00000   0.00000   0.00000   0.00000   3.14159
   A13        3.14159   0.00000   0.00000   0.00000   0.00000   3.14159
   A14        3.14159   0.00000   0.00000   0.00000   0.00000   3.14159
   A15        3.14159   0.00000   0.00000   0.00000   0.00000   3.14159
   A16        3.14159   0.00000   0.00000   0.00000   0.00000   3.14159
         Item               Value     Threshold  Converged?
 Maximum Force            0.001300     0.000450     NO 
 RMS     Force            0.000383     0.000300     NO 
 Maximum Displacement     0.004789     0.001800     NO 
 RMS     Displacement     0.001335     0.001200     NO 
 GradGradGradGradGradGradGradGradGradGradGradGradGradGradGradGradGradGrad

                    Distance matrix (angstroms):
                    1          2          3          4          5
     1  C    0.000000
     2  C    1.209073   0.000000
     3  C    2.572599   1.363526   0.000000
     4  C    3.787844   2.578771   1.215246   0.000000
     5  C    5.146954   3.937881   2.574355   1.359109   0.000000
     6  C    6.362191   5.153118   3.789592   2.574346   1.215237
     7  C    7.725574   6.516501   5.152975   3.937729   2.578620
     8  C    8.934637   7.725564   6.362038   5.146792   3.787683
     9  H    1.034417   2.243490   3.607016   4.822262   6.181371
    10  H    9.969054   8.759981   7.396455   6.181209   4.822100
                    6          7          8          9         10
     6  C    0.000000
     7  C    1.363383   0.000000
     8  C    2.572446   1.209063   0.000000
     9  H    7.396608   8.759991   9.969054   0.000000
    10  H    3.606863   2.243480   1.034417  11.003471   0.000000
 Framework group  C*V[C*(HCCCCCCCCH)]
 Deg. of freedom     9
                         Standard orientation:                         
 ---------------------------------------------------------------------
 Center     Atomic      Atomic             Coordinates (Angstroms)
 Number     Number       Type             X           Y           Z
 ---------------------------------------------------------------------
      1          6           0        0.000000    0.000000   -4.467357
      2          6           0        0.000000    0.000000   -3.258284
      3          6           0        0.000000    0.000000   -1.894759
      4          6           0        0.000000    0.000000   -0.679513
      5          6           0        0.000000    0.000000    0.679597
      6          6           0        0.000000    0.000000    1.894834
      7          6           0        0.000000    0.000000    3.258216
      8          6           0        0.000000    0.000000    4.467279
      9          1           0        0.000000    0.000000   -5.501775
     10          1           0        0.000000    0.000000    5.501696
 ---------------------------------------------------------------------
 Rotational constants (GHZ):      0.0000000      0.5665582      0.5665582
    34 basis functions,   204 primitive gaussians,    34 cartesian basis functions
    17 alpha electrons       17 beta electrons
       nuclear repulsion energy       126.6525893160 Hartrees.
 Do NDO integrals.
 Initial guess read from the read-write file.
 B after Tr=     0.000000    0.000000    0.000000
         Rot=    1.000000    0.000000    0.000000    0.000000 Ang=   0.00 deg.
 Initial guess orbital symmetries:
       Occupied  (SG) (SG) (SG) (SG) (SG) (SG) (SG) (SG) (SG) (PI)
                 (PI) (PI) (PI) (PI) (PI) (PI) (PI)
       Virtual   (PI) (PI) (PI) (PI) (PI) (PI) (PI) (PI) (SG) (SG)
                 (SG) (SG) (SG) (SG) (SG) (SG) (SG)
 Overlap will be assumed to be unity.
 An orbital has undefined symmetry, so N**3 symmetry is turned off.
 SCF Done:  E(RPM6) =  0.349242889561     A.U. after   13 cycles
             Convg  =    0.8671D-08             -V/T =  1.0058
 Calling FoFJK, ICntrl=      2127 FMM=F ISym2X=1 I1Cent= 0 IOpClX= 0 NMat=1 NMatS=1 NMatT=0.

 GradGradGradGradGradGradGradGradGradGradGradGradGradGradGradGradGradGrad
 Using GEDIIS/GDIIS optimizer.
 Internal  Forces:  Max     0.000141062 RMS     0.000051820
 Step number   5 out of a maximum of   35
 All quantities printed in internal units (Hartrees-Bohrs-Radians)
 Mixed Optimization -- En-DIIS/RFO-DIIS
 Swaping is turned off.
 Trust test= 9.76D-01 RLast= 6.71D-03 DXMaxT set to 8.20D-01
     Eigenvalues ---    0.00342   0.00342   0.00344   0.00344   0.00345
     Eigenvalues ---    0.00345   0.00567   0.00567   0.00567   0.00567
     Eigenvalues ---    0.04733   0.04733   0.04735   0.04735   0.04736
     Eigenvalues ---    0.04736   0.26377   0.29240   0.31118   0.37881
     Eigenvalues ---    0.52375   1.04788   1.04839   1.05468   1.07772
 En-DIIS/RFO-DIIS IScMMF=        0 using points:     5    4
 RFO step:  Lambda=-9.14869528D-08.
 DIIS coeffs:      0.97466      0.02534
 Iteration  1 RMS(Cart)=  0.00016659 RMS(Int)=  0.00000001
 Iteration  2 RMS(Cart)=  0.00000002 RMS(Int)=  0.00000001
 ClnCor:  largest displacement from symmetrization is 6.71D-08 for atom    10.
 Variable       Old X    -DE/DX   Delta X   Delta X   Delta X     New X
                                  (DIIS)     (GDIIS)  (Total)
    R1        2.28482   0.00001  -0.00001   0.00001   0.00001   2.28483
    R2        1.95477   0.00002   0.00012  -0.00009   0.00003   1.95480
    R3        2.57669  -0.00011  -0.00001  -0.00041  -0.00042   2.57627
    R4        2.29648   0.00010   0.00001   0.00008   0.00009   2.29657
    R5        2.56834   0.00013   0.00000   0.00039   0.00039   2.56874
    R6        2.29647   0.00014   0.00001   0.00012   0.00013   2.29659
    R7        2.57642   0.00005   0.00000   0.00013   0.00013   2.57655
    R8        2.28480   0.00005  -0.00001   0.00005   0.00005   2.28485
    R9        1.95476   0.00002   0.00012  -0.00009   0.00003   1.95480
    A1        3.14159   0.00000   0.00000   0.00000   0.00000   3.14159
    A2        3.14159   0.00000   0.00000   0.00000   0.00000   3.14159
    A3        3.14159   0.00000   0.00000   0.00000   0.00000   3.14159
    A4        3.14159   0.00000   0.00000   0.00000   0.00000   3.14159
    A5        3.14159   0.00000   0.00000   0.00000   0.00000   3.14159
    A6        3.14159   0.00000   0.00000   0.00000   0.00000   3.14159
    A7        3.14159   0.00000   0.00000   0.00000   0.00000   3.14159
    A8        3.14159   0.00000   0.00000   0.00000   0.00000   3.14159
    A9        3.14159   0.00000   0.00000   0.00000   0.00000   3.14159
   A10        3.14159   0.00000   0.00000   0.00000   0.00000   3.14159
   A11        3.14159   0.00000   0.00000   0.00000   0.00000   3.14159
   A12        3.14159   0.00000   0.00000   0.00000   0.00000   3.14159
   A13        3.14159   0.00000   0.00000   0.00000   0.00000   3.14159
   A14        3.14159   0.00000   0.00000   0.00000   0.00000   3.14159
   A15        3.14159   0.00000   0.00000   0.00000   0.00000   3.14159
   A16        3.14159   0.00000   0.00000   0.00000   0.00000   3.14159
         Item               Value     Threshold  Converged?
 Maximum Force            0.000141     0.000450     YES
 RMS     Force            0.000052     0.000300     YES
 Maximum Displacement     0.000474     0.001800     YES
 RMS     Displacement     0.000167     0.001200     YES
 Optimization completed.
    -- Stationary point found.
                           ----------------------------
                           !   Optimized Parameters   !
                           ! (Angstroms and Degrees)  !
 --------------------------                            --------------------------
 ! Name  Definition              Value          Derivative Info.                !
 --------------------------------------------------------------------------------
 ! R1    R(1,2)                  1.2091         -DE/DX =    0.0                 !
 ! R2    R(1,9)                  1.0344         -DE/DX =    0.0                 !
 ! R3    R(2,3)                  1.3635         -DE/DX =   -0.0001              !
 ! R4    R(3,4)                  1.2152         -DE/DX =    0.0001              !
 ! R5    R(4,5)                  1.3591         -DE/DX =    0.0001              !
 ! R6    R(5,6)                  1.2152         -DE/DX =    0.0001              !
 ! R7    R(6,7)                  1.3634         -DE/DX =    0.0001              !
 ! R8    R(7,8)                  1.2091         -DE/DX =    0.0001              !
 ! R9    R(8,10)                 1.0344         -DE/DX =    0.0                 !
 ! A1    L(2,1,9,-2,-1)        180.0            -DE/DX =    0.0                 !
 ! A2    L(1,2,3,-2,-1)        180.0            -DE/DX =    0.0                 !
 ! A3    L(2,3,4,-2,-1)        180.0            -DE/DX =    0.0                 !
 ! A4    L(3,4,5,-2,-1)        180.0            -DE/DX =    0.0                 !
 ! A5    L(4,5,6,-2,-1)        180.0            -DE/DX =    0.0                 !
 ! A6    L(5,6,7,-2,-1)        180.0            -DE/DX =    0.0                 !
 ! A7    L(6,7,8,-2,-1)        180.0            -DE/DX =    0.0                 !
 ! A8    L(7,8,10,-2,-1)       180.0            -DE/DX =    0.0                 !
 ! A9    L(2,1,9,-3,-2)        180.0            -DE/DX =    0.0                 !
 ! A10   L(1,2,3,-3,-2)        180.0            -DE/DX =    0.0                 !
 ! A11   L(2,3,4,-3,-2)        180.0            -DE/DX =    0.0                 !
 ! A12   L(3,4,5,-3,-2)        180.0            -DE/DX =    0.0                 !
 ! A13   L(4,5,6,-3,-2)        180.0            -DE/DX =    0.0                 !
 ! A14   L(5,6,7,-3,-2)        180.0            -DE/DX =    0.0                 !
 ! A15   L(6,7,8,-3,-2)        180.0            -DE/DX =    0.0                 !
 ! A16   L(7,8,10,-3,-2)       180.0            -DE/DX =    0.0                 !
 --------------------------------------------------------------------------------
 GradGradGradGradGradGradGradGradGradGradGradGradGradGradGradGradGradGrad

                    Distance matrix (angstroms):
                    1          2          3          4          5
     1  C    0.000000
     2  C    1.209073   0.000000
     3  C    2.572599   1.363526   0.000000
     4  C    3.787844   2.578771   1.215246   0.000000
     5  C    5.146954   3.937881   2.574355   1.359109   0.000000
     6  C    6.362191   5.153118   3.789592   2.574346   1.215237
     7  C    7.725574   6.516501   5.152975   3.937729   2.578620
     8  C    8.934637   7.725564   6.362038   5.146792   3.787683
     9  H    1.034417   2.243490   3.607016   4.822262   6.181371
    10  H    9.969054   8.759981   7.396455   6.181209   4.822100
                    6          7          8          9         10
     6  C    0.000000
     7  C    1.363383   0.000000
     8  C    2.572446   1.209063   0.000000
     9  H    7.396608   8.759991   9.969054   0.000000
    10  H    3.606863   2.243480   1.034417  11.003471   0.000000
 Framework group  C*V[C*(HCCCCCCCCH)]
 Deg. of freedom     9
                         Standard orientation:                         
 ---------------------------------------------------------------------
 Center     Atomic      Atomic             Coordinates (Angstroms)
 Number     Number       Type             X           Y           Z
 ---------------------------------------------------------------------
      1          6           0        0.000000    0.000000   -4.467357
      2          6           0        0.000000    0.000000   -3.258284
      3          6           0        0.000000    0.000000   -1.894759
      4          6           0        0.000000    0.000000   -0.679513
      5          6           0        0.000000    0.000000    0.679597
      6          6           0        0.000000    0.000000    1.894834
      7          6           0        0.000000    0.000000    3.258216
      8          6           0        0.000000    0.000000    4.467279
      9          1           0        0.000000    0.000000   -5.501775
     10          1           0        0.000000    0.000000    5.501696
 ---------------------------------------------------------------------
 Rotational constants (GHZ):      0.0000000      0.5665582      0.5665582

 **********************************************************************

            Population analysis using the SCF density.

 **********************************************************************

 Orbital symmetries:
       Occupied  (SG) (SG) (SG) (SG) (SG) (SG) (SG) (SG) (SG) (PI)
                 (PI) (PI) (PI) (PI) (PI) (PI) (PI)
       Virtual   (PI) (PI) (PI) (PI) (PI) (PI) (PI) (PI) (SG) (SG)
                 (SG) (SG) (SG) (SG) (SG) (SG) (SG)
 The electronic state is 1-SG.
 Alpha  occ. eigenvalues --   -1.02457  -1.02345  -1.00799  -0.98596  -0.86236
 Alpha  occ. eigenvalues --   -0.78140  -0.69538  -0.62360  -0.59886  -0.52543
 Alpha  occ. eigenvalues --   -0.52543  -0.48281  -0.48281  -0.42311  -0.42311
 Alpha  occ. eigenvalues --   -0.36115  -0.36115
 Alpha virt. eigenvalues --   -0.02823  -0.02823   0.02681   0.02681   0.07324
 Alpha virt. eigenvalues --    0.07324   0.10117   0.10117   0.11349   0.14458
 Alpha virt. eigenvalues --    0.17673   0.20056   0.20637   0.20970   0.21875
 Alpha virt. eigenvalues --    0.23563   0.23973
          Condensed to atoms (all electrons):
 Mulliken atomic charges:
              1
     1  C   -0.159985
     2  C   -0.027691
     3  C   -0.000735
     4  C   -0.015740
     5  C   -0.015711
     6  C   -0.000758
     7  C   -0.027713
     8  C   -0.159961
     9  H    0.204150
    10  H    0.204145
 Sum of Mulliken atomic charges =   0.00000
 Mulliken charges with hydrogens summed into heavy atoms:
              1
     1  C    0.044164
     2  C   -0.027691
     3  C   -0.000735
     4  C   -0.015740
     5  C   -0.015711
     6  C   -0.000758
     7  C   -0.027713
     8  C    0.044184
 Sum of Mulliken charges with hydrogens summed into heavy atoms =   0.00000
 Charge=              0.0000 electrons
 Dipole moment (field-independent basis, Debye):
    X=              0.0000    Y=              0.0000    Z=             -0.0001  Tot=              0.0001
 1\1\GINC-R2I2N12\FOpt\RPM6\ZDO\C8H2\NOBOYLE\08-Oct-2009\0\\#T PM6 OPT\
 \C#CC#CC#CC#C\\0,1\C,0.9651342523,0.,0.\C,2.1742072644,0.,0.\C,3.53773
 27897,0.,0.\C,4.7529787169,0.,0.\C,6.1120881964,0.,0.\C,7.3273251544,0
 .,0.\C,8.6907079357,0.,0.\C,9.8997710045,0.,0.\H,-0.0692831445,0.,0.\H
 ,10.9341878301,0.,0.\\Version=EM64L-G09RevA.02\State=1-SG\HF=0.3492429
 \RMSD=8.671e-09\RMSF=4.880e-05\Dipole=-0.0000211,0.,0.\PG=C*V [C*(H1C1
 C1C1C1C1C1C1C1H1)]\\@


 ABALONE: AN EXPRESSION OF DISBELIEF.
 Job cpu time:  0 days  0 hours  0 minutes  6.9 seconds.
 File lengths (MBytes):  RWF=      5 Int=      0 D2E=      0 Chk=      2 Scr=      1
 Normal termination of Gaussian 09 at Thu Oct  8 18:37:38 2009.
 Initial command:
 /ichec/packages/gaussian/09a02/l1.exe /ichec/scratch/gaussian/Gau-31484.inp -scrdir=/ichec/scratch/gaussian/
 Entering Link 1 = /ichec/packages/gaussian/09a02/l1.exe PID=     31574.
  
 Copyright (c) 1988,1990,1992,1993,1995,1998,2003,2009, Gaussian, Inc.
                  All Rights Reserved.
  
 This is part of the Gaussian(R) 09 program.  It is based on
 the Gaussian(R) 03 system (copyright 2003, Gaussian, Inc.),
 the Gaussian(R) 98 system (copyright 1998, Gaussian, Inc.),
 the Gaussian(R) 94 system (copyright 1995, Gaussian, Inc.),
 the Gaussian 92(TM) system (copyright 1992, Gaussian, Inc.),
 the Gaussian 90(TM) system (copyright 1990, Gaussian, Inc.),
 the Gaussian 88(TM) system (copyright 1988, Gaussian, Inc.),
 the Gaussian 86(TM) system (copyright 1986, Carnegie Mellon
 University), and the Gaussian 82(TM) system (copyright 1983,
 Carnegie Mellon University). Gaussian is a federally registered
 trademark of Gaussian, Inc.
  
 This software contains proprietary and confidential information,
 including trade secrets, belonging to Gaussian, Inc.
  
 This software is provided under written license and may be
 used, copied, transmitted, or stored only in accord with that
 written license.
  
 The following legend is applicable only to US Government
 contracts under FAR:
  
                    RESTRICTED RIGHTS LEGEND
  
 Use, reproduction and disclosure by the US Government is
 subject to restrictions as set forth in subparagraphs (a)
 and (c) of the Commercial Computer Software - Restricted
 Rights clause in FAR 52.227-19.
  
 Gaussian, Inc.
 340 Quinnipiac St., Bldg. 40, Wallingford CT 06492
  
  
 ---------------------------------------------------------------
 Warning -- This program may not be used in any manner that
 competes with the business of Gaussian, Inc. or will provide
 assistance to any competitor of Gaussian, Inc.  The licensee
 of this program is prohibited from giving any competitor of
 Gaussian, Inc. access to this program.  By using this program,
 the user acknowledges that Gaussian, Inc. is engaged in the
 business of creating and licensing software in the field of
 computational chemistry and represents and warrants to the
 licensee that it is not a competitor of Gaussian, Inc. and that
 it will not use this program in any manner prohibited above.
 ---------------------------------------------------------------
  

 Cite this work as:
 Gaussian 09, Revision A.02,
 M. J. Frisch, G. W. Trucks, H. B. Schlegel, G. E. Scuseria, 
 M. A. Robb, J. R. Cheeseman, G. Scalmani, V. Barone, B. Mennucci, 
 G. A. Petersson, H. Nakatsuji, M. Caricato, X. Li, H. P. Hratchian, 
 A. F. Izmaylov, J. Bloino, G. Zheng, J. L. Sonnenberg, M. Hada, 
 M. Ehara, K. Toyota, R. Fukuda, J. Hasegawa, M. Ishida, T. Nakajima, 
 Y. Honda, O. Kitao, H. Nakai, T. Vreven, J. A. Montgomery, Jr., 
 J. E. Peralta, F. Ogliaro, M. Bearpark, J. J. Heyd, E. Brothers, 
 K. N. Kudin, V. N. Staroverov, R. Kobayashi, J. Normand, 
 K. Raghavachari, A. Rendell, J. C. Burant, S. S. Iyengar, J. Tomasi, 
 M. Cossi, N. Rega, J. M. Millam, M. Klene, J. E. Knox, J. B. Cross, 
 V. Bakken, C. Adamo, J. Jaramillo, R. Gomperts, R. E. Stratmann, 
 O. Yazyev, A. J. Austin, R. Cammi, C. Pomelli, J. W. Ochterski, 
 R. L. Martin, K. Morokuma, V. G. Zakrzewski, G. A. Voth, 
 P. Salvador, J. J. Dannenberg, S. Dapprich, A. D. Daniels, 
 O. Farkas, J. B. Foresman, J. V. Ortiz, J. Cioslowski, 
 and D. J. Fox, Gaussian, Inc., Wallingford CT, 2009.
 
 ******************************************
 Gaussian 09:  EM64L-G09RevA.02 11-Jun-2009
                 8-Oct-2009 
 ******************************************
 %nproc=1
 Will use up to    1 processors via shared memory.
 %mem=1GB
 %Chk=534.chk
 %NoSave
 ---------------------
 # ZINDO Geom=AllCheck
 ---------------------
 1/29=7,38=1/1;
 2/12=2,40=1/2;
 3/5=2,14=-4,16=1,25=1,41=400000/1,2,8,3;
 4/5=3,35=1/1;
 5/5=2,35=1,38=5/2;
 8/6=1/1;
 9/42=1,49=10/14;
 6/7=2,8=2,9=2,10=2/1;
 99/5=1,9=1/99;
 ------------
 C#CC#CC#CC#C
 ------------
 Redundant internal coordinates taken from checkpoint file:
 534.chk
 Charge =  0 Multiplicity = 1
 C,0,0.9651342523,0.,0.
 C,0,2.1742072644,0.,0.
 C,0,3.5377327897,0.,0.
 C,0,4.7529787169,0.,0.
 C,0,6.1120881964,0.,0.
 C,0,7.3273251544,0.,0.
 C,0,8.6907079357,0.,0.
 C,0,9.8997710045,0.,0.
 H,0,-0.0692831445,0.,0.
 H,0,10.9341878301,0.,0.
 Recover connectivity data from disk.
                          Input orientation:                          
 ---------------------------------------------------------------------
 Center     Atomic      Atomic             Coordinates (Angstroms)
 Number     Number       Type             X           Y           Z
 ---------------------------------------------------------------------
      1          6           0        0.965134    0.000000    0.000000
      2          6           0        2.174207    0.000000    0.000000
      3          6           0        3.537733    0.000000    0.000000
      4          6           0        4.752979    0.000000    0.000000
      5          6           0        6.112088    0.000000    0.000000
      6          6           0        7.327325    0.000000    0.000000
      7          6           0        8.690708    0.000000    0.000000
      8          6           0        9.899771    0.000000    0.000000
      9          1           0       -0.069283    0.000000    0.000000
     10          1           0       10.934188    0.000000    0.000000
 ---------------------------------------------------------------------
                    Distance matrix (angstroms):
                    1          2          3          4          5
     1  C    0.000000
     2  C    1.209073   0.000000
     3  C    2.572599   1.363526   0.000000
     4  C    3.787844   2.578771   1.215246   0.000000
     5  C    5.146954   3.937881   2.574355   1.359109   0.000000
     6  C    6.362191   5.153118   3.789592   2.574346   1.215237
     7  C    7.725574   6.516501   5.152975   3.937729   2.578620
     8  C    8.934637   7.725564   6.362038   5.146792   3.787683
     9  H    1.034417   2.243490   3.607016   4.822262   6.181371
    10  H    9.969054   8.759981   7.396455   6.181209   4.822100
                    6          7          8          9         10
     6  C    0.000000
     7  C    1.363383   0.000000
     8  C    2.572446   1.209063   0.000000
     9  H    7.396608   8.759991   9.969054   0.000000
    10  H    3.606863   2.243480   1.034417  11.003471   0.000000
 Stoichiometry    C8H2
 Framework group  C*V[C*(HCCCCCCCCH)]
 Deg. of freedom     9
 Full point group                 C*V     NOp   4
 Largest Abelian subgroup         C2V     NOp   4
 Largest concise Abelian subgroup C1      NOp   1
                         Standard orientation:                         
 ---------------------------------------------------------------------
 Center     Atomic      Atomic             Coordinates (Angstroms)
 Number     Number       Type             X           Y           Z
 ---------------------------------------------------------------------
      1          6           0        0.000000    0.000000   -4.467357
      2          6           0        0.000000    0.000000   -3.258284
      3          6           0        0.000000    0.000000   -1.894759
      4          6           0        0.000000    0.000000   -0.679513
      5          6           0        0.000000    0.000000    0.679597
      6          6           0        0.000000    0.000000    1.894834
      7          6           0        0.000000    0.000000    3.258216
      8          6           0        0.000000    0.000000    4.467279
      9          1           0        0.000000    0.000000   -5.501775
     10          1           0        0.000000    0.000000    5.501696
 ---------------------------------------------------------------------
 Rotational constants (GHZ):      0.0000000      0.5665582      0.5665582
 Standard basis: VSTO-6G (5D, 7F)
 There are    18 symmetry adapted basis functions of A1  symmetry.
 There are     0 symmetry adapted basis functions of A2  symmetry.
 There are     8 symmetry adapted basis functions of B1  symmetry.
 There are     8 symmetry adapted basis functions of B2  symmetry.
 Integral buffers will be    131072 words long.
 Regular integral format.
 Two-electron integral symmetry is turned off.
    34 basis functions,   204 primitive gaussians,    34 cartesian basis functions
    17 alpha electrons       17 beta electrons
       nuclear repulsion energy       101.2426923751 Hartrees.
 Do NDO integrals.
 One-electron integrals computed using PRISM.
 Generate ZINDO/S integrals.
 NDO Nuclear repulsion=    69.821767616206 Hartrees.
 NBasis=    34 RedAO= F  NBF=    18     0     8     8
 NBsUse=    34 1.00D-04 NBFU=    18     0     8     8
 DipDrv:  will hold  3 matrices at once.
 Simple Huckel Guess.
 Initial guess orbital symmetries:
       Occupied  (SG) (SG) (SG) (SG) (SG) (SG) (SG) (SG) (PI) (PI)
                 (SG) (PI) (PI) (PI) (PI) (PI) (PI)
       Virtual   (PI) (PI) (PI) (PI) (PI) (PI) (PI) (PI) (SG) (SG)
                 (SG) (SG) (SG) (SG) (SG) (SG) (SG)
 The electronic state of the initial guess is 1-SG.
 Requested convergence on RMS density matrix=1.00D-08 within 128 cycles.
 Requested convergence on MAX density matrix=1.00D-06.
 Requested convergence on             energy=1.00D-06.
 No special actions if energy rises.
 Overlap will be assumed to be unity.
 SCF Done:  E(RZINDO/S) =  -44.3917723007     A.U. after   10 cycles
             Convg  =    0.5763D-08             -V/T =  0.7824
 Range of M.O.s used for correlation:     1    34
 NBasis=    34 NAE=    17 NBE=    17 NFC=     0 NFV=     0
 NROrb=     34 NOA=    17 NOB=    17 NVA=    17 NVB=    17
 Orbital symmetries:
       Occupied  (SG) (SG) (SG) (SG) (SG) (SG) (SG) (SG) (SG) (PI)
                 (PI) (PI) (PI) (PI) (PI) (PI) (PI)
       Virtual   (PI) (PI) (SG) (PI) (PI) (SG) (PI) (PI) (SG) (PI)
                 (PI) (SG) (SG) (SG) (SG) (SG) (SG)
    12 initial guesses have been made.
 Convergence on wavefunction:    0.001000000000000
 Iteration     1 Dimension    12 NMult    12
 CISAX will form    12 AO SS matrices at one time.
 New state      1 was old state      2
 New state      2 was old state      3
 New state      3 was old state      4
 Iteration     2 Dimension    24 NMult    24
 Iteration     3 Dimension    27 NMult    27
 Iteration     4 Dimension    30 NMult    30
 Iteration     5 Dimension    33 NMult    33
 Iteration     6 Dimension    36 NMult    36
 ***********************************************************************
 Excited states from <AA,BB:AA,BB> singles matrix:
 ***********************************************************************
 
 Ground to excited state transition electric dipole moments (Au):
       state          X           Y           Z        Dip. S.      Osc.
         1         0.0000      0.0000      0.0000      0.0000      0.0000
         2         0.0000      0.0000      0.0000      0.0000      0.0000
         3         0.0000      0.0000      0.0000      0.0000      0.0000
 Ground to excited state transition velocity dipole moments (Au):
       state          X           Y           Z        Dip. S.      Osc.
         1         0.0000      0.0000      0.0000      0.0000      0.0000
         2         0.0000      0.0000      0.0000      0.0000      0.0000
         3         0.0000      0.0000      0.0000      0.0000      0.0000
 Ground to excited state transition magnetic dipole moments (Au):
       state          X           Y           Z
         1         0.0000      0.0000      0.0000
         2         0.0000      0.0000      0.0000
         3         0.0000      0.0000      0.0000
 <0|del|b> * <b|rxdel|0> + <0|del|b> * <b|delr+rdel|0>
 Rotatory Strengths (R) in cgs (10**-40 erg-esu-cm/Gauss)
       state          XX          YY          ZZ    R(velocity)
         1         0.0000      0.0000      0.0000      0.0000
 Total R(velocity) tensor for State=          1
                 1             2             3 
      1   0.000000D+00  0.000000D+00  0.000000D+00
      2   0.000000D+00  0.000000D+00  0.000000D+00
      3   0.000000D+00  0.000000D+00  0.000000D+00
 R(velocity) tensor in inp. orien. for State=          1
                 1             2             3 
      1   0.000000D+00  0.000000D+00  0.000000D+00
      2   0.000000D+00  0.000000D+00  0.000000D+00
      3   0.000000D+00  0.000000D+00  0.000000D+00
         2         0.0000      0.0000      0.0000      0.0000
 Total R(velocity) tensor for State=          2
                 1             2             3 
      1   0.000000D+00  0.000000D+00  0.000000D+00
      2   0.000000D+00  0.000000D+00  0.000000D+00
      3   0.000000D+00  0.000000D+00  0.000000D+00
 R(velocity) tensor in inp. orien. for State=          2
                 1             2             3 
      1   0.000000D+00  0.000000D+00  0.000000D+00
      2   0.000000D+00  0.000000D+00  0.000000D+00
      3   0.000000D+00  0.000000D+00  0.000000D+00
         3         0.0000      0.0000      0.0000      0.0000
 Total R(velocity) tensor for State=          3
                 1             2             3 
      1   0.000000D+00  0.000000D+00  0.000000D+00
      2   0.000000D+00  0.000000D+00  0.000000D+00
      3   0.000000D+00  0.000000D+00  0.000000D+00
 R(velocity) tensor in inp. orien. for State=          3
                 1             2             3 
      1   0.000000D+00  0.000000D+00  0.000000D+00
      2   0.000000D+00  0.000000D+00  0.000000D+00
      3   0.000000D+00  0.000000D+00  0.000000D+00
 1/2[<0|r|b>*<b|rxdel|0> + (<0|rxdel|b>*<b|r|0>)*]
 Rotatory Strengths (R) in cgs (10**-40 erg-esu-cm/Gauss)
       state          XX          YY          ZZ     R(length)     R(au)
         1         0.0000      0.0000      0.0000      0.0000      0.0000
         2         0.0000      0.0000      0.0000      0.0000      0.0000
         3         0.0000      0.0000      0.0000      0.0000      0.0000
  1/2[<0|del|b>*<b|r|0> + (<0|r|b>*<b|del|0>)*] (Au)
       state          X           Y           Z        Dip. S.   Osc.(frdel)
         1         0.0000      0.0000      0.0000      0.0000      0.0000
         2         0.0000      0.0000      0.0000      0.0000      0.0000
         3         0.0000      0.0000      0.0000      0.0000      0.0000
 Ground to excited state transition densities written to RWF  633

 Excitation energies and oscillator strengths:
 
 Excited state symmetry could not be determined.
 Excited State   1:      Singlet-?Sym    2.5938 eV  478.01 nm  f=0.0000  <S**2>=0.000
      14 -> 22         0.12546
      15 -> 21        -0.12546
      16 -> 18         0.41084
      16 -> 19         0.21816
      17 -> 18        -0.21816
      17 -> 19         0.41084
 This state for optimization and/or second-order correction.
 Copying the excited state density for this state as the 1-particle RhoCI density.
 
 Excited state symmetry could not be determined.
 Excited State   2:      Singlet-?Sym    2.9125 eV  425.70 nm  f=0.0000  <S**2>=0.000
      16 -> 18        -0.46130
      16 -> 19        -0.10049
      17 -> 18        -0.10049
      17 -> 19         0.46130
 
 Excited state symmetry could not be determined.
 Excited State   3:      Singlet-?Sym    2.9125 eV  425.70 nm  f=0.0000  <S**2>=0.000
      16 -> 18        -0.10049
      16 -> 19         0.46130
      17 -> 18         0.46130
      17 -> 19         0.10049
 SavETr:  write IOETrn=   770 NScale= 10 NData=  16 NLR=1 LETran=      64.

 **********************************************************************

            Population analysis using the SCF density.

 **********************************************************************

 Orbital symmetries:
       Occupied  (SG) (SG) (SG) (SG) (SG) (SG) (SG) (SG) (SG) (PI)
                 (PI) (PI) (PI) (PI) (PI) (PI) (PI)
       Virtual   (PI) (PI) (SG) (PI) (PI) (SG) (PI) (PI) (SG) (PI)
                 (PI) (SG) (SG) (SG) (SG) (SG) (SG)
 The electronic state is 1-SG.
 Alpha  occ. eigenvalues --   -1.33556  -1.29352  -1.22610  -1.13747  -0.99638
 Alpha  occ. eigenvalues --   -0.87514  -0.76070  -0.67140  -0.61828  -0.51146
 Alpha  occ. eigenvalues --   -0.51146  -0.45841  -0.45841  -0.38349  -0.38349
 Alpha  occ. eigenvalues --   -0.30385  -0.30385
 Alpha virt. eigenvalues --   -0.00734  -0.00734   0.05561   0.05783   0.05783
 Alpha virt. eigenvalues --    0.09177   0.10993   0.10993   0.13731   0.14083
 Alpha virt. eigenvalues --    0.14083   0.18677   0.23885   0.31994   0.41301
 Alpha virt. eigenvalues --    0.51690   0.60236
          Condensed to atoms (all electrons):
              1          2          3          4          5          6
     1  C    4.105767   0.000000   0.000000   0.000000   0.000000   0.000000
     2  C    0.000000   4.001743   0.000000   0.000000   0.000000   0.000000
     3  C    0.000000   0.000000   4.001652   0.000000   0.000000   0.000000
     4  C    0.000000   0.000000   0.000000   4.003219   0.000000   0.000000
     5  C    0.000000   0.000000   0.000000   0.000000   4.003227   0.000000
     6  C    0.000000   0.000000   0.000000   0.000000   0.000000   4.001637
     7  C    0.000000   0.000000   0.000000   0.000000   0.000000   0.000000
     8  C    0.000000   0.000000   0.000000   0.000000   0.000000   0.000000
     9  H    0.000000   0.000000   0.000000   0.000000   0.000000   0.000000
    10  H    0.000000   0.000000   0.000000   0.000000   0.000000   0.000000
              7          8          9         10
     1  C    0.000000   0.000000   0.000000   0.000000
     2  C    0.000000   0.000000   0.000000   0.000000
     3  C    0.000000   0.000000   0.000000   0.000000
     4  C    0.000000   0.000000   0.000000   0.000000
     5  C    0.000000   0.000000   0.000000   0.000000
     6  C    0.000000   0.000000   0.000000   0.000000
     7  C    4.001730   0.000000   0.000000   0.000000
     8  C    0.000000   4.105773   0.000000   0.000000
     9  H    0.000000   0.000000   0.887623   0.000000
    10  H    0.000000   0.000000   0.000000   0.887627
 Mulliken atomic charges:
              1
     1  C   -0.105767
     2  C   -0.001743
     3  C   -0.001652
     4  C   -0.003219
     5  C   -0.003227
     6  C   -0.001637
     7  C   -0.001730
     8  C   -0.105773
     9  H    0.112377
    10  H    0.112373
 Sum of Mulliken atomic charges =   0.00000
 Mulliken charges with hydrogens summed into heavy atoms:
              1
     1  C    0.006610
     2  C   -0.001743
     3  C   -0.001652
     4  C   -0.003219
     5  C   -0.003227
     6  C   -0.001637
     7  C   -0.001730
     8  C    0.006599
 Sum of Mulliken charges with hydrogens summed into heavy atoms =   0.00000
 Charge=              0.0000 electrons
 Dipole moment (field-independent basis, Debye):
    X=              0.0000    Y=              0.0000    Z=              0.0001  Tot=              0.0001
 N-N= 6.982176761621D+01 E-N= 0.000000000000D+00  KE=-2.039690942568D+02
 1\1\GINC-R2I2N12\SP\RZINDO\STO-3G\C8H2\NOBOYLE\08-Oct-2009\0\\# ZINDO 
 Geom=AllCheck\\C#CC#CC#CC#C\\0,1\C,0,0.9651342523,0.,0.\C,0,2.17420726
 44,0.,0.\C,0,3.5377327897,0.,0.\C,0,4.7529787169,0.,0.\C,0,6.112088196
 4,0.,0.\C,0,7.3273251544,0.,0.\C,0,8.6907079357,0.,0.\C,0,9.8997710045
 ,0.,0.\H,0,-0.0692831445,0.,0.\H,0,10.9341878301,0.,0.\\Version=EM64L-
 G09RevA.02\State=1-SG\HF=-44.3917723\RMSD=5.763e-09\PG=C*V [C*(H1C1C1C
 1C1C1C1C1C1H1)]\\@


 THE WHOLE OF SCIENCE IS NOTHING MORE THAN A REFINEMENT OF EVEYDAY THINKING.
                                                              -- A. EINSTEIN
 Job cpu time:  0 days  0 hours  0 minutes  1.6 seconds.
 File lengths (MBytes):  RWF=      9 Int=      0 D2E=      0 Chk=      2 Scr=      1
 Normal termination of Gaussian 09 at Thu Oct  8 18:37:41 2009.
