 Entering Gaussian System, Link 0=g09
 Input=BSL_opt_freq_DFT.com
 Output=BSL_opt_freq_DFT.out
 Initial command:
 /home/sanjeed/g09soft/g09/l1.exe "/home/scratch/Gau-861.inp" -scrdir="/home/scratch/"
 Entering Link 1 = /home/sanjeed/g09soft/g09/l1.exe PID=       863.

 Copyright (c) 1988,1990,1992,1993,1995,1998,2003,2009,2013,
            Gaussian, Inc.  All Rights Reserved.

 This is part of the Gaussian(R) 09 program.  It is based on
 the Gaussian(R) 03 system (copyright 2003, Gaussian, Inc.),
 the Gaussian(R) 98 system (copyright 1998, Gaussian, Inc.),
 the Gaussian(R) 94 system (copyright 1995, Gaussian, Inc.),
 the Gaussian 92(TM) system (copyright 1992, Gaussian, Inc.),
 the Gaussian 90(TM) system (copyright 1990, Gaussian, Inc.),
 the Gaussian 88(TM) system (copyright 1988, Gaussian, Inc.),
 the Gaussian 86(TM) system (copyright 1986, Carnegie Mellon
 University), and the Gaussian 82(TM) system (copyright 1983,
 Carnegie Mellon University). Gaussian is a federally registered
 trademark of Gaussian, Inc.

 This software contains proprietary and confidential information,
 including trade secrets, belonging to Gaussian, Inc.

 This software is provided under written license and may be
 used, copied, transmitted, or stored only in accord with that
 written license.

 The following legend is applicable only to US Government
 contracts under FAR:

                    RESTRICTED RIGHTS LEGEND

 Use, reproduction and disclosure by the US Government is
 subject to restrictions as set forth in subparagraphs (a)
 and (c) of the Commercial Computer Software - Restricted
 Rights clause in FAR 52.227-19.

 Gaussian, Inc.
 340 Quinnipiac St., Bldg. 40, Wallingford CT 06492


 ---------------------------------------------------------------
 Warning -- This program may not be used in any manner that
 competes with the business of Gaussian, Inc. or will provide
 assistance to any competitor of Gaussian, Inc.  The licensee
 of this program is prohibited from giving any competitor of
 Gaussian, Inc. access to this program.  By using this program,
 the user acknowledges that Gaussian, Inc. is engaged in the
 business of creating and licensing software in the field of
 computational chemistry and represents and warrants to the
 licensee that it is not a competitor of Gaussian, Inc. and that
 it will not use this program in any manner prohibited above.
 ---------------------------------------------------------------


 Cite this work as:
 Gaussian 09, Revision D.01,
 M. J. Frisch, G. W. Trucks, H. B. Schlegel, G. E. Scuseria,
 M. A. Robb, J. R. Cheeseman, G. Scalmani, V. Barone, B. Mennucci,
 G. A. Petersson, H. Nakatsuji, M. Caricato, X. Li, H. P. Hratchian,
 A. F. Izmaylov, J. Bloino, G. Zheng, J. L. Sonnenberg, M. Hada,
 M. Ehara, K. Toyota, R. Fukuda, J. Hasegawa, M. Ishida, T. Nakajima,
 Y. Honda, O. Kitao, H. Nakai, T. Vreven, J. A. Montgomery, Jr.,
 J. E. Peralta, F. Ogliaro, M. Bearpark, J. J. Heyd, E. Brothers,
 K. N. Kudin, V. N. Staroverov, T. Keith, R. Kobayashi, J. Normand,
 K. Raghavachari, A. Rendell, J. C. Burant, S. S. Iyengar, J. Tomasi,
 M. Cossi, N. Rega, J. M. Millam, M. Klene, J. E. Knox, J. B. Cross,
 V. Bakken, C. Adamo, J. Jaramillo, R. Gomperts, R. E. Stratmann,
 O. Yazyev, A. J. Austin, R. Cammi, C. Pomelli, J. W. Ochterski,
 R. L. Martin, K. Morokuma, V. G. Zakrzewski, G. A. Voth,
 P. Salvador, J. J. Dannenberg, S. Dapprich, A. D. Daniels,
 O. Farkas, J. B. Foresman, J. V. Ortiz, J. Cioslowski,
 and D. J. Fox, Gaussian, Inc., Wallingford CT, 2013.

 ******************************************
 Gaussian 09:  ES64L-G09RevD.01 24-Apr-2013
                 8-Sep-2015
 ******************************************
 %mem=2800MB
 %nprocshared=4
 Will use up to    4 processors via shared memory.
 %chk=BSe-B1-2.chk
 -----------------------------------------------------
 # opt freq rb3lyp/6-311++g(3df,3pd) geom=connectivity
 -----------------------------------------------------
 1/14=-1,18=20,19=15,26=3,38=1,57=2/1,3;
 2/9=110,12=2,17=6,18=5,40=1/2;
 3/5=4,6=6,7=1616,11=2,16=1,25=1,30=1,71=1,74=-5,116=1/1,2,3;
 4//1;
 5/5=2,38=5/2;
 6/7=2,8=2,9=2,10=2,28=1/1;
 7//1,2,3,16;
 1/14=-1,18=20,19=15,26=3/3(2);
 2/9=110/2;
 99//99;
 2/9=110/2;
 3/5=4,6=6,7=1616,11=2,16=1,25=1,30=1,71=1,74=-5,116=1/1,2,3;
 4/5=5,16=3,69=1/1;
 5/5=2,38=5/2;
 7//1,2,3,16;
 1/14=-1,18=20,19=15,26=3/3(-5);
 2/9=110/2;
 6/7=2,8=2,9=2,10=2,19=2,28=1/1;
 99/9=1/99;
 -----------------------------
 BenzeneSelenol WB97XD-CC-PVDZ
 -----------------------------
 Symbolic Z-matrix:
 Charge =  0 Multiplicity = 1
 C                    -2.89825  -0.00234   0.00408
 C                    -2.20111   1.20428  -0.03739
 C                    -0.8068    1.20847  -0.04207
 C                    -0.10599   0.00031   0.00498
 C                    -0.80442  -1.20929   0.04103
 C                    -2.1991   -1.20752   0.04124
 H                    -3.98978  -0.00323   0.00436
 H                    -2.7439    2.15073  -0.0705
 H                    -0.2596    2.15144  -0.08256
 H                    -0.25534  -2.15154   0.0706
 H                    -2.74006  -2.15514   0.07079
 Se                    1.82626  -0.00367  -0.04339
 H                     1.97993   1.0884    0.93443


 GradGradGradGradGradGradGradGradGradGradGradGradGradGradGradGradGradGrad
 Berny optimization.
 Initialization pass.
                           ----------------------------
                           !    Initial Parameters    !
                           ! (Angstroms and Degrees)  !
 --------------------------                            --------------------------
 ! Name  Definition              Value          Derivative Info.                !
 --------------------------------------------------------------------------------
 ! R1    R(1,2)                  1.3941         estimate D2E/DX2                !
 ! R2    R(1,6)                  1.3938         estimate D2E/DX2                !
 ! R3    R(1,7)                  1.0915         estimate D2E/DX2                !
 ! R4    R(2,3)                  1.3943         estimate D2E/DX2                !
 ! R5    R(2,8)                  1.0916         estimate D2E/DX2                !
 ! R6    R(3,4)                  1.3975         estimate D2E/DX2                !
 ! R7    R(3,9)                  1.091          estimate D2E/DX2                !
 ! R8    R(4,5)                  1.3972         estimate D2E/DX2                !
 ! R9    R(4,12)                 1.9329         estimate D2E/DX2                !
 ! R10   R(5,6)                  1.3947         estimate D2E/DX2                !
 ! R11   R(5,10)                 1.091          estimate D2E/DX2                !
 ! R12   R(6,11)                 1.0916         estimate D2E/DX2                !
 ! R13   R(12,13)                1.4739         estimate D2E/DX2                !
 ! A1    A(2,1,6)              119.8896         estimate D2E/DX2                !
 ! A2    A(2,1,7)              120.0508         estimate D2E/DX2                !
 ! A3    A(6,1,7)              120.0593         estimate D2E/DX2                !
 ! A4    A(1,2,3)              120.182          estimate D2E/DX2                !
 ! A5    A(1,2,8)              120.1773         estimate D2E/DX2                !
 ! A6    A(3,2,8)              119.6402         estimate D2E/DX2                !
 ! A7    A(2,3,4)              119.9177         estimate D2E/DX2                !
 ! A8    A(2,3,9)              120.2842         estimate D2E/DX2                !
 ! A9    A(4,3,9)              119.7981         estimate D2E/DX2                !
 ! A10   A(3,4,5)              119.9088         estimate D2E/DX2                !
 ! A11   A(3,4,12)             120.1492         estimate D2E/DX2                !
 ! A12   A(5,4,12)             119.9059         estimate D2E/DX2                !
 ! A13   A(4,5,6)              119.9192         estimate D2E/DX2                !
 ! A14   A(4,5,10)             119.7903         estimate D2E/DX2                !
 ! A15   A(6,5,10)             120.2904         estimate D2E/DX2                !
 ! A16   A(1,6,5)              120.179          estimate D2E/DX2                !
 ! A17   A(1,6,11)             120.1849         estimate D2E/DX2                !
 ! A18   A(5,6,11)             119.636          estimate D2E/DX2                !
 ! A19   A(4,12,13)             94.9396         estimate D2E/DX2                !
 ! D1    D(6,1,2,3)              0.0139         estimate D2E/DX2                !
 ! D2    D(6,1,2,8)            179.7629         estimate D2E/DX2                !
 ! D3    D(7,1,2,3)           -179.799          estimate D2E/DX2                !
 ! D4    D(7,1,2,8)             -0.0501         estimate D2E/DX2                !
 ! D5    D(2,1,6,5)              0.1897         estimate D2E/DX2                !
 ! D6    D(2,1,6,11)          -179.8182         estimate D2E/DX2                !
 ! D7    D(7,1,6,5)           -179.9974         estimate D2E/DX2                !
 ! D8    D(7,1,6,11)            -0.0053         estimate D2E/DX2                !
 ! D9    D(1,2,3,4)             -0.4773         estimate D2E/DX2                !
 ! D10   D(1,2,3,9)            179.5092         estimate D2E/DX2                !
 ! D11   D(8,2,3,4)            179.7724         estimate D2E/DX2                !
 ! D12   D(8,2,3,9)             -0.2411         estimate D2E/DX2                !
 ! D13   D(2,3,4,5)              0.7368         estimate D2E/DX2                !
 ! D14   D(2,3,4,12)           178.5518         estimate D2E/DX2                !
 ! D15   D(9,3,4,5)           -179.2498         estimate D2E/DX2                !
 ! D16   D(9,3,4,12)            -1.4348         estimate D2E/DX2                !
 ! D17   D(3,4,5,6)             -0.5343         estimate D2E/DX2                !
 ! D18   D(3,4,5,10)           179.5674         estimate D2E/DX2                !
 ! D19   D(12,4,5,6)          -178.3546         estimate D2E/DX2                !
 ! D20   D(12,4,5,10)            1.7471         estimate D2E/DX2                !
 ! D21   D(3,4,12,13)           45.0            estimate D2E/DX2                !
 ! D22   D(5,4,12,13)         -137.1849         estimate D2E/DX2                !
 ! D23   D(4,5,6,1)              0.0711         estimate D2E/DX2                !
 ! D24   D(4,5,6,11)          -179.9211         estimate D2E/DX2                !
 ! D25   D(10,5,6,1)           179.9689         estimate D2E/DX2                !
 ! D26   D(10,5,6,11)           -0.0233         estimate D2E/DX2                !
 --------------------------------------------------------------------------------
 Trust Radius=3.00D-01 FncErr=1.00D-07 GrdErr=1.00D-06
 Number of steps in this run=     68 maximum allowed number of steps=    100.
 GradGradGradGradGradGradGradGradGradGradGradGradGradGradGradGradGradGrad

                          Input orientation:
 ---------------------------------------------------------------------
 Center     Atomic      Atomic             Coordinates (Angstroms)
 Number     Number       Type             X           Y           Z
 ---------------------------------------------------------------------
      1          6           0       -2.898247   -0.002337    0.004080
      2          6           0       -2.201106    1.204277   -0.037388
      3          6           0       -0.806803    1.208473   -0.042074
      4          6           0       -0.105988    0.000306    0.004978
      5          6           0       -0.804415   -1.209286    0.041032
      6          6           0       -2.199103   -1.207521    0.041238
      7          1           0       -3.989782   -0.003234    0.004355
      8          1           0       -2.743903    2.150731   -0.070496
      9          1           0       -0.259596    2.151439   -0.082563
     10          1           0       -0.255337   -2.151542    0.070595
     11          1           0       -2.740058   -2.155138    0.070790
     12         34           0        1.826255   -0.003672   -0.043393
     13          1           0        1.979931    1.088396    0.934429
 ---------------------------------------------------------------------
                    Distance matrix (angstroms):
                    1          2          3          4          5
     1  C    0.000000
     2  C    1.394145   0.000000
     3  C    2.417091   1.394317   0.000000
     4  C    2.792260   2.416787   1.397506   0.000000
     5  C    2.417069   2.789656   2.419187   1.397216   0.000000
     6  C    1.393790   2.413079   2.789707   2.416876   1.394689
     7  H    1.091536   2.158516   3.406134   3.883796   3.406240
     8  H    2.159881   1.091559   2.154302   3.404207   3.881207
     9  H    3.407159   2.160698   1.090990   2.158386   3.406842
    10  H    3.407122   3.880618   3.406833   2.158023   1.090967
    11  H    2.159635   3.404091   3.881248   3.404202   2.154585
    12  Se   4.724741   4.204618   2.898670   1.932852   2.895006
    13  H    5.084474   4.294057   2.955311   2.529600   3.718882
                    6          7          8          9         10
     6  C    0.000000
     7  H    2.158286   0.000000
     8  H    3.403990   2.489455   0.000000
     9  H    3.880673   4.308650   2.484337   0.000000
    10  H    2.161079   4.308793   4.972165   4.305708   0.000000
    11  H    1.091551   2.489360   4.308188   4.972204   2.484724
    12  Se   4.202371   5.816234   5.052577   2.999469   2.993220
    13  H    4.851118   6.139559   4.945002   2.679518   4.029868
                   11         12         13
    11  H    0.000000
    12  Se   5.049065   0.000000
    13  H    5.791777   1.473894   0.000000
 Stoichiometry    C6H6Se
 Framework group  C1[X(C6H6Se)]
 Deg. of freedom    33
 Full point group                 C1      NOp   1
 Largest Abelian subgroup         C1      NOp   1
 Largest concise Abelian subgroup C1      NOp   1
                         Standard orientation:
 ---------------------------------------------------------------------
 Center     Atomic      Atomic             Coordinates (Angstroms)
 Number     Number       Type             X           Y           Z
 ---------------------------------------------------------------------
      1          6           0       -2.898140    0.013065   -0.000279
      2          6           0       -2.189434    1.213444   -0.021934
      3          6           0       -0.795146    1.204406   -0.021543
      4          6           0       -0.106004   -0.010939    0.010704
      5          6           0       -0.816004   -1.214206    0.026899
      6          6           0       -2.210603   -1.199141    0.022113
      7          1           0       -3.989628    0.022576   -0.003944
      8          1           0       -2.723102    2.165409   -0.043423
      9          1           0       -0.238872    2.142593   -0.046539
     10          1           0       -0.276003   -2.161984    0.044925
     11          1           0       -2.760630   -2.141880    0.036128
     12         34           0        1.826281   -0.032656   -0.030766
     13          1           0        1.986658    1.043800    0.963158
 ---------------------------------------------------------------------
 Rotational constants (GHZ):      5.5601217      0.9535809      0.8166617
 Standard basis: 6-311++G(3df,3pd) (5D, 7F)
 There are   457 symmetry adapted cartesian basis functions of A   symmetry.
 There are   407 symmetry adapted basis functions of A   symmetry.
   407 basis functions,   590 primitive gaussians,   457 cartesian basis functions
    38 alpha electrons       38 beta electrons
       nuclear repulsion energy       438.7671284213 Hartrees.
 NAtoms=   13 NActive=   13 NUniq=   13 SFac= 1.00D+00 NAtFMM=   60 NAOKFM=F Big=F
 Integral buffers will be    131072 words long.
 Raffenetti 2 integral format.
 Two-electron integral symmetry is turned on.
 One-electron integrals computed using PRISM.
 NBasis=   407 RedAO= T EigKep=  4.89D-06  NBF=   407
 NBsUse=   405 1.00D-06 EigRej=  7.59D-07 NBFU=   405
 ExpMin= 3.00D-02 ExpMax= 4.05D+05 ExpMxC= 1.39D+04 IAcc=3 IRadAn=         5 AccDes= 0.00D+00
 Harris functional with IExCor=  402 and IRadAn=       5 diagonalized for initial guess.
 HarFok:  IExCor=  402 AccDes= 0.00D+00 IRadAn=         5 IDoV= 1 UseB2=F ITyADJ=14
 ICtDFT=  3500011 ScaDFX=  1.000000  1.000000  1.000000  1.000000
 FoFCou: FMM=F IPFlag=           0 FMFlag=      100000 FMFlg1=           0
         NFxFlg=           0 DoJE=T BraDBF=F KetDBF=T FulRan=T
         wScrn=  0.000000 ICntrl=     500 IOpCl=  0 I1Cent=   200000004 NGrid=           0
         NMat0=    1 NMatS0=      1 NMatT0=    0 NMatD0=    1 NMtDS0=    0 NMtDT0=    0
 Petite list used in FoFCou.
 Requested convergence on RMS density matrix=1.00D-08 within 128 cycles.
 Requested convergence on MAX density matrix=1.00D-06.
 Requested convergence on             energy=1.00D-06.
 No special actions if energy rises.
 SCF Done:  E(RB3LYP) =  -2633.87684594     A.U. after   14 cycles
            NFock= 14  Conv=0.29D-08     -V/T= 2.0017

 **********************************************************************

            Population analysis using the SCF density.

 **********************************************************************

 Orbital symmetries:
       Occupied  (A) (A) (A) (A) (A) (A) (A) (A) (A) (A) (A) (A)
                 (A) (A) (A) (A) (A) (A) (A) (A) (A) (A) (A) (A)
                 (A) (A) (A) (A) (A) (A) (A) (A) (A) (A) (A) (A)
                 (A) (A)
       Virtual   (A) (A) (A) (A) (A) (A) (A) (A) (A) (A) (A) (A)
                 (A) (A) (A) (A) (A) (A) (A) (A) (A) (A) (A) (A)
                 (A) (A) (A) (A) (A) (A) (A) (A) (A) (A) (A) (A)
                 (A) (A) (A) (A) (A) (A) (A) (A) (A) (A) (A) (A)
                 (A) (A) (A) (A) (A) (A) (A) (A) (A) (A) (A) (A)
                 (A) (A) (A) (A) (A) (A) (A) (A) (A) (A) (A) (A)
                 (A) (A) (A) (A) (A) (A) (A) (A) (A) (A) (A) (A)
                 (A) (A) (A) (A) (A) (A) (A) (A) (A) (A) (A) (A)
                 (A) (A) (A) (A) (A) (A) (A) (A) (A) (A) (A) (A)
                 (A) (A) (A) (A) (A) (A) (A) (A) (A) (A) (A) (A)
                 (A) (A) (A) (A) (A) (A) (A) (A) (A) (A) (A) (A)
                 (A) (A) (A) (A) (A) (A) (A) (A) (A) (A) (A) (A)
                 (A) (A) (A) (A) (A) (A) (A) (A) (A) (A) (A) (A)
                 (A) (A) (A) (A) (A) (A) (A) (A) (A) (A) (A) (A)
                 (A) (A) (A) (A) (A) (A) (A) (A) (A) (A) (A) (A)
                 (A) (A) (A) (A) (A) (A) (A) (A) (A) (A) (A) (A)
                 (A) (A) (A) (A) (A) (A) (A) (A) (A) (A) (A) (A)
                 (A) (A) (A) (A) (A) (A) (A) (A) (A) (A) (A) (A)
                 (A) (A) (A) (A) (A) (A) (A) (A) (A) (A) (A) (A)
                 (A) (A) (A) (A) (A) (A) (A) (A) (A) (A) (A) (A)
                 (A) (A) (A) (A) (A) (A) (A) (A) (A) (A) (A) (A)
                 (A) (A) (A) (A) (A) (A) (A) (A) (A) (A) (A) (A)
                 (A) (A) (A) (A) (A) (A) (A) (A) (A) (A) (A) (A)
                 (A) (A) (A) (A) (A) (A) (A) (A) (A) (A) (A) (A)
                 (A) (A) (A) (A) (A) (A) (A) (A) (A) (A) (A) (A)
                 (A) (A) (A) (A) (A) (A) (A) (A) (A) (A) (A) (A)
                 (A) (A) (A) (A) (A) (A) (A) (A) (A) (A) (A) (A)
                 (A) (A) (A) (A) (A) (A) (A) (A) (A) (A) (A) (A)
                 (A) (A) (A) (A) (A) (A) (A) (A) (A) (A) (A) (A)
                 (A) (A) (A) (A) (A) (A) (A) (A) (A) (A) (A) (A)
                 (A) (A) (A) (A) (A) (A) (A)
 The electronic state is 1-A.
 Alpha  occ. eigenvalues -- -453.87975 -58.07532 -52.12976 -52.12856 -52.12610
 Alpha  occ. eigenvalues --  -10.21545 -10.18920 -10.18879 -10.18794 -10.18788
 Alpha  occ. eigenvalues --  -10.18549  -7.81783  -5.76396  -5.76009  -5.75211
 Alpha  occ. eigenvalues --   -2.11444  -2.11374  -2.10689  -2.10378  -2.10268
 Alpha  occ. eigenvalues --   -0.87108  -0.77666  -0.75968  -0.69632  -0.61872
 Alpha  occ. eigenvalues --   -0.59811  -0.52401  -0.46839  -0.46282  -0.43530
 Alpha  occ. eigenvalues --   -0.42008  -0.39284  -0.37162  -0.35944  -0.33029
 Alpha  occ. eigenvalues --   -0.28402  -0.26926  -0.22982
 Alpha virt. eigenvalues --   -0.03696  -0.02733  -0.01642  -0.00434   0.00285
 Alpha virt. eigenvalues --    0.00796   0.02474   0.03144   0.03783   0.04418
 Alpha virt. eigenvalues --    0.04863   0.06100   0.06794   0.06915   0.08948
 Alpha virt. eigenvalues --    0.09508   0.10655   0.10725   0.10939   0.10963
 Alpha virt. eigenvalues --    0.11336   0.11875   0.12130   0.12509   0.13112
 Alpha virt. eigenvalues --    0.13403   0.14674   0.15102   0.15982   0.16252
 Alpha virt. eigenvalues --    0.17091   0.17613   0.18041   0.18371   0.19765
 Alpha virt. eigenvalues --    0.20102   0.21853   0.22897   0.23493   0.23751
 Alpha virt. eigenvalues --    0.25613   0.26392   0.26860   0.27144   0.27501
 Alpha virt. eigenvalues --    0.27792   0.29165   0.30257   0.31354   0.32782
 Alpha virt. eigenvalues --    0.33361   0.33939   0.34815   0.35312   0.37350
 Alpha virt. eigenvalues --    0.38036   0.39603   0.40822   0.41557   0.41871
 Alpha virt. eigenvalues --    0.43549   0.43735   0.44202   0.45273   0.46332
 Alpha virt. eigenvalues --    0.46795   0.48455   0.49268   0.50809   0.50910
 Alpha virt. eigenvalues --    0.52030   0.53134   0.53554   0.54749   0.55515
 Alpha virt. eigenvalues --    0.55822   0.56501   0.57112   0.57311   0.57640
 Alpha virt. eigenvalues --    0.59131   0.59486   0.60974   0.62087   0.63965
 Alpha virt. eigenvalues --    0.64724   0.64855   0.65816   0.66206   0.67352
 Alpha virt. eigenvalues --    0.67975   0.69591   0.69731   0.71586   0.72626
 Alpha virt. eigenvalues --    0.73737   0.74715   0.75640   0.76077   0.76508
 Alpha virt. eigenvalues --    0.77060   0.79220   0.81191   0.81996   0.83152
 Alpha virt. eigenvalues --    0.85664   0.87266   0.88264   0.90136   0.92010
 Alpha virt. eigenvalues --    0.92313   0.92816   0.94106   0.96975   0.97184
 Alpha virt. eigenvalues --    0.97867   0.98353   0.99487   1.01972   1.02282
 Alpha virt. eigenvalues --    1.03825   1.12506   1.12799   1.17098   1.23013
 Alpha virt. eigenvalues --    1.25610   1.26479   1.27638   1.27921   1.29655
 Alpha virt. eigenvalues --    1.30275   1.31251   1.33472   1.35401   1.37155
 Alpha virt. eigenvalues --    1.38223   1.38632   1.40393   1.42185   1.42683
 Alpha virt. eigenvalues --    1.43177   1.44538   1.47156   1.49358   1.49634
 Alpha virt. eigenvalues --    1.50974   1.51685   1.52182   1.53428   1.53585
 Alpha virt. eigenvalues --    1.55246   1.56429   1.56954   1.58181   1.61049
 Alpha virt. eigenvalues --    1.70082   1.70874   1.71050   1.71907   1.77460
 Alpha virt. eigenvalues --    1.77843   1.80603   1.83205   1.85343   1.92250
 Alpha virt. eigenvalues --    1.93313   1.97169   1.97375   1.99008   1.99556
 Alpha virt. eigenvalues --    1.99934   2.00080   2.01062   2.01960   2.03561
 Alpha virt. eigenvalues --    2.05000   2.11009   2.13496   2.17661   2.18673
 Alpha virt. eigenvalues --    2.19156   2.28987   2.31769   2.32287   2.36799
 Alpha virt. eigenvalues --    2.37908   2.38743   2.41673   2.45915   2.48468
 Alpha virt. eigenvalues --    2.48923   2.50504   2.51650   2.54410   2.59146
 Alpha virt. eigenvalues --    2.61231   2.62287   2.63190   2.65760   2.67773
 Alpha virt. eigenvalues --    2.68240   2.72456   2.74199   2.75348   2.76220
 Alpha virt. eigenvalues --    2.79652   2.79847   2.82741   2.83721   2.85061
 Alpha virt. eigenvalues --    2.87360   2.89745   2.91122   2.92160   2.93452
 Alpha virt. eigenvalues --    2.97444   2.99129   2.99487   2.99604   3.00394
 Alpha virt. eigenvalues --    3.05253   3.05956   3.06872   3.08532   3.09433
 Alpha virt. eigenvalues --    3.10432   3.11711   3.13239   3.14330   3.15787
 Alpha virt. eigenvalues --    3.20568   3.26679   3.27450   3.28370   3.34356
 Alpha virt. eigenvalues --    3.34393   3.36295   3.37177   3.37881   3.41446
 Alpha virt. eigenvalues --    3.45223   3.49221   3.55737   3.56709   3.58666
 Alpha virt. eigenvalues --    3.61931   3.63789   3.65736   3.68392   3.76113
 Alpha virt. eigenvalues --    3.76717   3.77112   3.77726   3.80735   3.80745
 Alpha virt. eigenvalues --    3.82114   3.82597   3.86083   3.87597   3.91439
 Alpha virt. eigenvalues --    3.93959   4.00680   4.01690   4.07709   4.11752
 Alpha virt. eigenvalues --    4.17274   4.30165   4.30874   4.35815   4.35917
 Alpha virt. eigenvalues --    4.36575   4.40460   4.41779   4.46405   4.47074
 Alpha virt. eigenvalues --    4.48155   4.48229   4.57441   4.58115   4.66800
 Alpha virt. eigenvalues --    4.68361   4.71069   4.72665   4.83268   4.83703
 Alpha virt. eigenvalues --    4.87243   4.90026   4.98296   5.00914   5.18475
 Alpha virt. eigenvalues --    5.23188   5.51483   5.65756   5.72045   5.73839
 Alpha virt. eigenvalues --    5.79204   5.87106   6.13543   6.14900   6.17159
 Alpha virt. eigenvalues --    6.22184   6.34532   6.42290   6.47766   7.06818
 Alpha virt. eigenvalues --    7.10857   7.15587   7.20161   7.21639   7.22617
 Alpha virt. eigenvalues --    7.24199   7.24335   7.31031   7.36361   7.38895
 Alpha virt. eigenvalues --    7.42018   7.42753   7.43906   7.46738   7.47551
 Alpha virt. eigenvalues --    7.52136   7.52755   7.63613   7.63998   7.74056
 Alpha virt. eigenvalues --    7.82285   7.83072   7.85678   7.89631   7.91332
 Alpha virt. eigenvalues --    7.92682   7.95355   8.22838   8.23402   8.28756
 Alpha virt. eigenvalues --    8.29586   8.30742   8.37406   8.37997   8.40125
 Alpha virt. eigenvalues --    8.41610   8.42644   8.42841   8.46384   8.49650
 Alpha virt. eigenvalues --    8.57701   8.63030   8.69484   8.73687   9.24711
 Alpha virt. eigenvalues --    9.37738   9.38732   9.61441   9.64567   9.68704
 Alpha virt. eigenvalues --    9.81452  24.84345  25.43257  25.63368  25.76868
 Alpha virt. eigenvalues --   25.81803  26.06219  52.27025 260.72783 261.04587
 Alpha virt. eigenvalues --  261.12222 961.11674
          Condensed to atoms (all electrons):
               1          2          3          4          5          6
     1  C    6.319980   0.061287  -0.072684  -0.050789  -0.094395   0.063387
     2  C    0.061287   6.313663   0.159275  -0.457084  -0.132824  -0.152134
     3  C   -0.072684   0.159275   8.198925  -0.898349  -1.599569  -0.094537
     4  C   -0.050789  -0.457084  -0.898349   8.084851  -0.492167  -0.342367
     5  C   -0.094395  -0.132824  -1.599569  -0.492167   8.052650   0.134460
     6  C    0.063387  -0.152134  -0.094537  -0.342367   0.134460   6.206558
     7  H    0.491633  -0.144405   0.004195  -0.006719   0.004680  -0.142746
     8  H   -0.140731   0.433104  -0.119870  -0.011122  -0.014064   0.022870
     9  H    0.004293  -0.172702   0.429380  -0.104053   0.015301  -0.006311
    10  H   -0.000105  -0.004550   0.047407  -0.092496   0.397491  -0.174797
    11  H   -0.138525   0.018226  -0.011219  -0.001301  -0.128235   0.433481
    12  Se   0.022704   0.022761  -0.218157   0.130694  -0.012349   0.017315
    13  H    0.003149   0.001734   0.126907  -0.077083  -0.083659  -0.000679
               7          8          9         10         11         12
     1  C    0.491633  -0.140731   0.004293  -0.000105  -0.138525   0.022704
     2  C   -0.144405   0.433104  -0.172702  -0.004550   0.018226   0.022761
     3  C    0.004195  -0.119870   0.429380   0.047407  -0.011219  -0.218157
     4  C   -0.006719  -0.011122  -0.104053  -0.092496  -0.001301   0.130694
     5  C    0.004680  -0.014064   0.015301   0.397491  -0.128235  -0.012349
     6  C   -0.142746   0.022870  -0.006311  -0.174797   0.433481   0.017315
     7  H    0.765824  -0.001830   0.000071   0.000153  -0.001612   0.000335
     8  H   -0.001830   0.764809   0.005199   0.000067   0.002617  -0.000903
     9  H    0.000071   0.005199   0.803580  -0.000135   0.000123  -0.006797
    10  H    0.000153   0.000067  -0.000135   0.794905   0.004587  -0.015621
    11  H   -0.001612   0.002617   0.000123   0.004587   0.762821  -0.000859
    12  Se   0.000335  -0.000903  -0.006797  -0.015621  -0.000859  33.898381
    13  H    0.000027  -0.000591  -0.000270  -0.000905   0.000041   0.333925
              13
     1  C    0.003149
     2  C    0.001734
     3  C    0.126907
     4  C   -0.077083
     5  C   -0.083659
     6  C   -0.000679
     7  H    0.000027
     8  H   -0.000591
     9  H   -0.000270
    10  H   -0.000905
    11  H    0.000041
    12  Se   0.333925
    13  H    0.691897
 Mulliken charges:
               1
     1  C   -0.469204
     2  C    0.053649
     3  C    0.048295
     4  C    0.317985
     5  C   -0.047320
     6  C    0.035501
     7  H    0.030397
     8  H    0.060446
     9  H    0.032322
    10  H    0.043999
    11  H    0.059855
    12  Se  -0.171430
    13  H    0.005507
 Sum of Mulliken charges =   0.00000
 Mulliken charges with hydrogens summed into heavy atoms:
               1
     1  C   -0.438807
     2  C    0.114094
     3  C    0.080617
     4  C    0.317985
     5  C   -0.003321
     6  C    0.095356
    12  Se  -0.165924
 Electronic spatial extent (au):  <R**2>=           1262.3718
 Charge=              0.0000 electrons
 Dipole moment (field-independent basis, Debye):
    X=             -1.1266    Y=              0.3800    Z=              0.3238  Tot=              1.2322
 Quadrupole moment (field-independent basis, Debye-Ang):
   XX=            -50.9498   YY=            -49.7683   ZZ=            -58.1260
   XY=              1.1764   XZ=              1.0105   YZ=              1.5578
 Traceless Quadrupole moment (field-independent basis, Debye-Ang):
   XX=              1.9982   YY=              3.1798   ZZ=             -5.1780
   XY=              1.1764   XZ=              1.0105   YZ=              1.5578
 Octapole moment (field-independent basis, Debye-Ang**2):
  XXX=             40.9394  YYY=             -0.8329  ZZZ=             -0.7901  XYY=             12.7207
  XXY=              2.5159  XXZ=              1.9860  XZZ=             24.9098  YZZ=              0.0015
  YYZ=             -0.0358  XYZ=              3.8282
 Hexadecapole moment (field-independent basis, Debye-Ang**3):
 XXXX=          -1103.1475 YYYY=           -305.6045 ZZZZ=            -78.7754 XXXY=              5.4671
 XXXZ=              4.6102 YYYX=             -0.4030 YYYZ=              1.6420 ZZZX=             -0.8119
 ZZZY=              3.0711 XXYY=           -237.9007 XXZZ=           -230.0233 YYZZ=            -74.1108
 XXYZ=              6.6973 YYXZ=              0.4866 ZZXY=              0.3067
 N-N= 4.387671284213D+02 E-N=-7.157246459397D+03  KE= 2.629407094067D+03
 Calling FoFJK, ICntrl=      2127 FMM=F ISym2X=0 I1Cent= 0 IOpClX= 0 NMat=1 NMatS=1 NMatT=0.
 ***** Axes restored to original set *****
 -------------------------------------------------------------------
 Center     Atomic                   Forces (Hartrees/Bohr)
 Number     Number              X              Y              Z
 -------------------------------------------------------------------
      1        6          -0.004122579   -0.000744205   -0.000069327
      2        6           0.000245672    0.002194753    0.000805710
      3        6          -0.000453548    0.001999769    0.000344954
      4        6          -0.004048561    0.001974452   -0.000203129
      5        6           0.003372744   -0.001757909   -0.000313601
      6        6          -0.001008791   -0.001398792   -0.001228291
      7        1           0.006669480   -0.000012631    0.000090194
      8        1           0.003248439   -0.005603772    0.000231257
      9        1          -0.004041021   -0.005463594   -0.000343019
     10        1          -0.003679117    0.005297567    0.000761831
     11        1           0.003323209    0.005656659   -0.000104580
     12       34           0.000486318   -0.001077130    0.001112500
     13        1           0.000007755   -0.001065167   -0.001084499
 -------------------------------------------------------------------
 Cartesian Forces:  Max     0.006669480 RMS     0.002725741

 GradGradGradGradGradGradGradGradGradGradGradGradGradGradGradGradGradGrad
 Berny optimization.
 FormGI is forming the generalized inverse of G from B-inverse, IUseBI=4.
 Internal  Forces:  Max     0.006736556 RMS     0.002486605
 Search for a local minimum.
 Step number   1 out of a maximum of   68
 All quantities printed in internal units (Hartrees-Bohrs-Radians)
 Mixed Optimization -- RFO/linear search
 Second derivative matrix not updated -- first step.
 ITU=  0
     Eigenvalues ---    0.00730   0.01876   0.02128   0.02141   0.02144
     Eigenvalues ---    0.02155   0.02164   0.02165   0.02167   0.02169
     Eigenvalues ---    0.16000   0.16000   0.16000   0.16000   0.16000
     Eigenvalues ---    0.16000   0.16736   0.19475   0.22000   0.22000
     Eigenvalues ---    0.23481   0.24982   0.34633   0.34634   0.34636
     Eigenvalues ---    0.34698   0.34701   0.42121   0.42206   0.46150
     Eigenvalues ---    0.46363   0.46542   0.46621
 RFO step:  Lambda=-1.10243221D-03 EMin= 7.30120444D-03
 Linear search not attempted -- first point.
 Iteration  1 RMS(Cart)=  0.01578948 RMS(Int)=  0.00013461
 Iteration  2 RMS(Cart)=  0.00015017 RMS(Int)=  0.00001896
 Iteration  3 RMS(Cart)=  0.00000002 RMS(Int)=  0.00001896
 Variable       Old X    -DE/DX   Delta X   Delta X   Delta X     New X
                                 (Linear)    (Quad)   (Total)
    R1        2.63455  -0.00357   0.00000  -0.00761  -0.00761   2.62695
    R2        2.63388  -0.00443   0.00000  -0.00949  -0.00948   2.62440
    R3        2.06270  -0.00667   0.00000  -0.01919  -0.01919   2.04351
    R4        2.63488  -0.00456   0.00000  -0.00972  -0.00972   2.62516
    R5        2.06275  -0.00648   0.00000  -0.01865  -0.01865   2.04409
    R6        2.64090  -0.00297   0.00000  -0.00643  -0.00643   2.63447
    R7        2.06167  -0.00674   0.00000  -0.01935  -0.01935   2.04232
    R8        2.64036  -0.00483   0.00000  -0.01048  -0.01048   2.62987
    R9        3.65256   0.00050   0.00000   0.00296   0.00296   3.65552
   R10        2.63558  -0.00380   0.00000  -0.00819  -0.00819   2.62739
   R11        2.06163  -0.00641   0.00000  -0.01840  -0.01840   2.04323
   R12        2.06273  -0.00656   0.00000  -0.01888  -0.01888   2.04385
   R13        2.78526  -0.00151   0.00000  -0.00770  -0.00770   2.77755
    A1        2.09247  -0.00093   0.00000  -0.00426  -0.00428   2.08819
    A2        2.09528   0.00049   0.00000   0.00227   0.00228   2.09756
    A3        2.09543   0.00044   0.00000   0.00200   0.00200   2.09743
    A4        2.09757   0.00053   0.00000   0.00246   0.00241   2.09998
    A5        2.09749  -0.00024   0.00000  -0.00107  -0.00109   2.09640
    A6        2.08812  -0.00029   0.00000  -0.00143  -0.00145   2.08667
    A7        2.09296   0.00011   0.00000   0.00054   0.00050   2.09346
    A8        2.09936  -0.00084   0.00000  -0.00516  -0.00514   2.09421
    A9        2.09087   0.00073   0.00000   0.00462   0.00463   2.09550
   A10        2.09280  -0.00061   0.00000  -0.00250  -0.00254   2.09026
   A11        2.09700   0.00438   0.00000   0.01750   0.01752   2.11452
   A12        2.09275  -0.00377   0.00000  -0.01500  -0.01498   2.07777
   A13        2.09299   0.00027   0.00000   0.00100   0.00096   2.09395
   A14        2.09073   0.00041   0.00000   0.00286   0.00287   2.09360
   A15        2.09946  -0.00067   0.00000  -0.00386  -0.00385   2.09561
   A16        2.09752   0.00064   0.00000   0.00271   0.00263   2.10015
   A17        2.09762  -0.00023   0.00000  -0.00082  -0.00086   2.09676
   A18        2.08804  -0.00040   0.00000  -0.00189  -0.00193   2.08611
   A19        1.65701   0.00047   0.00000   0.00291   0.00291   1.65991
    D1        0.00024   0.00024   0.00000   0.01018   0.01018   0.01042
    D2        3.13745  -0.00008   0.00000  -0.00303  -0.00303   3.13442
    D3       -3.13808   0.00015   0.00000   0.00650   0.00650  -3.13159
    D4       -0.00087  -0.00016   0.00000  -0.00670  -0.00671  -0.00758
    D5        0.00331   0.00022   0.00000   0.00948   0.00948   0.01279
    D6       -3.13842  -0.00023   0.00000  -0.00978  -0.00980   3.13497
    D7       -3.14155   0.00031   0.00000   0.01316   0.01316  -3.12839
    D8       -0.00009  -0.00014   0.00000  -0.00611  -0.00612  -0.00621
    D9       -0.00833  -0.00042   0.00000  -0.01788  -0.01789  -0.02622
   D10        3.13303  -0.00050   0.00000  -0.02091  -0.02092   3.11211
   D11        3.13762  -0.00011   0.00000  -0.00475  -0.00476   3.13286
   D12       -0.00421  -0.00019   0.00000  -0.00778  -0.00778  -0.01199
   D13        0.01286   0.00014   0.00000   0.00596   0.00594   0.01880
   D14        3.11632   0.00005   0.00000   0.00533   0.00531   3.12163
   D15       -3.12850   0.00022   0.00000   0.00897   0.00897  -3.11953
   D16       -0.02504   0.00013   0.00000   0.00835   0.00834  -0.01670
   D17       -0.00932   0.00032   0.00000   0.01359   0.01357   0.00425
   D18        3.13404   0.00046   0.00000   0.01934   0.01934  -3.12980
   D19       -3.11288   0.00023   0.00000   0.01350   0.01348  -3.09939
   D20        0.03049   0.00037   0.00000   0.01926   0.01925   0.04974
   D21        0.78540  -0.00013   0.00000  -0.01597  -0.01596   0.76943
   D22       -2.39433  -0.00015   0.00000  -0.01632  -0.01633  -2.41066
   D23        0.00124  -0.00050   0.00000  -0.02134  -0.02135  -0.02011
   D24       -3.14022  -0.00005   0.00000  -0.00218  -0.00220   3.14077
   D25        3.14105  -0.00064   0.00000  -0.02711  -0.02712   3.11393
   D26       -0.00041  -0.00019   0.00000  -0.00796  -0.00796  -0.00837
         Item               Value     Threshold  Converged?
 Maximum Force            0.006737     0.000450     NO
 RMS     Force            0.002487     0.000300     NO
 Maximum Displacement     0.044568     0.001800     NO
 RMS     Displacement     0.015843     0.001200     NO
 Predicted change in Energy=-5.553792D-04
 GradGradGradGradGradGradGradGradGradGradGradGradGradGradGradGradGradGrad

                          Input orientation:
 ---------------------------------------------------------------------
 Center     Atomic      Atomic             Coordinates (Angstroms)
 Number     Number       Type             X           Y           Z
 ---------------------------------------------------------------------
      1          6           0       -2.897518   -0.003327   -0.000683
      2          6           0       -2.203217    1.200668   -0.028592
      3          6           0       -0.814113    1.209073   -0.039740
      4          6           0       -0.110486    0.006545    0.008758
      5          6           0       -0.804678   -1.199062    0.045494
      6          6           0       -2.194931   -1.200909    0.028635
      7          1           0       -3.978889   -0.007450   -0.001406
      8          1           0       -2.742742    2.137729   -0.058231
      9          1           0       -0.279954    2.147297   -0.089033
     10          1           0       -0.262235   -2.133108    0.094180
     11          1           0       -2.727063   -2.142089    0.056660
     12         34           0        1.823124   -0.024083   -0.037944
     13          1           0        1.994550    1.079606    0.917485
 ---------------------------------------------------------------------
                    Distance matrix (angstroms):
                    1          2          3          4          5
     1  C    0.000000
     2  C    1.390121   0.000000
     3  C    2.410812   1.389174   0.000000
     4  C    2.787065   2.409740   1.394101   0.000000
     5  C    2.410788   2.778508   2.409662   1.391668   0.000000
     6  C    1.388773   2.402273   2.778371   2.408993   1.390356
     7  H    1.081379   2.147859   3.390753   3.868441   3.390834
     8  H    2.147414   1.081687   2.140642   3.387506   3.860184
     9  H    3.388898   2.144458   1.080749   2.149675   3.389919
    10  H    3.389643   3.859604   3.390085   2.146727   1.081228
    11  H    2.146310   3.384628   3.859917   3.386059   2.141258
    12  Se   4.720835   4.208506   2.911305   1.934417   2.879736
    13  H    5.093929   4.304761   2.970123   2.531487   3.713270
                    6          7          8          9         10
     6  C    0.000000
     7  H    2.146567   0.000000
     8  H    3.384397   2.476506   0.000000
     9  H    3.858946   4.281674   2.462999   0.000000
    10  H    2.146766   4.282647   4.941273   4.284360   0.000000
    11  H    1.081559   2.475302   4.281388   4.940486   2.465129
    12  Se   4.187376   5.802152   5.051829   3.023316   2.968866
    13  H    4.852067   6.140686   4.951119   2.706735   4.011539
                   11         12         13
    11  H    0.000000
    12  Se   5.019870   0.000000
    13  H    5.780482   1.469818   0.000000
 Stoichiometry    C6H6Se
 Framework group  C1[X(C6H6Se)]
 Deg. of freedom    33
 Full point group                 C1      NOp   1
 Largest Abelian subgroup         C1      NOp   1
 Largest concise Abelian subgroup C1      NOp   1
                         Standard orientation:
 ---------------------------------------------------------------------
 Center     Atomic      Atomic             Coordinates (Angstroms)
 Number     Number       Type             X           Y           Z
 ---------------------------------------------------------------------
      1          6           0       -2.895427   -0.000766   -0.002761
      2          6           0       -2.198156    1.201775   -0.014786
      3          6           0       -0.809016    1.206914   -0.023067
      4          6           0       -0.108404    0.002171    0.012346
      5          6           0       -0.805587   -1.202089    0.033178
      6          6           0       -2.195804   -1.200330    0.013530
      7          1           0       -3.976800   -0.002235   -0.005686
      8          1           0       -2.735347    2.140441   -0.034211
      9          1           0       -0.272487    2.144354   -0.059994
     10          1           0       -0.265509   -2.137977    0.071690
     11          1           0       -2.730270   -2.140475    0.029159
     12         34           0        1.825217   -0.032624   -0.030874
     13          1           0        1.997387    1.059061    0.938118
 ---------------------------------------------------------------------
 Rotational constants (GHZ):      5.6101067      0.9552629      0.8188525
 Standard basis: 6-311++G(3df,3pd) (5D, 7F)
 There are   457 symmetry adapted cartesian basis functions of A   symmetry.
 There are   407 symmetry adapted basis functions of A   symmetry.
   407 basis functions,   590 primitive gaussians,   457 cartesian basis functions
    38 alpha electrons       38 beta electrons
       nuclear repulsion energy       439.6946181309 Hartrees.
 NAtoms=   13 NActive=   13 NUniq=   13 SFac= 1.00D+00 NAtFMM=   60 NAOKFM=F Big=F
 Integral buffers will be    131072 words long.
 Raffenetti 2 integral format.
 Two-electron integral symmetry is turned on.
 One-electron integrals computed using PRISM.
 NBasis=   407 RedAO= T EigKep=  4.66D-06  NBF=   407
 NBsUse=   405 1.00D-06 EigRej=  7.30D-07 NBFU=   405
 Initial guess from the checkpoint file:  "BSe-B1-2.chk"
 B after Tr=     0.000000    0.000000    0.000000
         Rot=    0.999999    0.000378   -0.000080   -0.001627 Ang=   0.19 deg.
 ExpMin= 3.00D-02 ExpMax= 4.05D+05 ExpMxC= 1.39D+04 IAcc=3 IRadAn=         5 AccDes= 0.00D+00
 Harris functional with IExCor=  402 and IRadAn=       5 diagonalized for initial guess.
 HarFok:  IExCor=  402 AccDes= 0.00D+00 IRadAn=         5 IDoV= 1 UseB2=F ITyADJ=14
 ICtDFT=  3500011 ScaDFX=  1.000000  1.000000  1.000000  1.000000
 FoFCou: FMM=F IPFlag=           0 FMFlag=      100000 FMFlg1=           0
         NFxFlg=           0 DoJE=T BraDBF=F KetDBF=T FulRan=T
         wScrn=  0.000000 ICntrl=     500 IOpCl=  0 I1Cent=   200000004 NGrid=           0
         NMat0=    1 NMatS0=      1 NMatT0=    0 NMatD0=    1 NMtDS0=    0 NMtDT0=    0
 Petite list used in FoFCou.
 Requested convergence on RMS density matrix=1.00D-08 within 128 cycles.
 Requested convergence on MAX density matrix=1.00D-06.
 Requested convergence on             energy=1.00D-06.
 No special actions if energy rises.
 SCF Done:  E(RB3LYP) =  -2633.87741133     A.U. after   10 cycles
            NFock= 10  Conv=0.79D-08     -V/T= 2.0016
 Calling FoFJK, ICntrl=      2127 FMM=F ISym2X=0 I1Cent= 0 IOpClX= 0 NMat=1 NMatS=1 NMatT=0.
 ***** Axes restored to original set *****
 -------------------------------------------------------------------
 Center     Atomic                   Forces (Hartrees/Bohr)
 Number     Number              X              Y              Z
 -------------------------------------------------------------------
      1        6          -0.000861653   -0.000342440    0.000029544
      2        6           0.000315274    0.000210341   -0.000419411
      3        6           0.000252865   -0.000208167    0.000425999
      4        6          -0.000117517    0.001656791   -0.000052668
      5        6           0.001304353   -0.000550575   -0.000533607
      6        6          -0.000365752   -0.000150893    0.000389595
      7        1          -0.000029375    0.000019200   -0.000023631
      8        1           0.000017296    0.000191370    0.000159367
      9        1          -0.000070546    0.000253832   -0.000086770
     10        1          -0.000189109   -0.000203577    0.000225753
     11        1          -0.000022382   -0.000214365   -0.000167576
     12       34          -0.000463136   -0.000936536    0.000038726
     13        1           0.000229684    0.000275018    0.000014679
 -------------------------------------------------------------------
 Cartesian Forces:  Max     0.001656791 RMS     0.000463913

 GradGradGradGradGradGradGradGradGradGradGradGradGradGradGradGradGradGrad
 Berny optimization.
 Using GEDIIS/GDIIS optimizer.
 FormGI is forming the generalized inverse of G from B-inverse, IUseBI=4.
 Internal  Forces:  Max     0.001536967 RMS     0.000345540
 Search for a local minimum.
 Step number   2 out of a maximum of   68
 All quantities printed in internal units (Hartrees-Bohrs-Radians)
 Mixed Optimization -- En-DIIS/RFO-DIIS
 Update second derivatives using D2CorX and points    1    2
 DE= -5.65D-04 DEPred=-5.55D-04 R= 1.02D+00
 TightC=F SS=  1.41D+00  RLast= 8.67D-02 DXNew= 5.0454D-01 2.6021D-01
 Trust test= 1.02D+00 RLast= 8.67D-02 DXMaxT set to 3.00D-01
 ITU=  1  0
 Use linear search instead of GDIIS.
     Eigenvalues ---    0.00720   0.01875   0.02108   0.02132   0.02144
     Eigenvalues ---    0.02159   0.02165   0.02167   0.02169   0.02208
     Eigenvalues ---    0.15761   0.15997   0.15998   0.16000   0.16000
     Eigenvalues ---    0.16016   0.16753   0.19535   0.21717   0.22009
     Eigenvalues ---    0.23049   0.23523   0.34620   0.34633   0.34671
     Eigenvalues ---    0.34697   0.35932   0.42105   0.42197   0.46146
     Eigenvalues ---    0.46472   0.46552   0.49346
 RFO step:  Lambda=-4.68702915D-05 EMin= 7.20130509D-03
 Quartic linear search produced a step of  0.02052.
 Iteration  1 RMS(Cart)=  0.00997334 RMS(Int)=  0.00018028
 Iteration  2 RMS(Cart)=  0.00016496 RMS(Int)=  0.00000285
 Iteration  3 RMS(Cart)=  0.00000003 RMS(Int)=  0.00000285
 Variable       Old X    -DE/DX   Delta X   Delta X   Delta X     New X
                                 (Linear)    (Quad)   (Total)
    R1        2.62695   0.00086  -0.00016   0.00174   0.00158   2.62853
    R2        2.62440   0.00039  -0.00019   0.00071   0.00052   2.62492
    R3        2.04351   0.00003  -0.00039  -0.00031  -0.00071   2.04280
    R4        2.62516   0.00030  -0.00020   0.00042   0.00022   2.62538
    R5        2.04409   0.00015  -0.00038   0.00006  -0.00032   2.04377
    R6        2.63447  -0.00010  -0.00013  -0.00041  -0.00054   2.63393
    R7        2.04232   0.00019  -0.00040   0.00015  -0.00024   2.04208
    R8        2.62987   0.00047  -0.00022   0.00081   0.00059   2.63046
    R9        3.65552  -0.00022   0.00006  -0.00131  -0.00125   3.65427
   R10        2.62739   0.00065  -0.00017   0.00128   0.00111   2.62850
   R11        2.04323   0.00009  -0.00038  -0.00011  -0.00049   2.04273
   R12        2.04385   0.00019  -0.00039   0.00018  -0.00021   2.04364
   R13        2.77755   0.00024  -0.00016   0.00112   0.00096   2.77852
    A1        2.08819  -0.00023  -0.00009  -0.00098  -0.00106   2.08713
    A2        2.09756   0.00010   0.00005   0.00038   0.00042   2.09799
    A3        2.09743   0.00013   0.00004   0.00060   0.00064   2.09807
    A4        2.09998   0.00026   0.00005   0.00127   0.00132   2.10130
    A5        2.09640  -0.00002  -0.00002   0.00009   0.00006   2.09647
    A6        2.08667  -0.00023  -0.00003  -0.00129  -0.00133   2.08534
    A7        2.09346  -0.00018   0.00001  -0.00098  -0.00097   2.09249
    A8        2.09421  -0.00010  -0.00011  -0.00085  -0.00096   2.09325
    A9        2.09550   0.00029   0.00010   0.00182   0.00192   2.09742
   A10        2.09026   0.00027  -0.00005   0.00092   0.00087   2.09113
   A11        2.11452   0.00126   0.00036   0.00556   0.00591   2.12043
   A12        2.07777  -0.00154  -0.00031  -0.00656  -0.00687   2.07090
   A13        2.09395  -0.00005   0.00002  -0.00016  -0.00015   2.09380
   A14        2.09360   0.00030   0.00006   0.00186   0.00192   2.09552
   A15        2.09561  -0.00025  -0.00008  -0.00173  -0.00182   2.09380
   A16        2.10015  -0.00006   0.00005   0.00003   0.00008   2.10023
   A17        2.09676   0.00012  -0.00002   0.00059   0.00057   2.09733
   A18        2.08611  -0.00006  -0.00004  -0.00054  -0.00058   2.08553
   A19        1.65991   0.00056   0.00006   0.00366   0.00372   1.66363
    D1        0.01042  -0.00002   0.00021  -0.00113  -0.00092   0.00950
    D2        3.13442   0.00007  -0.00006   0.00347   0.00341   3.13783
    D3       -3.13159  -0.00002   0.00013  -0.00106  -0.00093  -3.13251
    D4       -0.00758   0.00008  -0.00014   0.00354   0.00340  -0.00418
    D5        0.01279  -0.00004   0.00019  -0.00199  -0.00179   0.01099
    D6        3.13497   0.00006  -0.00020   0.00284   0.00264   3.13762
    D7       -3.12839  -0.00005   0.00027  -0.00206  -0.00179  -3.13018
    D8       -0.00621   0.00006  -0.00013   0.00277   0.00265  -0.00356
    D9       -0.02622   0.00007  -0.00037   0.00319   0.00282  -0.02340
   D10        3.11211  -0.00002  -0.00043  -0.00082  -0.00125   3.11087
   D11        3.13286  -0.00003  -0.00010  -0.00139  -0.00149   3.13137
   D12       -0.01199  -0.00012  -0.00016  -0.00540  -0.00556  -0.01755
   D13        0.01880  -0.00005   0.00012  -0.00213  -0.00200   0.01680
   D14        3.12163  -0.00013   0.00011  -0.00491  -0.00481   3.11682
   D15       -3.11953   0.00004   0.00018   0.00189   0.00208  -3.11744
   D16       -0.01670  -0.00004   0.00017  -0.00089  -0.00073  -0.01743
   D17        0.00425  -0.00002   0.00028  -0.00100  -0.00072   0.00353
   D18       -3.12980   0.00009   0.00040   0.00419   0.00459  -3.12521
   D19       -3.09939  -0.00001   0.00028   0.00146   0.00173  -3.09766
   D20        0.04974   0.00011   0.00040   0.00665   0.00704   0.05678
   D21        0.76943  -0.00022  -0.00033  -0.03159  -0.03192   0.73751
   D22       -2.41066  -0.00026  -0.00034  -0.03420  -0.03453  -2.44519
   D23       -0.02011   0.00007  -0.00044   0.00306   0.00262  -0.01750
   D24        3.14077  -0.00004  -0.00005  -0.00176  -0.00180   3.13897
   D25        3.11393  -0.00004  -0.00056  -0.00212  -0.00268   3.11125
   D26       -0.00837  -0.00015  -0.00016  -0.00694  -0.00710  -0.01547
         Item               Value     Threshold  Converged?
 Maximum Force            0.001537     0.000450     NO
 RMS     Force            0.000346     0.000300     NO
 Maximum Displacement     0.047789     0.001800     NO
 RMS     Displacement     0.010012     0.001200     NO
 Predicted change in Energy=-2.379610D-05
 GradGradGradGradGradGradGradGradGradGradGradGradGradGradGradGradGradGrad

                          Input orientation:
 ---------------------------------------------------------------------
 Center     Atomic      Atomic             Coordinates (Angstroms)
 Number     Number       Type             X           Y           Z
 ---------------------------------------------------------------------
      1          6           0       -2.899015   -0.004001   -0.004011
      2          6           0       -2.203274    1.200222   -0.027663
      3          6           0       -0.814019    1.209434   -0.031903
      4          6           0       -0.111270    0.006697    0.015896
      5          6           0       -0.805261   -1.199536    0.047410
      6          6           0       -2.196051   -1.201638    0.026894
      7          1           0       -3.980000   -0.007760   -0.009257
      8          1           0       -2.741848    2.137693   -0.055314
      9          1           0       -0.281137    2.148343   -0.079092
     10          1           0       -0.264640   -2.134133    0.099823
     11          1           0       -2.727414   -2.143278    0.049177
     12         34           0        1.821494   -0.036401   -0.028574
     13          1           0        2.004282    1.095250    0.892197
 ---------------------------------------------------------------------
                    Distance matrix (angstroms):
                    1          2          3          4          5
     1  C    0.000000
     2  C    1.390959   0.000000
     3  C    2.412553   1.389292   0.000000
     4  C    2.787837   2.408917   1.393814   0.000000
     5  C    2.411587   2.778293   2.410291   1.391982   0.000000
     6  C    1.389046   2.402490   2.779701   2.409670   1.390943
     7  H    1.081004   2.148561   3.391977   3.868839   3.391535
     8  H    2.148066   1.081517   2.139798   3.386171   3.859795
     9  H    3.389913   2.143873   1.080620   2.150471   3.391018
    10  H    3.389422   3.859077   3.390961   2.147957   1.080968
    11  H    2.146808   3.385206   3.861131   3.386401   2.141338
    12  Se   4.720684   4.210462   2.915141   1.933756   2.873760
    13  H    5.104299   4.308212   2.968134   2.535431   3.724680
                    6          7          8          9         10
     6  C    0.000000
     7  H    2.146888   0.000000
     8  H    3.384640   2.477521   0.000000
     9  H    3.860117   4.281968   2.460849   0.000000
    10  H    2.145977   4.282204   4.940560   4.286244   0.000000
    11  H    1.081448   2.476454   4.282271   4.941532   2.463312
    12  Se   4.183482   5.801597   5.054848   3.032609   2.961236
    13  H    4.864899   6.151495   4.950779   2.697322   4.025516
                   11         12         13
    11  H    0.000000
    12  Se   5.013735   0.000000
    13  H    5.795490   1.470328   0.000000
 Stoichiometry    C6H6Se
 Framework group  C1[X(C6H6Se)]
 Deg. of freedom    33
 Full point group                 C1      NOp   1
 Largest Abelian subgroup         C1      NOp   1
 Largest concise Abelian subgroup C1      NOp   1
                         Standard orientation:
 ---------------------------------------------------------------------
 Center     Atomic      Atomic             Coordinates (Angstroms)
 Number     Number       Type             X           Y           Z
 ---------------------------------------------------------------------
      1          6           0       -2.895943   -0.005225   -0.004460
      2          6           0       -2.201144    1.199721   -0.015683
      3          6           0       -0.811898    1.210061   -0.020167
      4          6           0       -0.108202    0.007437    0.014874
      5          6           0       -0.801248   -1.199599    0.033936
      6          6           0       -2.192041   -1.202572    0.013741
      7          1           0       -3.976927   -0.009771   -0.009480
      8          1           0       -2.740453    2.137011   -0.033393
      9          1           0       -0.279757    2.149827   -0.057661
     10          1           0       -0.259887   -2.134273    0.076437
     11          1           0       -2.722667   -2.144807    0.026301
     12         34           0        1.824583   -0.033686   -0.030519
     13          1           0        2.006725    1.088412    0.901996
 ---------------------------------------------------------------------
 Rotational constants (GHZ):      5.6077261      0.9557164      0.8189575
 Standard basis: 6-311++G(3df,3pd) (5D, 7F)
 There are   457 symmetry adapted cartesian basis functions of A   symmetry.
 There are   407 symmetry adapted basis functions of A   symmetry.
   407 basis functions,   590 primitive gaussians,   457 cartesian basis functions
    38 alpha electrons       38 beta electrons
       nuclear repulsion energy       439.7102067768 Hartrees.
 NAtoms=   13 NActive=   13 NUniq=   13 SFac= 1.00D+00 NAtFMM=   60 NAOKFM=F Big=F
 Integral buffers will be    131072 words long.
 Raffenetti 2 integral format.
 Two-electron integral symmetry is turned on.
 One-electron integrals computed using PRISM.
 NBasis=   407 RedAO= T EigKep=  4.67D-06  NBF=   407
 NBsUse=   405 1.00D-06 EigRej=  7.30D-07 NBFU=   405
 Initial guess from the checkpoint file:  "BSe-B1-2.chk"
 B after Tr=     0.000000    0.000000    0.000000
         Rot=    1.000000    0.000521   -0.000047   -0.000455 Ang=   0.08 deg.
 ExpMin= 3.00D-02 ExpMax= 4.05D+05 ExpMxC= 1.39D+04 IAcc=3 IRadAn=         5 AccDes= 0.00D+00
 Harris functional with IExCor=  402 and IRadAn=       5 diagonalized for initial guess.
 HarFok:  IExCor=  402 AccDes= 0.00D+00 IRadAn=         5 IDoV= 1 UseB2=F ITyADJ=14
 ICtDFT=  3500011 ScaDFX=  1.000000  1.000000  1.000000  1.000000
 FoFCou: FMM=F IPFlag=           0 FMFlag=      100000 FMFlg1=           0
         NFxFlg=           0 DoJE=T BraDBF=F KetDBF=T FulRan=T
         wScrn=  0.000000 ICntrl=     500 IOpCl=  0 I1Cent=   200000004 NGrid=           0
         NMat0=    1 NMatS0=      1 NMatT0=    0 NMatD0=    1 NMtDS0=    0 NMtDT0=    0
 Petite list used in FoFCou.
 Requested convergence on RMS density matrix=1.00D-08 within 128 cycles.
 Requested convergence on MAX density matrix=1.00D-06.
 Requested convergence on             energy=1.00D-06.
 No special actions if energy rises.
 SCF Done:  E(RB3LYP) =  -2633.87745038     A.U. after   10 cycles
            NFock= 10  Conv=0.65D-08     -V/T= 2.0016
 Calling FoFJK, ICntrl=      2127 FMM=F ISym2X=0 I1Cent= 0 IOpClX= 0 NMat=1 NMatS=1 NMatT=0.
 ***** Axes restored to original set *****
 -------------------------------------------------------------------
 Center     Atomic                   Forces (Hartrees/Bohr)
 Number     Number              X              Y              Z
 -------------------------------------------------------------------
      1        6           0.000018456    0.000017764    0.000001852
      2        6           0.000058637   -0.000249817   -0.000000803
      3        6          -0.000023556   -0.000354048    0.000073220
      4        6           0.000225647    0.000843559   -0.000079222
      5        6           0.000237249   -0.000125962   -0.000057638
      6        6           0.000065902    0.000157936   -0.000024759
      7        1          -0.000244489    0.000039071   -0.000007915
      8        1          -0.000123829    0.000254263    0.000010805
      9        1           0.000084567    0.000267892    0.000041897
     10        1           0.000057863   -0.000267619    0.000031180
     11        1          -0.000107114   -0.000250837   -0.000009668
     12       34          -0.000329553   -0.000600387    0.000094610
     13        1           0.000080219    0.000268184   -0.000073559
 -------------------------------------------------------------------
 Cartesian Forces:  Max     0.000843559 RMS     0.000226811

 GradGradGradGradGradGradGradGradGradGradGradGradGradGradGradGradGradGrad
 Berny optimization.
 Using GEDIIS/GDIIS optimizer.
 FormGI is forming the generalized inverse of G from B-inverse, IUseBI=4.
 Internal  Forces:  Max     0.000669200 RMS     0.000172717
 Search for a local minimum.
 Step number   3 out of a maximum of   68
 All quantities printed in internal units (Hartrees-Bohrs-Radians)
 Mixed Optimization -- En-DIIS/RFO-DIIS
 Swapping is turned off.
 Update second derivatives using D2CorX and points    1    2    3
 DE= -3.90D-05 DEPred=-2.38D-05 R= 1.64D+00
 TightC=F SS=  1.41D+00  RLast= 5.10D-02 DXNew= 5.0454D-01 1.5288D-01
 Trust test= 1.64D+00 RLast= 5.10D-02 DXMaxT set to 3.00D-01
 ITU=  1  1  0
     Eigenvalues ---    0.00192   0.01882   0.02105   0.02144   0.02156
     Eigenvalues ---    0.02164   0.02167   0.02168   0.02173   0.02565
     Eigenvalues ---    0.15846   0.15998   0.15999   0.15999   0.16004
     Eigenvalues ---    0.16198   0.16808   0.19412   0.21776   0.22165
     Eigenvalues ---    0.22593   0.23781   0.34632   0.34646   0.34675
     Eigenvalues ---    0.34713   0.37522   0.42074   0.42775   0.46102
     Eigenvalues ---    0.46472   0.46987   0.50414
 En-DIIS/RFO-DIIS IScMMF=        0 using points:     3    2
 RFO step:  Lambda=-9.83261937D-06.
 DidBck=F Rises=F RFO-DIIS coefs:    2.97077   -1.97077
 Iteration  1 RMS(Cart)=  0.05698942 RMS(Int)=  0.00609913
 Iteration  2 RMS(Cart)=  0.00585430 RMS(Int)=  0.00003607
 Iteration  3 RMS(Cart)=  0.00004390 RMS(Int)=  0.00002568
 Iteration  4 RMS(Cart)=  0.00000000 RMS(Int)=  0.00002568
 Variable       Old X    -DE/DX   Delta X   Delta X   Delta X     New X
                                 (Linear)    (Quad)   (Total)
    R1        2.62853   0.00010   0.00312   0.00007   0.00319   2.63173
    R2        2.62492   0.00015   0.00102   0.00001   0.00103   2.62595
    R3        2.04280   0.00024  -0.00139  -0.00017  -0.00157   2.04124
    R4        2.62538   0.00018   0.00044   0.00006   0.00050   2.62588
    R5        2.04377   0.00028  -0.00063   0.00027  -0.00036   2.04341
    R6        2.63393  -0.00006  -0.00107  -0.00122  -0.00229   2.63164
    R7        2.04208   0.00027  -0.00048   0.00013  -0.00035   2.04172
    R8        2.63046   0.00026   0.00117   0.00060   0.00177   2.63223
    R9        3.65427  -0.00024  -0.00246  -0.00417  -0.00664   3.64763
   R10        2.62850   0.00015   0.00218   0.00030   0.00249   2.63099
   R11        2.04273   0.00026  -0.00097   0.00010  -0.00087   2.04187
   R12        2.04364   0.00027  -0.00041   0.00018  -0.00024   2.04340
   R13        2.77852   0.00017   0.00190   0.00195   0.00385   2.78237
    A1        2.08713  -0.00007  -0.00209  -0.00153  -0.00361   2.08352
    A2        2.09799   0.00000   0.00084   0.00008   0.00091   2.09890
    A3        2.09807   0.00007   0.00126   0.00145   0.00270   2.10077
    A4        2.10130   0.00009   0.00260   0.00154   0.00413   2.10543
    A5        2.09647  -0.00003   0.00013  -0.00034  -0.00022   2.09624
    A6        2.08534  -0.00006  -0.00261  -0.00121  -0.00384   2.08150
    A7        2.09249  -0.00004  -0.00191  -0.00073  -0.00265   2.08985
    A8        2.09325  -0.00004  -0.00190  -0.00156  -0.00347   2.08978
    A9        2.09742   0.00008   0.00378   0.00231   0.00607   2.10349
   A10        2.09113   0.00004   0.00171   0.00030   0.00201   2.09314
   A11        2.12043   0.00063   0.01165   0.01037   0.02201   2.14244
   A12        2.07090  -0.00067  -0.01354  -0.01074  -0.02429   2.04661
   A13        2.09380  -0.00004  -0.00029  -0.00030  -0.00060   2.09320
   A14        2.09552   0.00010   0.00378   0.00237   0.00613   2.10165
   A15        2.09380  -0.00006  -0.00358  -0.00205  -0.00566   2.08814
   A16        2.10023   0.00001   0.00015   0.00061   0.00076   2.10099
   A17        2.09733   0.00003   0.00112   0.00047   0.00157   2.09890
   A18        2.08553  -0.00004  -0.00115  -0.00110  -0.00226   2.08327
   A19        1.66363   0.00016   0.00732   0.00395   0.01127   1.67490
    D1        0.00950   0.00002  -0.00182   0.00341   0.00160   0.01109
    D2        3.13783   0.00002   0.00671   0.00283   0.00955  -3.13581
    D3       -3.13251   0.00001  -0.00183   0.00234   0.00053  -3.13198
    D4       -0.00418   0.00001   0.00671   0.00176   0.00848   0.00430
    D5        0.01099   0.00000  -0.00353   0.00112  -0.00240   0.00860
    D6        3.13762   0.00000   0.00521  -0.00036   0.00487  -3.14070
    D7       -3.13018   0.00001  -0.00353   0.00219  -0.00132  -3.13151
    D8       -0.00356   0.00001   0.00522   0.00071   0.00594   0.00238
    D9       -0.02340  -0.00002   0.00557  -0.00347   0.00207  -0.02133
   D10        3.11087   0.00001  -0.00245  -0.00091  -0.00338   3.10749
   D11        3.13137  -0.00002  -0.00294  -0.00290  -0.00584   3.12553
   D12       -0.01755   0.00001  -0.01096  -0.00034  -0.01129  -0.02884
   D13        0.01680  -0.00001  -0.00394  -0.00100  -0.00493   0.01187
   D14        3.11682  -0.00003  -0.00948  -0.00310  -0.01267   3.10415
   D15       -3.11744  -0.00003   0.00411  -0.00356   0.00060  -3.11684
   D16       -0.01743  -0.00006  -0.00143  -0.00566  -0.00714  -0.02457
   D17        0.00353   0.00003  -0.00142   0.00547   0.00408   0.00761
   D18       -3.12521   0.00001   0.00906   0.00373   0.01286  -3.11235
   D19       -3.09766   0.00002   0.00341   0.00702   0.01033  -3.08733
   D20        0.05678   0.00000   0.01388   0.00528   0.01912   0.07590
   D21        0.73751  -0.00031  -0.06291  -0.13164  -0.19456   0.54295
   D22       -2.44519  -0.00032  -0.06806  -0.13347  -0.20153  -2.64672
   D23       -0.01750  -0.00003   0.00515  -0.00557  -0.00043  -0.01793
   D24        3.13897  -0.00003  -0.00356  -0.00411  -0.00767   3.13130
   D25        3.11125  -0.00001  -0.00527  -0.00379  -0.00906   3.10219
   D26       -0.01547   0.00000  -0.01398  -0.00234  -0.01630  -0.03176
         Item               Value     Threshold  Converged?
 Maximum Force            0.000669     0.000450     NO
 RMS     Force            0.000173     0.000300     YES
 Maximum Displacement     0.303387     0.001800     NO
 RMS     Displacement     0.058723     0.001200     NO
 Predicted change in Energy=-8.183396D-05
 GradGradGradGradGradGradGradGradGradGradGradGradGradGradGradGradGradGrad

                          Input orientation:
 ---------------------------------------------------------------------
 Center     Atomic      Atomic             Coordinates (Angstroms)
 Number     Number       Type             X           Y           Z
 ---------------------------------------------------------------------
      1          6           0       -2.902803   -0.005479   -0.022734
      2          6           0       -2.200364    1.197025   -0.016865
      3          6           0       -0.811096    1.205324    0.010051
      4          6           0       -0.113863    0.000754    0.057162
      5          6           0       -0.810290   -1.205553    0.062751
      6          6           0       -2.201627   -1.204690    0.012060
      7          1           0       -3.982564   -0.004956   -0.052664
      8          1           0       -2.734218    2.137135   -0.038267
      9          1           0       -0.280175    2.145903   -0.017715
     10          1           0       -0.278445   -2.143951    0.126381
     11          1           0       -2.732591   -2.146663    0.007185
     12         34           0        1.814067   -0.091428    0.036588
     13          1           0        2.035816    1.187468    0.731651
 ---------------------------------------------------------------------
                    Distance matrix (angstroms):
                    1          2          3          4          5
     1  C    0.000000
     2  C    1.392649   0.000000
     3  C    2.417097   1.389554   0.000000
     4  C    2.790091   2.406248   1.392602   0.000000
     5  C    2.413730   2.776873   2.411452   1.392917   0.000000
     6  C    1.389592   2.401890   2.782399   2.411200   1.392260
     7  H    1.080176   2.149948   3.395132   3.870264   3.393829
     8  H    2.149293   1.081325   2.137523   3.382231   3.858142
     9  H    3.392145   2.141844   1.080434   2.152889   3.394076
    10  H    3.388592   3.856996   3.393360   2.152124   1.080509
    11  H    2.148146   3.385867   3.863673   3.386980   2.141032
    12  Se   4.718026   4.216471   2.928096   1.930243   2.851177
    13  H    5.136358   4.301812   2.936993   2.546438   3.778134
                    6          7          8          9         10
     6  C    0.000000
     7  H    2.148322   0.000000
     8  H    3.384373   2.479341   0.000000
     9  H    3.862556   4.281951   2.454144   0.000000
    10  H    2.143341   4.281104   4.938181   4.292274   0.000000
    11  H    1.081323   2.480508   4.284039   4.943793   2.457041
    12  Se   4.167223   5.797963   5.065470   3.065037   2.932494
    13  H    4.918958   6.185299   4.924212   2.616097   4.101281
                   11         12         13
    11  H    0.000000
    12  Se   4.989685   0.000000
    13  H    5.863359   1.472366   0.000000
 Stoichiometry    C6H6Se
 Framework group  C1[X(C6H6Se)]
 Deg. of freedom    33
 Full point group                 C1      NOp   1
 Largest Abelian subgroup         C1      NOp   1
 Largest concise Abelian subgroup C1      NOp   1
                         Standard orientation:
 ---------------------------------------------------------------------
 Center     Atomic      Atomic             Coordinates (Angstroms)
 Number     Number       Type             X           Y           Z
 ---------------------------------------------------------------------
      1          6           0       -2.896316   -0.020580   -0.012103
      2          6           0       -2.211200    1.191890   -0.014407
      3          6           0       -0.821943    1.220116   -0.009058
      4          6           0       -0.106847    0.025606    0.024471
      5          6           0       -0.785719   -1.190602    0.038131
      6          6           0       -2.177545   -1.209649    0.009062
      7          1           0       -3.976308   -0.035528   -0.025254
      8          1           0       -2.758758    2.124265   -0.025372
      9          1           0       -0.305072    2.168290   -0.042926
     10          1           0       -0.239536   -2.121382    0.091353
     11          1           0       -2.694949   -2.159150    0.010291
     12         34           0        1.821654   -0.038791   -0.026261
     13          1           0        2.035819    1.241731    0.668186
 ---------------------------------------------------------------------
 Rotational constants (GHZ):      5.6037369      0.9583224      0.8197824
 Standard basis: 6-311++G(3df,3pd) (5D, 7F)
 There are   457 symmetry adapted cartesian basis functions of A   symmetry.
 There are   407 symmetry adapted basis functions of A   symmetry.
   407 basis functions,   590 primitive gaussians,   457 cartesian basis functions
    38 alpha electrons       38 beta electrons
       nuclear repulsion energy       439.9362771494 Hartrees.
 NAtoms=   13 NActive=   13 NUniq=   13 SFac= 1.00D+00 NAtFMM=   60 NAOKFM=F Big=F
 Integral buffers will be    131072 words long.
 Raffenetti 2 integral format.
 Two-electron integral symmetry is turned on.
 One-electron integrals computed using PRISM.
 NBasis=   407 RedAO= T EigKep=  4.69D-06  NBF=   407
 NBsUse=   405 1.00D-06 EigRej=  7.37D-07 NBFU=   405
 Initial guess from the checkpoint file:  "BSe-B1-2.chk"
 B after Tr=     0.000000    0.000000    0.000000
         Rot=    0.999996    0.002361   -0.000136   -0.001635 Ang=   0.33 deg.
 ExpMin= 3.00D-02 ExpMax= 4.05D+05 ExpMxC= 1.39D+04 IAcc=3 IRadAn=         5 AccDes= 0.00D+00
 Harris functional with IExCor=  402 and IRadAn=       5 diagonalized for initial guess.
 HarFok:  IExCor=  402 AccDes= 0.00D+00 IRadAn=         5 IDoV= 1 UseB2=F ITyADJ=14
 ICtDFT=  3500011 ScaDFX=  1.000000  1.000000  1.000000  1.000000
 FoFCou: FMM=F IPFlag=           0 FMFlag=      100000 FMFlg1=           0
         NFxFlg=           0 DoJE=T BraDBF=F KetDBF=T FulRan=T
         wScrn=  0.000000 ICntrl=     500 IOpCl=  0 I1Cent=   200000004 NGrid=           0
         NMat0=    1 NMatS0=      1 NMatT0=    0 NMatD0=    1 NMtDS0=    0 NMtDT0=    0
 Petite list used in FoFCou.
 Requested convergence on RMS density matrix=1.00D-08 within 128 cycles.
 Requested convergence on MAX density matrix=1.00D-06.
 Requested convergence on             energy=1.00D-06.
 No special actions if energy rises.
 SCF Done:  E(RB3LYP) =  -2633.87748706     A.U. after   12 cycles
            NFock= 12  Conv=0.26D-08     -V/T= 2.0017
 Calling FoFJK, ICntrl=      2127 FMM=F ISym2X=0 I1Cent= 0 IOpClX= 0 NMat=1 NMatS=1 NMatT=0.
 ***** Axes restored to original set *****
 -------------------------------------------------------------------
 Center     Atomic                   Forces (Hartrees/Bohr)
 Number     Number              X              Y              Z
 -------------------------------------------------------------------
      1        6           0.001951777    0.001051797    0.000011361
      2        6          -0.000759584   -0.001097193    0.000563224
      3        6          -0.000551503   -0.000312500   -0.000383689
      4        6           0.001441952   -0.001601462   -0.000435007
      5        6          -0.002972985    0.000882078    0.000695447
      6        6           0.001369749    0.000501722   -0.000397847
      7        1          -0.000678734    0.000015021    0.000001558
      8        1          -0.000367394    0.000312825   -0.000342165
      9        1           0.000450727    0.000233604    0.000317240
     10        1           0.000695301   -0.000427627   -0.000532819
     11        1          -0.000312275   -0.000259030    0.000346989
     12       34           0.000305786    0.001356081    0.000679319
     13        1          -0.000572818   -0.000655317   -0.000523610
 -------------------------------------------------------------------
 Cartesian Forces:  Max     0.002972985 RMS     0.000885969

 GradGradGradGradGradGradGradGradGradGradGradGradGradGradGradGradGradGrad
 Berny optimization.
 Using GEDIIS/GDIIS optimizer.
 FormGI is forming the generalized inverse of G from B-inverse, IUseBI=4.
 Internal  Forces:  Max     0.002104882 RMS     0.000540467
 Search for a local minimum.
 Step number   4 out of a maximum of   68
 All quantities printed in internal units (Hartrees-Bohrs-Radians)
 Mixed Optimization -- En-DIIS/RFO-DIIS
 Swapping is turned off.
 Update second derivatives using D2CorX and points    1    2    3    4
 DE= -3.67D-05 DEPred=-8.18D-05 R= 4.48D-01
 Trust test= 4.48D-01 RLast= 2.86D-01 DXMaxT set to 3.00D-01
 ITU=  0  1  1  0
     Eigenvalues ---    0.00208   0.01902   0.02126   0.02144   0.02155
     Eigenvalues ---    0.02164   0.02167   0.02169   0.02275   0.02609
     Eigenvalues ---    0.15904   0.15996   0.15998   0.16000   0.16010
     Eigenvalues ---    0.16442   0.16981   0.19445   0.21956   0.22181
     Eigenvalues ---    0.23288   0.27226   0.34159   0.34633   0.34661
     Eigenvalues ---    0.34681   0.34953   0.42076   0.43024   0.46095
     Eigenvalues ---    0.46478   0.46627   0.55891
 En-DIIS/RFO-DIIS IScMMF=        0 using points:     4    3    2
 RFO step:  Lambda=-2.75061773D-05.
 DidBck=F Rises=F RFO-DIIS coefs:    0.88815   -1.47937    1.59122
 Iteration  1 RMS(Cart)=  0.01874795 RMS(Int)=  0.00049646
 Iteration  2 RMS(Cart)=  0.00043988 RMS(Int)=  0.00001851
 Iteration  3 RMS(Cart)=  0.00000011 RMS(Int)=  0.00001851
 Variable       Old X    -DE/DX   Delta X   Delta X   Delta X     New X
                                 (Linear)    (Quad)   (Total)
    R1        2.63173  -0.00157  -0.00288   0.00020  -0.00267   2.62905
    R2        2.62595  -0.00016  -0.00094   0.00065  -0.00029   2.62566
    R3        2.04124   0.00068   0.00130   0.00039   0.00169   2.04293
    R4        2.62588   0.00000  -0.00041   0.00047   0.00006   2.62594
    R5        2.04341   0.00046   0.00055   0.00040   0.00095   2.04436
    R6        2.63164   0.00031   0.00112   0.00020   0.00132   2.63296
    R7        2.04172   0.00042   0.00043   0.00052   0.00094   2.04267
    R8        2.63223   0.00001  -0.00114   0.00097  -0.00017   2.63206
    R9        3.64763  -0.00030   0.00273  -0.00194   0.00079   3.64842
   R10        2.63099  -0.00121  -0.00204  -0.00019  -0.00223   2.62876
   R11        2.04187   0.00068   0.00088   0.00069   0.00157   2.04343
   R12        2.04340   0.00038   0.00036   0.00046   0.00082   2.04423
   R13        2.78237  -0.00090  -0.00197  -0.00294  -0.00491   2.77746
    A1        2.08352   0.00040   0.00209  -0.00015   0.00193   2.08545
    A2        2.09890  -0.00021  -0.00078   0.00013  -0.00064   2.09826
    A3        2.10077  -0.00019  -0.00132   0.00001  -0.00130   2.09947
    A4        2.10543  -0.00038  -0.00256   0.00026  -0.00229   2.10314
    A5        2.09624   0.00002  -0.00008   0.00011   0.00005   2.09629
    A6        2.08150   0.00037   0.00254  -0.00034   0.00222   2.08372
    A7        2.08985   0.00034   0.00184  -0.00004   0.00181   2.09165
    A8        2.08978   0.00013   0.00192  -0.00031   0.00162   2.09140
    A9        2.10349  -0.00046  -0.00373   0.00033  -0.00339   2.10010
   A10        2.09314  -0.00059  -0.00160  -0.00010  -0.00172   2.09142
   A11        2.14244  -0.00151  -0.01187   0.00141  -0.01046   2.13198
   A12        2.04661   0.00210   0.01365  -0.00106   0.01258   2.05919
   A13        2.09320   0.00008   0.00030   0.00011   0.00043   2.09363
   A14        2.10165  -0.00043  -0.00374   0.00041  -0.00330   2.09835
   A15        2.08814   0.00036   0.00352  -0.00059   0.00296   2.09110
   A16        2.10099   0.00016  -0.00021   0.00011  -0.00010   2.10090
   A17        2.09890  -0.00021  -0.00108   0.00000  -0.00105   2.09785
   A18        2.08327   0.00005   0.00118  -0.00009   0.00112   2.08438
   A19        1.67490  -0.00124  -0.00717  -0.00117  -0.00835   1.66655
    D1        0.01109   0.00000   0.00129  -0.00324  -0.00195   0.00914
    D2       -3.13581  -0.00010  -0.00649   0.00154  -0.00496  -3.14076
    D3       -3.13198  -0.00002   0.00142  -0.00345  -0.00204  -3.13402
    D4        0.00430  -0.00011  -0.00636   0.00134  -0.00504  -0.00074
    D5        0.00860   0.00000   0.00312  -0.00407  -0.00095   0.00764
    D6       -3.14070  -0.00012  -0.00475   0.00042  -0.00435   3.13814
    D7       -3.13151   0.00001   0.00300  -0.00386  -0.00087  -3.13237
    D8        0.00238  -0.00010  -0.00488   0.00063  -0.00426  -0.00188
    D9       -0.02133   0.00001  -0.00472   0.00745   0.00274  -0.01859
   D10        3.10749   0.00018   0.00236   0.00474   0.00709   3.11458
   D11        3.12553   0.00011   0.00303   0.00271   0.00573   3.13126
   D12       -0.02884   0.00028   0.01011   0.00000   0.01008  -0.01876
   D13        0.01187  -0.00002   0.00374  -0.00436  -0.00064   0.01123
   D14        3.10415   0.00027   0.00907   0.00178   0.01088   3.11503
   D15       -3.11684  -0.00019  -0.00338  -0.00162  -0.00504  -3.12189
   D16       -0.02457   0.00009   0.00195   0.00452   0.00647  -0.01809
   D17        0.00761   0.00001   0.00069  -0.00288  -0.00221   0.00540
   D18       -3.11235  -0.00018  -0.00875   0.00116  -0.00766  -3.12000
   D19       -3.08733  -0.00016  -0.00391  -0.00875  -0.01263  -3.09996
   D20        0.07590  -0.00036  -0.01335  -0.00472  -0.01808   0.05783
   D21        0.54295  -0.00031   0.07256  -0.02686   0.04570   0.58865
   D22       -2.64672  -0.00010   0.07749  -0.02085   0.05665  -2.59007
   D23       -0.01793   0.00000  -0.00411   0.00712   0.00302  -0.01490
   D24        3.13130   0.00011   0.00373   0.00267   0.00640   3.13770
   D25        3.10219   0.00018   0.00527   0.00313   0.00837   3.11056
   D26       -0.03176   0.00030   0.01311  -0.00132   0.01175  -0.02001
         Item               Value     Threshold  Converged?
 Maximum Force            0.002105     0.000450     NO
 RMS     Force            0.000540     0.000300     NO
 Maximum Displacement     0.091711     0.001800     NO
 RMS     Displacement     0.018653     0.001200     NO
 Predicted change in Energy=-1.699386D-05
 GradGradGradGradGradGradGradGradGradGradGradGradGradGradGradGradGradGrad

[...]
   A19        1.66363   0.00002   0.00000   0.00008   0.00008   1.66371
    D1        0.00165   0.00000   0.00000   0.00002   0.00002   0.00167
    D2        3.14140   0.00000   0.00000   0.00008   0.00008   3.14148
    D3       -3.14039   0.00000   0.00000   0.00004   0.00004  -3.14035
    D4       -0.00064   0.00000   0.00000   0.00010   0.00010  -0.00054
    D5        0.00147   0.00000   0.00000  -0.00003  -0.00003   0.00144
    D6        3.14045   0.00000   0.00000   0.00003   0.00003   3.14048
    D7       -3.13968   0.00000   0.00000  -0.00004  -0.00004  -3.13973
    D8       -0.00070   0.00000   0.00000   0.00002   0.00002  -0.00068
    D9       -0.00330   0.00000   0.00000   0.00000   0.00000  -0.00329
   D10        3.13697   0.00000   0.00000  -0.00001  -0.00001   3.13696
   D11        3.14012   0.00000   0.00000  -0.00005  -0.00005   3.14007
   D12       -0.00279   0.00000   0.00000  -0.00007  -0.00007  -0.00286
   D13        0.00183   0.00000   0.00000  -0.00002  -0.00002   0.00181
   D14        3.13677   0.00000   0.00000  -0.00008  -0.00008   3.13669
   D15       -3.13843   0.00000   0.00000  -0.00001  -0.00001  -3.13844
   D16       -0.00348   0.00000   0.00000  -0.00007  -0.00007  -0.00355
   D17        0.00125   0.00000   0.00000   0.00002   0.00002   0.00127
   D18       -3.13811   0.00000   0.00000   0.00009   0.00009  -3.13802
   D19       -3.13402   0.00000   0.00000   0.00007   0.00007  -3.13394
   D20        0.00981   0.00000   0.00000   0.00015   0.00015   0.00995
   D21        0.08063   0.00000   0.00000   0.00107   0.00107   0.08170
   D22       -3.06748   0.00000   0.00000   0.00102   0.00102  -3.06647
   D23       -0.00291   0.00000   0.00000   0.00001   0.00001  -0.00291
   D24        3.14127   0.00000   0.00000  -0.00005  -0.00005   3.14121
   D25        3.13646   0.00000   0.00000  -0.00007  -0.00007   3.13639
   D26       -0.00254   0.00000   0.00000  -0.00013  -0.00013  -0.00267
         Item               Value     Threshold  Converged?
 Maximum Force            0.000015     0.000450     YES
 RMS     Force            0.000004     0.000300     YES
 Maximum Displacement     0.001703     0.001800     YES
 RMS     Displacement     0.000286     0.001200     YES
 Predicted change in Energy=-4.977795D-09
 Optimization completed.
    -- Stationary point found.
                           ----------------------------
                           !   Optimized Parameters   !
                           ! (Angstroms and Degrees)  !
 --------------------------                            --------------------------
 ! Name  Definition              Value          Derivative Info.                !
 --------------------------------------------------------------------------------
 ! R1    R(1,2)                  1.39           -DE/DX =    0.0                 !
 ! R2    R(1,6)                  1.3902         -DE/DX =    0.0                 !
 ! R3    R(1,7)                  1.0811         -DE/DX =    0.0                 !
 ! R4    R(2,3)                  1.39           -DE/DX =    0.0                 !
 ! R5    R(2,8)                  1.082          -DE/DX =    0.0                 !
 ! R6    R(3,4)                  1.3932         -DE/DX =    0.0                 !
 ! R7    R(3,9)                  1.0811         -DE/DX =    0.0                 !
 ! R8    R(4,5)                  1.394          -DE/DX =    0.0                 !
 ! R9    R(4,12)                 1.9254         -DE/DX =    0.0                 !
 ! R10   R(5,6)                  1.3893         -DE/DX =    0.0                 !
 ! R11   R(5,10)                 1.0821         -DE/DX =    0.0                 !
 ! R12   R(6,11)                 1.0819         -DE/DX =    0.0                 !
 ! R13   R(12,13)                1.4688         -DE/DX =    0.0                 !
 ! A1    A(2,1,6)              119.3654         -DE/DX =    0.0                 !
 ! A2    A(2,1,7)              120.3095         -DE/DX =    0.0                 !
 ! A3    A(6,1,7)              120.3251         -DE/DX =    0.0                 !
 ! A4    A(1,2,3)              120.576          -DE/DX =    0.0                 !
 ! A5    A(1,2,8)              120.125          -DE/DX =    0.0                 !
 ! A6    A(3,2,8)              119.2989         -DE/DX =    0.0                 !
 ! A7    A(2,3,4)              119.9004         -DE/DX =    0.0                 !
 ! A8    A(2,3,9)              119.6481         -DE/DX =    0.0                 !
 ! A9    A(4,3,9)              120.4515         -DE/DX =    0.0                 !
 ! A10   A(3,4,5)              119.674          -DE/DX =    0.0                 !
 ! A11   A(3,4,12)             122.6219         -DE/DX =    0.0                 !
 ! A12   A(5,4,12)             117.7031         -DE/DX =    0.0                 !
 ! A13   A(4,5,6)              120.0186         -DE/DX =    0.0                 !
 ! A14   A(4,5,10)             120.3265         -DE/DX =    0.0                 !
 ! A15   A(6,5,10)             119.6548         -DE/DX =    0.0                 !
 ! A16   A(1,6,5)              120.4652         -DE/DX =    0.0                 !
 ! A17   A(1,6,11)             120.1522         -DE/DX =    0.0                 !
 ! A18   A(5,6,11)             119.3824         -DE/DX =    0.0                 !
 ! A19   A(4,12,13)             95.3192         -DE/DX =    0.0                 !
 ! D1    D(6,1,2,3)              0.0943         -DE/DX =    0.0                 !
 ! D2    D(6,1,2,8)            179.9889         -DE/DX =    0.0                 !
 ! D3    D(7,1,2,3)           -179.9311         -DE/DX =    0.0                 !
 ! D4    D(7,1,2,8)             -0.0366         -DE/DX =    0.0                 !
 ! D5    D(2,1,6,5)              0.084          -DE/DX =    0.0                 !
 ! D6    D(2,1,6,11)           179.9346         -DE/DX =    0.0                 !
 ! D7    D(7,1,6,5)           -179.8906         -DE/DX =    0.0                 !
 ! D8    D(7,1,6,11)            -0.04           -DE/DX =    0.0                 !
 ! D9    D(1,2,3,4)             -0.1889         -DE/DX =    0.0                 !
 ! D10   D(1,2,3,9)            179.7353         -DE/DX =    0.0                 !
 ! D11   D(8,2,3,4)            179.9157         -DE/DX =    0.0                 !
 ! D12   D(8,2,3,9)             -0.1601         -DE/DX =    0.0                 !
 ! D13   D(2,3,4,5)              0.1048         -DE/DX =    0.0                 !
 ! D14   D(2,3,4,12)           179.7239         -DE/DX =    0.0                 !
 ! D15   D(9,3,4,5)           -179.8187         -DE/DX =    0.0                 !
 ! D16   D(9,3,4,12)            -0.1996         -DE/DX =    0.0                 !
 ! D17   D(3,4,5,6)              0.0717         -DE/DX =    0.0                 !
 ! D18   D(3,4,5,10)          -179.8005         -DE/DX =    0.0                 !
 ! D19   D(12,4,5,6)          -179.5659         -DE/DX =    0.0                 !
 ! D20   D(12,4,5,10)            0.5619         -DE/DX =    0.0                 !
 ! D21   D(3,4,12,13)            4.62           -DE/DX =    0.0                 !
 ! D22   D(5,4,12,13)         -175.7538         -DE/DX =    0.0                 !
 ! D23   D(4,5,6,1)             -0.167          -DE/DX =    0.0                 !
 ! D24   D(4,5,6,11)           179.9812         -DE/DX =    0.0                 !
 ! D25   D(10,5,6,1)           179.7061         -DE/DX =    0.0                 !
 ! D26   D(10,5,6,11)           -0.1457         -DE/DX =    0.0                 !
 --------------------------------------------------------------------------------
 GradGradGradGradGradGradGradGradGradGradGradGradGradGradGradGradGradGrad

 1\1\GINC-PHOTOPHYSICS\Freq\RB3LYP\6-311++G(3df,3pd)\C6H6Se1\SANJEED\09-
 Sep-2015\0\\#N Geom=AllCheck Guess=TCheck SCRF=Check GenChk RB3LYP/6-3
 11++G(3df,3pd) Freq\\BenzeneSelenol WB97XD-CC-PVDZ\\0,1\C,-2.896770940
 2,-0.0050086802,-0.0552260143\C,-2.1880415522,1.1898913944,-0.01045861
 16\C,-0.8011217671,1.186318615,0.0818186858\C,-0.1116595501,-0.0232284
 327,0.1340904664\C,-0.8194019217,-1.2234312667,0.0911494562\C,-2.20536
 64568,-1.210009353,-0.0048249204\H,-3.9754265666,0.0027959922,-0.12812
 80751\H,-2.7136980251,2.1348160259,-0.0490411606\H,-0.2646773817,2.124
 509732,0.1112860627\H,-0.2948477073,-2.1688972912,0.1342894543\H,-2.74
 42764886,-2.1475422019,-0.037712864\Se,1.8075915328,-0.1196413457,0.25
 44389314\H,2.0095444644,1.3303175618,0.3739015891\\Version=ES64L-G09Re
 vD.01\State=1-A\HF=-2633.8776715\RMSD=3.052e-09\RMSF=5.299e-06\ZeroPoi
 nt=0.0975604\Thermal=0.1040877\Dipole=-0.3281158,0.2030208,-0.0074285\
 DipoleDeriv=-0.0386077,-0.0034427,0.007673,0.0132883,-0.0981005,-0.000
 7806,0.0072032,0.0001508,-0.1460215,0.0960932,-0.0396402,0.0150144,0.0
 273924,0.0963856,0.003022,0.0166543,-0.0047509,-0.1061496,-0.3947622,0
 .075129,-0.0229697,0.0944052,0.0089832,0.0034233,-0.0160093,0.0057231,
 -0.0948966,0.9512321,0.0093657,0.0698784,0.0878666,-0.0935833,0.003756
 ,0.0755095,-0.0028113,-0.0906676,-0.3785283,-0.0791728,-0.0159392,-0.1
 0066,0.0315363,-0.0075215,-0.0273168,-0.0070988,-0.0986082,0.1273866,0
 .0455102,0.0147636,-0.0262698,0.090165,-0.001852,0.0150996,0.0012097,-
 0.1102118,-0.0986871,0.0012956,-0.0161873,0.0006334,0.066916,0.0003937
 ,-0.0154256,0.00009,0.1331328,0.0022847,0.0656769,-0.0087693,0.0720737
 ,-0.0563231,0.005296,-0.0097642,0.0047223,0.1278126,0.018438,-0.078729
 5,-0.005923,-0.0547651,-0.0223933,-0.0026634,-0.0063015,-0.0038736,0.1
 153165,0.0319646,0.0767004,-0.0061023,0.052972,-0.0222671,0.0045036,-0
 .006476,0.0072542,0.1188492,0.0020583,-0.0688897,-0.0086856,-0.0748301
 ,-0.0531752,-0.0046863,-0.0078758,-0.0037731,0.1283952,-0.2904216,-0.0
 756641,-0.0208674,-0.0755222,0.1590287,0.0115944,-0.0053325,0.0112342,
 -0.049541,-0.0284507,0.0718612,-0.0018855,-0.0165845,-0.1071723,-0.014
 4851,-0.0199648,-0.0080765,0.07259\Polar=138.1550122,0.954259,99.05719
 86,5.0240203,-0.012599,64.9351188\PG=C01 [X(C6H6Se1)]\NImag=0\\0.73135
 295,-0.00046985,0.65033702,0.04070371,-0.00146899,0.13262453,-0.175806
 14,-0.05581820,-0.00769814,0.66542590,-0.12635893,-0.27619009,-0.00801
 668,-0.02828274,0.71189475,-0.00744588,-0.00332696,-0.06159367,0.03586
 134,-0.00367990,0.13620728,-0.02755628,-0.07566746,-0.00192835,-0.3283
 2997,0.03543922,-0.01814038,0.66469164,-0.02260055,0.03387614,-0.00161
 525,-0.03792336,-0.12136184,-0.00227919,0.04355226,0.69980867,-0.00204
 255,-0.00529297,0.00523872,-0.01764707,0.00283366,-0.06015191,0.034920
 30,-0.00021042,0.13039241,-0.00172019,-0.00051361,0.00020473,-0.027751
 14,0.02404084,-0.00245612,-0.14976851,0.11157006,-0.00642116,0.4787444
 9,-0.00068240,-0.07225289,0.00019418,0.08230386,0.03204076,0.00550766,
 0.05144202,-0.26909445,0.00433443,-0.00276676,0.62557274,0.00015404,0.
 00045025,-0.00409387,-0.00274032,0.00132128,0.00552781,-0.00604419,0.0
 0837719,-0.06064939,0.02407360,-0.00096792,0.11803210,-0.02630983,0.07
 647020,-0.00252341,-0.05121752,-0.02678321,-0.00305501,0.05837752,-0.0
 2372603,0.00382180,-0.15415814,-0.05316196,-0.00626069,0.66923246,0.02
 314006,0.03240064,0.00142873,-0.02500885,-0.02211666,-0.00159890,0.021
 91558,-0.05082811,0.00185667,-0.11168155,-0.26704781,-0.00695610,-0.04
 019172,0.69593500,-0.00238979,0.00523009,0.00525225,-0.00323527,-0.001
 89553,-0.00318848,0.00363530,-0.00123574,0.00490477,-0.00586188,-0.002
 63095,-0.06193831,0.03786505,-0.00613943,0.13181840,-0.17294741,0.0542
 7732,-0.00758100,0.06174859,0.02557872,0.00366431,-0.05055299,0.025532
 86,-0.00343415,-0.02860481,-0.08077773,-0.00186311,-0.33038605,0.03997
 885,-0.01883130,0.66766135,0.12481079,-0.27848209,0.00904410,-0.027360
 43,-0.05577678,-0.00158692,0.02714829,-0.02255796,0.00184590,-0.023032
 27,0.03395085,-0.00171804,-0.03334976,-0.12045750,-0.00194111,0.030092
 98,0.71066076,-0.00789258,0.00421303,-0.06162511,0.00406973,0.00203331
 ,0.00495087,-0.00343628,0.00181661,-0.00338824,-0.00203287,-0.00558384
 ,0.00556712,-0.01850430,0.00299112,-0.05987063,0.03627762,0.00000741,0
 .13631831,-0.33592807,0.00203148,-0.02030438,-0.01179530,0.00289759,-0
 .00099064,0.00067715,-0.00331216,-0.00042014,0.00085779,0.00000154,0.0
 0012781,0.00070501,0.00324539,-0.00043099,-0.01138595,-0.00269943,-0.0
 0094913,0.35645894,0.00207286,-0.05897290,0.00019680,-0.02829855,0.004
 61151,-0.00192529,-0.00236136,-0.00426402,-0.00013256,-0.00002489,-0.0
 0146657,0.00001075,0.00235647,-0.00429145,0.00019106,0.02842680,0.0042
 3932,0.00190428,-0.00217385,0.05802260,-0.02029241,0.00021079,-0.03696
 582,-0.00094806,0.00016443,0.00265753,-0.00037320,-0.00020188,0.007140
 48,0.00011470,-0.00002408,-0.00115522,-0.00047183,0.00025659,0.0070025
 1,-0.00101816,-0.00017946,0.00267212,0.02238626,-0.00022967,0.02680474
 ,0.01163799,-0.01509222,0.00058739,-0.12392468,0.11727649,-0.00622309,
 -0.01127120,0.02849584,-0.00111403,-0.00492008,-0.00037531,-0.00080519
 ,-0.00081029,-0.00084617,0.00003557,-0.00062197,-0.00328002,-0.0005357
 0,0.00081054,0.00053541,0.00033028,0.12842375,0.01572988,-0.01845021,0
 .00112992,0.11731590,-0.26983728,0.00867723,-0.00213821,0.00292564,-0.
 00014742,-0.00038341,0.00189107,-0.00000999,-0.00083527,0.00033658,-0.
 00006296,-0.00406443,-0.00319641,-0.00023786,-0.00030803,0.00097741,-0
 .00003665,-0.12636300,0.28549026,0.00048270,-0.00100794,0.00364679,-0.
 00619625,0.00871869,-0.03789871,-0.00099457,0.00191363,0.00342020,-0.0
 0083283,-0.00001851,0.00732132,0.00003132,-0.00004135,-0.00115363,-0.0
 0055819,-0.00017104,0.00730187,0.00032877,0.00002295,-0.00400676,0.007
 34882,-0.00936866,0.02630941,-0.00540825,0.00144358,-0.00084768,-0.011
 50811,-0.02901308,-0.00083748,-0.12538560,-0.12083301,-0.00510744,0.00
 838645,0.01453289,0.00032303,-0.00073204,0.00349033,-0.00049636,-0.000
 69878,0.00080105,0.00002813,-0.00066208,-0.00134449,-0.00006115,0.0009
 9438,0.00035191,0.00033277,0.13353058,0.00037832,0.00194387,0.00007013
 ,0.00199560,0.00328516,0.00011689,-0.11944985,-0.26709751,-0.00640430,
 -0.01529642,-0.01976129,-0.00086094,0.00410466,-0.00310429,0.00032340,
 0.00090281,0.00032478,0.00005890,0.00018597,-0.00000142,0.00001983,-0.
 00030025,0.00085297,-0.00005482,0.12847148,0.28363881,-0.00086280,0.00
 017907,0.00737303,-0.00110321,-0.00195848,0.00339744,-0.00488535,-0.00
 650605,-0.03602193,0.00033215,0.00107856,0.00188758,-0.00052679,0.0002
 7235,0.00649239,0.00007881,0.00001381,-0.00111703,-0.00006218,-0.00008
 716,0.00021519,0.00034105,0.00000459,-0.00418662,0.00644253,0.00681613
 ,0.02460244,-0.00551510,-0.00132423,-0.00089931,-0.00069226,-0.0008754
 9,0.00002718,-0.00113728,-0.00322284,-0.00052527,0.01066111,-0.0156164
 8,0.00068581,-0.12315236,0.11667253,-0.00692174,-0.01104460,0.02941365
 ,-0.00114150,-0.00064038,0.00136118,-0.00006908,0.00006848,0.00009163,
 0.00007906,0.00059846,-0.00080820,0.00003721,0.12897904,-0.00023773,0.
 00195518,0.00003476,-0.00091636,0.00036567,-0.00006665,-0.00401890,-0.
 00291216,-0.00020710,0.01477545,-0.01920133,0.00119282,0.11646160,-0.2
 6899882,0.00977368,-0.00183758,0.00296850,-0.00015690,-0.00018345,-0.0
 0001347,-0.00000140,0.00006824,-0.00002325,-0.00000376,0.00067984,-0.0
 0095276,0.00003767,-0.12465368,0.28601054,-0.00088362,0.00000756,0.007
 37296,-0.00004231,-0.00010154,-0.00110678,-0.00047642,-0.00023102,0.00
 672221,0.00050740,-0.00100775,0.00201818,-0.00710107,0.00989084,-0.036
 81303,-0.00088554,0.00199637,0.00340144,-0.00005644,0.00009908,0.00020
 700,0.00007494,0.00000301,-0.00104113,0.00002145,-0.00005583,0.0002648
 1,0.00812997,-0.01056827,0.02514825,0.01162193,0.01466171,0.00049415,-
 0.00052493,0.00324930,-0.00053846,-0.00082933,0.00086987,0.00001849,-0
 .00493846,0.00067280,-0.00086077,-0.01169856,-0.02828274,-0.00087875,-
 0.12733130,-0.11935510,-0.00565067,0.00080152,-0.00053238,0.00032235,0
 .00033535,0.00079647,0.00001269,0.00004732,-0.00007883,0.00007192,0.00
 104306,0.00028132,0.00036814,0.13215658,-0.01612266,-0.01839325,-0.001
 00952,0.00400242,-0.00328991,0.00031403,0.00085471,0.00031753,0.000052
 55,0.00044440,0.00188503,0.00004657,0.00233497,0.00333992,0.00015321,-
 0.11949118,-0.26690545,-0.00720853,0.00031517,0.00097575,0.00000149,-0
 .00081079,-0.00099732,-0.00005321,-0.00008842,-0.00002572,-0.00000925,
 -0.00034941,0.00086157,-0.00004420,0.12867980,0.28221283,0.00061956,0.
 00099160,0.00364249,-0.00050092,0.00027646,0.00725844,0.00000811,0.000
 06860,-0.00110403,-0.00090056,0.00004726,0.00745991,-0.00103922,-0.001
 89798,0.00339329,-0.00566756,-0.00713954,-0.03796502,0.00032429,-0.000
 05002,-0.00397123,0.00001706,0.00005698,0.00012478,0.00006792,-0.00001
 100,-0.00101547,0.00037933,-0.00002189,-0.00422030,0.00671750,0.007737
 08,0.02628432,-0.00345639,-0.00001008,-0.00018064,0.00438553,0.0030873
 8,0.00006582,-0.03055598,0.00269752,-0.00218125,-0.12351526,0.02666704
 ,-0.00524156,-0.02392422,-0.00428801,-0.00189012,0.00429855,-0.0017869
 5,-0.00031425,0.00010333,-0.00010088,0.00008585,-0.00081729,-0.0002263
 0,-0.00005945,0.00097582,-0.00070563,0.00024385,0.00102640,-0.00063696
 ,0.00035917,-0.00024979,0.00020249,-0.00000798,0.19131531,0.00025923,0
 .00208803,-0.00000687,-0.00174012,-0.00388130,-0.00022266,0.02152591,0
 .00117201,0.00126839,0.00354971,-0.04601532,-0.00100846,-0.02369615,0.
 00453159,-0.00167762,0.00109051,-0.00483809,0.00016765,0.00000898,0.00
 012554,0.00003965,0.00070366,0.00003463,0.00007712,0.00152134,0.000312
 36,0.00024167,-0.00092620,-0.00050342,-0.00001590,-0.00093158,-0.00000
 474,-0.00005262,0.00128611,0.25897290,-0.00006584,-0.00032182,-0.00086
 759,0.00019389,0.00040654,0.00442938,-0.00249139,0.00021276,0.00336445
 ,-0.00696670,0.00024180,-0.01795307,-0.00174587,-0.00018350,0.00322230
 ,-0.00033805,-0.00007552,0.00245402,0.00003144,-0.00000983,-0.00049890
 ,-0.00007616,-0.00001111,0.00021975,0.00027286,-0.00010139,-0.00229935
 ,0.00018403,0.00004704,-0.00107624,-0.00006802,0.00001695,0.00019499,0
 .01291273,0.01737481,0.01031260,0.00003478,0.00001138,-0.00002708,-0.0
 0000997,-0.00025610,0.00006842,0.00164081,-0.00110047,0.00013246,-0.00
 327326,-0.02223950,-0.00154846,-0.00592598,0.00185629,-0.00059973,-0.0
 0013461,-0.00140280,0.00008180,-0.00000251,0.00008368,-0.00000555,0.00
 009502,0.00003286,0.00002517,-0.00013815,0.00060035,-0.00010720,-0.000
 19457,0.00021821,-0.00001568,-0.00043337,0.00002852,-0.00001751,-0.019
 58601,-0.00265139,-0.00184292,0.02792782,0.00008097,0.00014056,0.00001
 870,-0.00026915,0.00025600,0.00007066,0.00175779,0.00001606,0.00020319
 ,-0.00068155,-0.00050080,0.00012259,0.00001619,0.00030092,-0.00008811,
 0.00029009,0.00007008,-0.00000518,-0.00000920,0.00005770,-0.00001965,-
 0.00001188,-0.00000409,-0.00001310,-0.00001342,0.00058504,-0.00008290,
 0.00023753,0.00044374,0.00002766,-0.00003063,0.00002378,-0.00000494,-0
 .02618572,-0.21199420,-0.01759673,0.02481899,0.21060521,-0.00008454,0.
 00013629,-0.00000470,-0.00001341,-0.00010225,-0.00048918,0.00020643,-0
 .00010925,0.00013226,0.00023953,-0.00117083,-0.00202416,-0.00048997,0.
 00012095,0.00087817,0.00015631,-0.00009595,0.00130027,0.00001533,0.000
 00960,-0.00010162,0.00001905,0.00000292,-0.00005727,-0.00013857,0.0000
 8302,0.00040752,0.00003431,-0.00006001,-0.00087737,-0.00000855,0.00000
 284,-0.00008217,-0.00379219,-0.01618513,-0.00150232,0.00385629,0.01736
 780,0.00242057\\0.00001156,-0.00000502,-0.00000182,0.00000398,-0.00000
 472,0.00000490,-0.00000257,0.00000523,-0.00000320,-0.00000697,-0.00000
 950,0.00000322,0.00000502,0.00000600,0.00000607,-0.00000215,0.00001192
 ,-0.00000773,-0.00000376,0.00000119,-0.00000017,-0.00000327,0.00000053
 ,-0.00000675,0.00000194,0.00000050,-0.00000307,0.00000061,-0.00000308,
 0.00000204,-0.00000210,-0.00000147,0.00000468,0.00000448,0.00000776,0.
 00000475,-0.00000676,-0.00000937,-0.00000290\\\@


 GROWING OLD ISN'T SO BAD -- WHEN YOU CONSIDER THE ALTERNATIVE.

                     -- MAURICE CHEVALIER
 Job cpu time:       0 days  2 hours 29 minutes  1.2 seconds.
 File lengths (MBytes):  RWF=    202 Int=      0 D2E=      0 Chk=     13 Scr=      1
 Normal termination of Gaussian 09 at Wed Sep  9 03:15:18 2015.
