 Entering Gaussian System, Link 0=/prod/G09/g09d1/g09
 Initial command:
 /prod/G09/g09d1/l1.exe "/tmp/rcrehuet/357939.201606021712/Gau-14616.inp" -scrdir="/tmp/rcrehuet/357939.201606021712/"
 Entering Link 1 = /prod/G09/g09d1/l1.exe PID=     14617.
  
 Copyright (c) 1988,1990,1992,1993,1995,1998,2003,2009,2013,
            Gaussian, Inc.  All Rights Reserved.
  
 This is part of the Gaussian(R) 09 program.  It is based on
 the Gaussian(R) 03 system (copyright 2003, Gaussian, Inc.),
 the Gaussian(R) 98 system (copyright 1998, Gaussian, Inc.),
 the Gaussian(R) 94 system (copyright 1995, Gaussian, Inc.),
 the Gaussian 92(TM) system (copyright 1992, Gaussian, Inc.),
 the Gaussian 90(TM) system (copyright 1990, Gaussian, Inc.),
 the Gaussian 88(TM) system (copyright 1988, Gaussian, Inc.),
 the Gaussian 86(TM) system (copyright 1986, Carnegie Mellon
 University), and the Gaussian 82(TM) system (copyright 1983,
 Carnegie Mellon University). Gaussian is a federally registered
 trademark of Gaussian, Inc.
  
 This software contains proprietary and confidential information,
 including trade secrets, belonging to Gaussian, Inc.
  
 This software is provided under written license and may be
 used, copied, transmitted, or stored only in accord with that
 written license.
  
 The following legend is applicable only to US Government
 contracts under FAR:
  
                    RESTRICTED RIGHTS LEGEND
  
 Use, reproduction and disclosure by the US Government is
 subject to restrictions as set forth in subparagraphs (a)
 and (c) of the Commercial Computer Software - Restricted
 Rights clause in FAR 52.227-19.
  
 Gaussian, Inc.
 340 Quinnipiac St., Bldg. 40, Wallingford CT 06492
  
  
 ---------------------------------------------------------------
 Warning -- This program may not be used in any manner that
 competes with the business of Gaussian, Inc. or will provide
 assistance to any competitor of Gaussian, Inc.  The licensee
 of this program is prohibited from giving any competitor of
 Gaussian, Inc. access to this program.  By using this program,
 the user acknowledges that Gaussian, Inc. is engaged in the
 business of creating and licensing software in the field of
 computational chemistry and represents and warrants to the
 licensee that it is not a competitor of Gaussian, Inc. and that
 it will not use this program in any manner prohibited above.
 ---------------------------------------------------------------
  

 Cite this work as:
 Gaussian 09, Revision D.01,
 M. J. Frisch, G. W. Trucks, H. B. Schlegel, G. E. Scuseria, 
 M. A. Robb, J. R. Cheeseman, G. Scalmani, V. Barone, B. Mennucci, 
 G. A. Petersson, H. Nakatsuji, M. Caricato, X. Li, H. P. Hratchian, 
 A. F. Izmaylov, J. Bloino, G. Zheng, J. L. Sonnenberg, M. Hada, 
 M. Ehara, K. Toyota, R. Fukuda, J. Hasegawa, M. Ishida, T. Nakajima, 
 Y. Honda, O. Kitao, H. Nakai, T. Vreven, J. A. Montgomery, Jr., 
 J. E. Peralta, F. Ogliaro, M. Bearpark, J. J. Heyd, E. Brothers, 
 K. N. Kudin, V. N. Staroverov, T. Keith, R. Kobayashi, J. Normand, 
 K. Raghavachari, A. Rendell, J. C. Burant, S. S. Iyengar, J. Tomasi, 
 M. Cossi, N. Rega, J. M. Millam, M. Klene, J. E. Knox, J. B. Cross, 
 V. Bakken, C. Adamo, J. Jaramillo, R. Gomperts, R. E. Stratmann, 
 O. Yazyev, A. J. Austin, R. Cammi, C. Pomelli, J. W. Ochterski, 
 R. L. Martin, K. Morokuma, V. G. Zakrzewski, G. A. Voth, 
 P. Salvador, J. J. Dannenberg, S. Dapprich, A. D. Daniels, 
 O. Farkas, J. B. Foresman, J. V. Ortiz, J. Cioslowski, 
 and D. J. Fox, Gaussian, Inc., Wallingford CT, 2013.
 
 ******************************************
 Gaussian 09:  ES64L-G09RevD.01 24-Apr-2013
                 2-Jun-2016 
 ******************************************
 %nproc=2
 Will use up to    2 processors via shared memory.
 %chk=PhCCCC.chk
 %mem=40MW
 ----------------------------------------------------------------------
 # b3lyp/sto-3g BOMD=(MaxPoints=35, Ntraj=1, Update=15, RTemp=298) # gu
 ess=read geom=allcheck
 ----------------------------------------------------------------------
 1/6=1,14=-1,26=3,29=7,38=1,42=35,46=298,70=4,71=15/1,18;
 2/12=2,40=1/2;
 3/6=3,11=2,14=-4,16=1,25=1,30=1,71=2,74=-5,116=-2,140=1/1,2,3;
 4/5=1/1;
 5/5=2,38=6/2;
 8/6=4,10=90,11=11/1;
 11/6=1,8=1,9=11,15=111,16=1/1,2,10;
 10/6=1/2;
 6/7=2,8=2,9=2,10=2,28=1/1;
 7/10=1,25=1/1,2,3,16;
 1/6=1,14=-1,26=3,42=35,46=298,70=4,71=15/18(3);
 2//2;
 7/9=1,25=1,44=-1/16;
 99//99;
 2/29=1/2;
 3/6=3,11=2,14=-2,16=1,25=1,30=1,71=2,74=-5,140=1/1,2,3;
 4/5=5,16=3,69=1/1;
 5/5=2,38=5/2;
 8/6=4,10=90,11=11/1;
 11/6=1,8=1,9=11,15=111,16=1/1,2,10;
 10/6=1/2;
 7/10=1,25=1/1,2,3,16;
 1/6=1,14=-1,26=3,42=35,46=298,70=4,71=15/18(-8);
 2/29=1/2;
 6/7=2,8=2,9=2,10=2,19=2,28=1/1;
 7/9=1,25=1,44=-1/16;
 99/9=1/99;
 Structure from the checkpoint file:  "PhCCCC.chk"
 -------------------
 Title Card Required
 -------------------
 Charge =  0 Multiplicity = 1
 Redundant internal coordinates found in file.
 C,0,-0.075814703,0.,0.0269380583
 C,0,-0.0045596398,0.,1.4463041796
 C,0,1.2336805037,0.,2.1042190086
 C,0,2.457241559,0.,1.3787842111
 C,0,2.3859864958,0.,-0.0405819102
 H,0,-0.9288538077,0.,2.0382912867
 H,0,1.265233515,0.,3.2024280981
 H,0,3.3102806637,0.,-0.6325690173
 C,0,3.7520425889,0.,2.1313241979
 C,0,4.9872240436,0.,1.600868666
 H,0,5.1663339096,0.,0.5196128924
 H,0,3.6421497516,0.,3.2262297951
 H,0,5.8793431704,0.,2.2379242812
 C,0,-1.3706157329,0.,-0.7256019285
 H,0,-1.2607228956,0.,-1.8205075257
 C,0,-2.6057971877,0.,-0.1951463967
 H,0,-2.7849070536,0.,0.886109377
 H,0,-3.4979163144,0.,-0.8322020118
 C,0,1.1477463523,0.,-0.6984967392
 H,0,1.116193341,0.,-1.7967058287
 Recover connectivity data from disk.
 TRJ-TRJ-TRJ-TRJ-TRJ-TRJ-TRJ-TRJ-TRJ-TRJ-TRJ-TRJ-TRJ-TRJ-TRJ-TRJ-TRJ-TRJ
 ------------------------------------------------------------------------
 INPUT DATA FOR L118
 ------------------------------------------------------------------------

 General parameters:
 Max. points for each Traj.   =      35
 Total Number of Trajectories =       1
 Random Number Generator Seed =  398465
 Trajectory Step Size         =   0.250 sqrt(amu)*bohr

 Sampling parameters:
 Vib Energy Sampling Option   = Thermal sampling                    
      TS Sampling direction   = Forward
   Vib Sampling Temperature   =     298.0 K
 Rot Energy Sampling Option   = Thermal distribution (symmetric top)
   Rot Sampling Temperature   =     298.0 K
 Start point scaling criteria =       1.000D-05 Hartree

 Integration parameters:
 Correction Scheme            = Fifth order polynomial fit          
 Project trans/rot in grad.   = True 
 Project in prediction step   = True 
 Project in correction step   = True 
 Integration Scheme           = Bulirsch-Stoer method               
 Integration Step Size        =       2.000D-01 femtosec
 Truncation Error Criteria    =       1.000D-08 bohr
 Energy Error Criteria        =       1.000D-04 Hartree
 Hessian evaluation           = Update for  15 steps.
 Hessian update method        = Bofill update                       
 Back integrate previous updated step with new Hessian.
 ------------------------------------------------------------------------
 TRJ-TRJ-TRJ-TRJ-TRJ-TRJ-TRJ-TRJ-TRJ-TRJ-TRJ-TRJ-TRJ-TRJ-TRJ-TRJ-TRJ-TRJ
                          Input orientation:                          
 ---------------------------------------------------------------------
 Center     Atomic      Atomic             Coordinates (Angstroms)
 Number     Number       Type             X           Y           Z
 ---------------------------------------------------------------------
      1          6           0       -0.075815    0.000000    0.026938
      2          6           0       -0.004560    0.000000    1.446304
      3          6           0        1.233681    0.000000    2.104219
      4          6           0        2.457242    0.000000    1.378784
      5          6           0        2.385986    0.000000   -0.040582
      6          1           0       -0.928854    0.000000    2.038291
      7          1           0        1.265234    0.000000    3.202428
      8          1           0        3.310281    0.000000   -0.632569
      9          6           0        3.752043    0.000000    2.131324
     10          6           0        4.987224    0.000000    1.600869
     11          1           0        5.166334    0.000000    0.519613
     12          1           0        3.642150    0.000000    3.226230
     13          1           0        5.879343    0.000000    2.237924
     14          6           0       -1.370616    0.000000   -0.725602
     15          1           0       -1.260723    0.000000   -1.820508
     16          6           0       -2.605797    0.000000   -0.195146
     17          1           0       -2.784907    0.000000    0.886109
     18          1           0       -3.497916    0.000000   -0.832202
     19          6           0        1.147746    0.000000   -0.698497
     20          1           0        1.116193    0.000000   -1.796706
 ---------------------------------------------------------------------
                    Distance matrix (angstroms):
                    1          2          3          4          5
     1  C    0.000000
     2  C    1.421154   0.000000
     3  C    2.455580   1.402174   0.000000
     4  C    2.871213   2.462727   1.422448   0.000000
     5  C    2.462727   2.815234   2.434744   1.421154   0.000000
     6  H    2.184769   1.097619   2.163539   3.449723   3.912784
     7  H    3.447049   2.167105   1.098662   2.178660   3.431210
     8  H    3.449723   3.912784   3.435444   2.184769   1.097619
     9  C    4.368173   3.818549   2.518508   1.497607   2.565791
    10  C    5.302039   4.994176   3.787143   2.539711   3.075841
    11  H    5.265249   5.253275   4.239899   2.842069   2.836221
    12  H    4.904970   4.057909   2.656997   2.194781   3.500001
    13  H    6.352351   5.936916   4.647586   3.528300   4.170747
    14  C    1.497607   2.565791   3.845809   4.368173   3.818549
    15  H    2.194781   3.500001   4.650325   4.904970   4.057909
    16  C    2.539711   3.075841   4.475340   5.302039   4.994176
    17  H    2.842069   2.836221   4.199147   5.265249   5.253275
    18  H    3.528300   4.170747   5.568714   6.352351   5.936916
    19  C    1.422448   2.434744   2.804033   2.455580   1.402174
    20  H    2.178660   3.431210   3.902694   3.447049   2.167105
                    6          7          8          9         10
     6  H    0.000000
     7  H    2.483794   0.000000
     8  H    5.010365   4.346196   0.000000
     9  C    4.681821   2.707671   2.798975   0.000000
    10  C    5.932227   4.051939   2.792917   1.344268   0.000000
    11  H    6.281536   4.734562   2.184595   2.144256   1.095990
    12  H    4.722846   2.377035   3.873043   1.100407   2.109745
    13  H    6.811123   4.713839   3.852248   2.129970   1.096228
    14  C    2.798975   4.730446   4.681821   5.865463   6.770125
    15  H    3.873043   5.622307   4.722846   6.383165   7.123388
    16  C    2.792917   5.150572   5.932227   6.770125   7.802541
    17  H    2.184595   4.665723   6.281536   6.654493   7.804928
    18  H    3.852248   6.242262   6.811123   7.832266   8.827086
    19  C    3.435444   3.902694   2.163539   3.845809   4.475340
    20  H    4.346196   5.001355   2.483794   4.730446   5.150572
                   11         12         13         14         15
    11  H    0.000000
    12  H    3.106270   0.000000
    13  H    1.860370   2.445768   0.000000
    14  C    6.654493   6.383165   7.832266   0.000000
    15  H    6.839826   7.036172   8.212881   1.100407   0.000000
    16  C    7.804928   7.123388   8.827086   1.344268   2.109745
    17  H    7.959683   6.839826   8.769073   2.144256   3.106270
    18  H    8.769073   8.212881   9.867050   2.129970   2.445768
    19  C    4.199147   4.650325   5.568714   2.518508   2.656997
    20  H    4.665723   5.622307   6.242262   2.707671   2.377035
                   16         17         18         19         20
    16  C    0.000000
    17  H    1.095990   0.000000
    18  H    1.096228   1.860370   0.000000
    19  C    3.787143   4.239899   4.647586   0.000000
    20  H    4.051939   4.734562   4.713839   1.098662   0.000000
 Stoichiometry    C10H10
 Framework group  C2H[SGH(C10H10)]
 Deg. of freedom    19
 Full point group                 C2H     NOp   4
 Largest Abelian subgroup         C2H     NOp   4
 Largest concise Abelian subgroup C2      NOp   2
                         Standard orientation:                         
 ---------------------------------------------------------------------
 Center     Atomic      Atomic             Coordinates (Angstroms)
 Number     Number       Type             X           Y           Z
 ---------------------------------------------------------------------
      1          6           0        0.269481    1.410087    0.000000
      2          6           0       -1.064752    0.920700    0.000000
      3          6           0       -1.325434   -0.457029    0.000000
      4          6           0       -0.269481   -1.410087    0.000000
      5          6           0        1.064752   -0.920700    0.000000
      6          1           0       -1.904435    1.627596    0.000000
      7          1           0       -2.364772   -0.813167    0.000000
      8          1           0        1.904435   -1.627596    0.000000
      9          6           0       -0.603732   -2.869917    0.000000
     10          6           0        0.269481   -3.891952    0.000000
     11          1           0        1.355166   -3.742013    0.000000
     12          1           0       -1.681904   -3.090004    0.000000
     13          1           0       -0.074029   -4.932969    0.000000
     14          6           0        0.603732    2.869917    0.000000
     15          1           0        1.681904    3.090004    0.000000
     16          6           0       -0.269481    3.891952    0.000000
     17          1           0       -1.355166    3.742013    0.000000
     18          1           0        0.074029    4.932969    0.000000
     19          6           0        1.325434    0.457029    0.000000
     20          1           0        2.364772    0.813167    0.000000
 ---------------------------------------------------------------------
 Rotational constants (GHZ):      4.6264904      0.6849396      0.5966127
 Standard basis: STO-3G (5D, 7F)
 There are    25 symmetry adapted cartesian basis functions of AG  symmetry.
 There are     5 symmetry adapted cartesian basis functions of BG  symmetry.
 There are     5 symmetry adapted cartesian basis functions of AU  symmetry.
 There are    25 symmetry adapted cartesian basis functions of BU  symmetry.
 There are    25 symmetry adapted basis functions of AG  symmetry.
 There are     5 symmetry adapted basis functions of BG  symmetry.
 There are     5 symmetry adapted basis functions of AU  symmetry.
 There are    25 symmetry adapted basis functions of BU  symmetry.
    60 basis functions,   180 primitive gaussians,    60 cartesian basis functions
    35 alpha electrons       35 beta electrons
       nuclear repulsion energy       445.8993231326 Hartrees.
 NAtoms=   20 NActive=   20 NUniq=   10 SFac= 4.00D+00 NAtFMM=   60 NAOKFM=F Big=F
 Integral buffers will be    131072 words long.
 Raffenetti 2 integral format.
 Two-electron integral symmetry is turned on.
 One-electron integrals computed using PRISM.
 NBasis=    60 RedAO= T EigKep=  1.81D-01  NBF=    25     5     5    25
 NBsUse=    60 1.00D-06 EigRej= -1.00D+00 NBFU=    25     5     5    25
 Initial guess from the checkpoint file:  "PhCCCC.chk"
 B after Tr=     0.000000    0.000000    0.000000
         Rot=    1.000000    0.000000    0.000000    0.000000 Ang=   0.00 deg.
 Initial guess orbital symmetries:
       Occupied  (BU) (AG) (BU) (AG) (BU) (AG) (BU) (AG) (BU) (AG)
                 (AG) (BU) (AG) (BU) (BU) (AG) (AG) (BU) (AG) (AG)
                 (BU) (BU) (BU) (AG) (BU) (BU) (AG) (AU) (BU) (AG)
                 (AG) (BG) (AU) (BG) (BG)
       Virtual   (AU) (AU) (BG) (AU) (BG) (AG) (BU) (BU) (AG) (AG)
                 (BU) (BU) (AG) (BU) (AG) (AG) (BU) (AG) (BU) (BU)
                 (AG) (AG) (BU) (AG) (BU)
 Keep R1 ints in memory in symmetry-blocked form, NReq=2592849.
 Requested convergence on RMS density matrix=1.00D-08 within 128 cycles.
 Requested convergence on MAX density matrix=1.00D-06.
 Requested convergence on             energy=1.00D-06.
 No special actions if energy rises.
 SCF Done:  E(RB3LYP) =  -382.308266580     A.U. after    1 cycles
            NFock=  1  Conv=0.18D-08     -V/T= 2.0172
 DoSCS=F DFT=T ScalE2(SS,OS)=  1.000000  1.000000
 Range of M.O.s used for correlation:     1    60
 NBasis=    60 NAE=    35 NBE=    35 NFC=     0 NFV=     0
 NROrb=     60 NOA=    35 NOB=    35 NVA=    25 NVB=    25
 Symmetrizing basis deriv contribution to polar:
 IMax=3 JMax=2 DiffMx= 0.00D+00
 G2DrvN: will do    21 centers at a time, making    1 passes.
 Calling FoFCou, ICntrl=  3107 FMM=F I1Cent=   0 AccDes= 0.00D+00.
 End of G2Drv F.D. properties file   721 does not exist.
 End of G2Drv F.D. properties file   722 does not exist.
 End of G2Drv F.D. properties file   788 does not exist.
          IDoAtm=11111111111111111111
          Differentiating once with respect to electric field.
                with respect to dipole field.
          Differentiating once with respect to nuclear coordinates.
 Keep R1 ints in memory in symmetry-blocked form, NReq=2566738.
          There are    33 degrees of freedom in the 1st order CPHF.  IDoFFX=4 NUNeed=    33.
     33 vectors produced by pass  0 Test12= 2.65D-15 3.03D-09 XBig12= 2.20D+02 1.32D+01.
 AX will form    33 AO Fock derivatives at one time.
     33 vectors produced by pass  1 Test12= 2.65D-15 3.03D-09 XBig12= 3.17D+01 1.87D+00.
     33 vectors produced by pass  2 Test12= 2.65D-15 3.03D-09 XBig12= 1.47D-01 1.08D-01.
     33 vectors produced by pass  3 Test12= 2.65D-15 3.03D-09 XBig12= 2.17D-04 2.63D-03.
     33 vectors produced by pass  4 Test12= 2.65D-15 3.03D-09 XBig12= 3.35D-07 9.30D-05.
     13 vectors produced by pass  5 Test12= 2.65D-15 3.03D-09 XBig12= 1.75D-10 2.22D-06.
      3 vectors produced by pass  6 Test12= 2.65D-15 3.03D-09 XBig12= 8.52D-14 4.12D-08.
 InvSVY:  IOpt=1 It=  1 EMax= 3.55D-15
 Solved reduced A of dimension   181 with    33 vectors.
 Isotropic polarizability for W=    0.000000       74.20 Bohr**3.
 End of Minotr F.D. properties file   721 does not exist.
 End of Minotr F.D. properties file   722 does not exist.
 End of Minotr F.D. properties file   788 does not exist.

 **********************************************************************

            Population analysis using the SCF density.

 **********************************************************************

 Orbital symmetries:
       Occupied  (BU) (AG) (BU) (AG) (BU) (AG) (BU) (AG) (BU) (AG)
                 (AG) (BU) (AG) (BU) (BU) (AG) (AG) (BU) (AG) (AG)
                 (BU) (BU) (BU) (AG) (BU) (BU) (AG) (AU) (BU) (AG)
                 (AG) (BG) (AU) (BG) (BG)
       Virtual   (AU) (AU) (BG) (AU) (BG) (AG) (BU) (BU) (AG) (AG)
                 (BU) (BU) (AG) (BU) (AG) (AG) (BU) (AG) (BU) (BU)
                 (AG) (AG) (BU) (AG) (BU)
 The electronic state is 1-AG.
 Alpha  occ. eigenvalues --  -10.02021 -10.02016 -10.00812 -10.00811 -10.00679
 Alpha  occ. eigenvalues --  -10.00678 -10.00605 -10.00591  -9.99233  -9.99233
 Alpha  occ. eigenvalues --   -0.80951  -0.75399  -0.71797  -0.69978  -0.66751
 Alpha  occ. eigenvalues --   -0.58869  -0.55892  -0.53167  -0.51017  -0.45744
 Alpha  occ. eigenvalues --   -0.43936  -0.41060  -0.39796  -0.39607  -0.37397
 Alpha  occ. eigenvalues --   -0.35115  -0.34729  -0.32451  -0.31125  -0.29278
 Alpha  occ. eigenvalues --   -0.28746  -0.26355  -0.21245  -0.19505  -0.15308
 Alpha virt. eigenvalues --    0.03742   0.09036   0.11061   0.18220   0.27253
 Alpha virt. eigenvalues --    0.33223   0.34073   0.37936   0.38145   0.41097
 Alpha virt. eigenvalues --    0.41195   0.42676   0.43964   0.45276   0.47826
 Alpha virt. eigenvalues --    0.52624   0.54582   0.57601   0.59944   0.62498
 Alpha virt. eigenvalues --    0.63971   0.68279   0.71724   0.77956   0.79458
          Condensed to atoms (all electrons):
               1          2          3          4          5          6
     1  C    4.778705   0.488325  -0.027150  -0.009776  -0.026980  -0.024562
     2  C    0.488325   4.810689   0.508956  -0.026980  -0.010504   0.387880
     3  C   -0.027150   0.508956   4.815060   0.488800  -0.030712  -0.025274
     4  C   -0.009776  -0.026980   0.488800   4.778705   0.488325   0.001331
     5  C   -0.026980  -0.010504  -0.030712   0.488325   4.810689   0.000032
     6  H   -0.024562   0.387880  -0.025274   0.001331   0.000032   0.586985
     7  H    0.001335  -0.025206   0.387925  -0.025304   0.001342  -0.003825
     8  H    0.001331   0.000032   0.001346  -0.024562   0.387880   0.000002
     9  C    0.000016   0.000818  -0.028765   0.411854  -0.024071  -0.000015
    10  C    0.000000  -0.000007   0.000680  -0.023794  -0.003969   0.000000
    11  H    0.000000   0.000000   0.000013  -0.003533  -0.000563   0.000000
    12  H   -0.000001   0.000022  -0.003962  -0.026070   0.001086  -0.000002
    13  H    0.000000   0.000000  -0.000016   0.001320   0.000018   0.000000
    14  C    0.411854  -0.024071   0.000749   0.000016   0.000818  -0.003040
    15  H   -0.026070   0.001086  -0.000017  -0.000001   0.000022   0.000019
    16  C   -0.023794  -0.003969   0.000015   0.000000  -0.000007  -0.000607
    17  H   -0.003533  -0.000563  -0.000012   0.000000   0.000000   0.000563
    18  H    0.001320   0.000018   0.000000   0.000000   0.000000  -0.000017
    19  C    0.488800  -0.030712  -0.011068  -0.027150   0.508956   0.001346
    20  H   -0.025304   0.001342   0.000039   0.001335  -0.025206  -0.000034
               7          8          9         10         11         12
     1  C    0.001335   0.001331   0.000016   0.000000   0.000000  -0.000001
     2  C   -0.025206   0.000032   0.000818  -0.000007   0.000000   0.000022
     3  C    0.387925   0.001346  -0.028765   0.000680   0.000013  -0.003962
     4  C   -0.025304  -0.024562   0.411854  -0.023794  -0.003533  -0.026070
     5  C    0.001342   0.387880  -0.024071  -0.003969  -0.000563   0.001086
     6  H   -0.003825   0.000002  -0.000015   0.000000   0.000000  -0.000002
     7  H    0.588889  -0.000034  -0.003903   0.000029   0.000001   0.001033
     8  H   -0.000034   0.586985  -0.003040  -0.000607   0.000563   0.000019
     9  C   -0.003903  -0.003040   4.798257   0.586097  -0.023816   0.386255
    10  C    0.000029  -0.000607   0.586097   4.849814   0.385952  -0.027659
    11  H    0.000001   0.000563  -0.023816   0.385952   0.586746   0.002044
    12  H    0.001033   0.000019   0.386255  -0.027659   0.002044   0.595454
    13  H   -0.000002  -0.000017  -0.024045   0.388265  -0.023727  -0.005090
    14  C   -0.000014  -0.000015   0.000000   0.000000   0.000000   0.000000
    15  H    0.000000  -0.000002   0.000000   0.000000   0.000000   0.000000
    16  C    0.000000   0.000000   0.000000   0.000000   0.000000   0.000000
    17  H    0.000002   0.000000   0.000000   0.000000   0.000000   0.000000
    18  H    0.000000   0.000000   0.000000   0.000000   0.000000   0.000000
    19  C    0.000039  -0.025274   0.000749   0.000015  -0.000012  -0.000017
    20  H    0.000002  -0.003825  -0.000014   0.000000   0.000002   0.000000
              13         14         15         16         17         18
     1  C    0.000000   0.411854  -0.026070  -0.023794  -0.003533   0.001320
     2  C    0.000000  -0.024071   0.001086  -0.003969  -0.000563   0.000018
     3  C   -0.000016   0.000749  -0.000017   0.000015  -0.000012   0.000000
     4  C    0.001320   0.000016  -0.000001   0.000000   0.000000   0.000000
     5  C    0.000018   0.000818   0.000022  -0.000007   0.000000   0.000000
     6  H    0.000000  -0.003040   0.000019  -0.000607   0.000563  -0.000017
     7  H   -0.000002  -0.000014   0.000000   0.000000   0.000002   0.000000
     8  H   -0.000017  -0.000015  -0.000002   0.000000   0.000000   0.000000
     9  C   -0.024045   0.000000   0.000000   0.000000   0.000000   0.000000
    10  C    0.388265   0.000000   0.000000   0.000000   0.000000   0.000000
    11  H   -0.023727   0.000000   0.000000   0.000000   0.000000   0.000000
    12  H   -0.005090   0.000000   0.000000   0.000000   0.000000   0.000000
    13  H    0.583948   0.000000   0.000000   0.000000   0.000000   0.000000
    14  C    0.000000   4.798257   0.386255   0.586097  -0.023816  -0.024045
    15  H    0.000000   0.386255   0.595454  -0.027659   0.002044  -0.005090
    16  C    0.000000   0.586097  -0.027659   4.849814   0.385952   0.388265
    17  H    0.000000  -0.023816   0.002044   0.385952   0.586746  -0.023727
    18  H    0.000000  -0.024045  -0.005090   0.388265  -0.023727   0.583948
    19  C    0.000000  -0.028765  -0.003962   0.000680   0.000013  -0.000016
    20  H    0.000000  -0.003903   0.001033   0.000029   0.000001  -0.000002
              19         20
     1  C    0.488800  -0.025304
     2  C   -0.030712   0.001342
     3  C   -0.011068   0.000039
     4  C   -0.027150   0.001335
     5  C    0.508956  -0.025206
     6  H    0.001346  -0.000034
     7  H    0.000039   0.000002
     8  H   -0.025274  -0.003825
     9  C    0.000749  -0.000014
    10  C    0.000015   0.000000
    11  H   -0.000012   0.000002
    12  H   -0.000017   0.000000
    13  H    0.000000   0.000000
    14  C   -0.028765  -0.003903
    15  H   -0.003962   0.001033
    16  C    0.000680   0.000029
    17  H    0.000013   0.000001
    18  H   -0.000016  -0.000002
    19  C    4.815060   0.387925
    20  H    0.387925   0.588889
 Mulliken charges:
               1
     1  C   -0.004513
     2  C   -0.077155
     3  C   -0.076609
     4  C   -0.004513
     5  C   -0.077155
     6  H    0.079219
     7  H    0.077691
     8  H    0.079219
     9  C   -0.076378
    10  C   -0.154816
    11  H    0.076330
    12  H    0.076886
    13  H    0.079346
    14  C   -0.076378
    15  H    0.076886
    16  C   -0.154816
    17  H    0.076330
    18  H    0.079346
    19  C   -0.076609
    20  H    0.077691
 Sum of Mulliken charges =   0.00000
 Mulliken charges with hydrogens summed into heavy atoms:
               1
     1  C   -0.004513
     2  C    0.002064
     3  C    0.001082
     4  C   -0.004513
     5  C    0.002064
     9  C    0.000508
    10  C    0.000860
    14  C    0.000508
    16  C    0.000860
    19  C    0.001082
 APT charges:
               1
     1  C    0.021502
     2  C   -0.079686
     3  C   -0.083003
     4  C    0.021502
     5  C   -0.079686
     6  H    0.058835
     7  H    0.057849
     8  H    0.058835
     9  C    0.038356
    10  C   -0.167047
    11  H    0.050754
    12  H    0.023536
    13  H    0.078905
    14  C    0.038356
    15  H    0.023536
    16  C   -0.167047
    17  H    0.050754
    18  H    0.078905
    19  C   -0.083003
    20  H    0.057849
 Sum of APT charges =   0.00000
 APT charges with hydrogens summed into heavy atoms:
               1
     1  C    0.021502
     2  C   -0.020852
     3  C   -0.025154
     4  C    0.021502
     5  C   -0.020852
     9  C    0.061892
    10  C   -0.037389
    14  C    0.061892
    16  C   -0.037389
    19  C   -0.025154
 Electronic spatial extent (au):  <R**2>=           1861.7257
 Charge=              0.0000 electrons
 Dipole moment (field-independent basis, Debye):
    X=              0.0000    Y=              0.0000    Z=              0.0000  Tot=              0.0000
 Quadrupole moment (field-independent basis, Debye-Ang):
   XX=            -50.2216   YY=            -50.7167   ZZ=            -58.6254
   XY=              0.0592   XZ=              0.0000   YZ=              0.0000
 Traceless Quadrupole moment (field-independent basis, Debye-Ang):
   XX=              2.9663   YY=              2.4712   ZZ=             -5.4375
   XY=              0.0592   XZ=              0.0000   YZ=              0.0000
 Octapole moment (field-independent basis, Debye-Ang**2):
  XXX=              0.0000  YYY=              0.0000  ZZZ=              0.0000  XYY=              0.0000
  XXY=              0.0000  XXZ=              0.0000  XZZ=              0.0000  YZZ=              0.0000
  YYZ=              0.0000  XYZ=              0.0000
 Hexadecapole moment (field-independent basis, Debye-Ang**3):
 XXXX=           -330.0945 YYYY=          -1861.9932 ZZZZ=            -47.6115 XXXY=            -13.8195
 XXXZ=              0.0000 YYYX=             -8.0840 YYYZ=              0.0000 ZZZX=              0.0000
 ZZZY=              0.0000 XXYY=           -367.7213 XXZZ=            -72.2590 YYZZ=           -367.5321
 XXYZ=              0.0000 YYXZ=              0.0000 ZZXY=             -5.8264
 N-N= 4.458993231326D+02 E-N=-1.776414675959D+03  KE= 3.758473463271D+02
 Symmetry AG   KE= 1.814054754355D+02
 Symmetry BG   KE= 7.823291412781D+00
 Symmetry AU   KE= 4.696947537576D+00
 Symmetry BU   KE= 1.819216319412D+02
  Exact polarizability:  68.238  -6.778 143.010   0.000   0.000  11.343
 Approx polarizability: 124.068 -22.165 223.847   0.000   0.000  13.774
 Calling FoFJK, ICntrl=    100127 FMM=F ISym2X=1 I1Cent= 0 IOpClX= 0 NMat=1 NMatS=1 NMatT=0.
 ***** Axes restored to original set *****
 -------------------------------------------------------------------
 Center     Atomic                   Forces (Hartrees/Bohr)
 Number     Number              X              Y              Z
 -------------------------------------------------------------------
      1        6          -0.000020037    0.000000000   -0.000045649
      2        6          -0.000034228    0.000000000    0.000010841
      3        6           0.000018201    0.000000000   -0.000002583
      4        6           0.000020037    0.000000000    0.000045649
      5        6           0.000034228    0.000000000   -0.000010841
      6        1           0.000001282    0.000000000   -0.000004800
      7        1          -0.000007804    0.000000000    0.000003789
      8        1          -0.000001282    0.000000000    0.000004800
      9        6          -0.000036929    0.000000000   -0.000041411
     10        6           0.000011570    0.000000000   -0.000002820
     11        1           0.000008952    0.000000000    0.000013298
     12        1          -0.000002823    0.000000000    0.000008540
     13        1          -0.000004746    0.000000000    0.000007166
     14        6           0.000036929    0.000000000    0.000041411
     15        1           0.000002823    0.000000000   -0.000008540
     16        6          -0.000011570    0.000000000    0.000002820
     17        1          -0.000008952    0.000000000   -0.000013298
     18        1           0.000004746    0.000000000   -0.000007166
     19        6          -0.000018201    0.000000000    0.000002583
     20        1           0.000007804    0.000000000   -0.000003789
 -------------------------------------------------------------------
 Cartesian Forces:  Max     0.000045649 RMS     0.000016170
 FormGI is forming the generalized inverse of G from B-inverse, IUseBI=4.
 TRJ-TRJ-TRJ-TRJ-TRJ-TRJ-TRJ-TRJ-TRJ-TRJ-TRJ-TRJ-TRJ-TRJ-TRJ-TRJ-TRJ-TRJ
          ******** Start new trajectory calculation ********
 Trajectory Number     1    Step Number     1

 Eigenvalues of Mass-weighted Force Constants in hartree/(bohr**2*amu):
     0.10545427D-03     0.26662514D-03     0.83069063D-03     0.12081146D-02
     0.26144076D-02     0.33560890D-02     0.62808887D-02     0.68178191D-02
     0.82706342D-02     0.89339815D-02     0.12641620D-01     0.16294000D-01
     0.17153618D-01     0.18884541D-01     0.20432547D-01     0.24840571D-01
     0.28163694D-01     0.30364269D-01     0.30487055D-01     0.36362035D-01
     0.36369997D-01     0.39374383D-01     0.40815798D-01     0.43616975D-01
     0.45823987D-01     0.46242325D-01     0.46255199D-01     0.46549147D-01
     0.55031098D-01     0.60450371D-01     0.62493594D-01     0.63567516D-01
     0.69128356D-01     0.74107673D-01     0.76237162D-01     0.76946939D-01
     0.86908510D-01     0.92679858D-01     0.93834726D-01     0.10195604D+00
     0.10828829D+00     0.11455145D+00     0.12455252D+00     0.12467079D+00
     0.43690457D+00     0.43708894D+00     0.44756953D+00     0.44758150D+00
     0.45001606D+00     0.45093471D+00     0.45524980D+00     0.45602382D+00
     0.47683997D+00     0.47684314D+00     0.00000000D+00     0.00000000D+00
     0.00000000D+00     0.00000000D+00     0.00000000D+00     0.00000000D+00
 Get start point for trajectory     1

 -------------------------------------------------------
          Thermal Sampling of Vibrational Modes

 Mode     Wavenumber     Vib. quant.#  Energy (kcal/mol)

 -------------------------------------------------------
    1        52.788            4          0.679180    
    2        83.937            3          0.839960    
    3       148.158            2           1.05901    
    4       178.673            1          0.766277    
    5       262.840            0          0.375748    
    6       297.797            0          0.425723    
    7       407.394            0          0.582399    
    8       424.450            0          0.606782    
    9       467.491            0          0.668313    
   10       485.878            0          0.694597    
   11       577.970            0          0.826250    
   12       656.173            0          0.938046    
   13       673.259            0          0.962472    
   14       706.411            0           1.00987    
   15       734.794            0           1.05044    
   16       810.187            0           1.15822    
   17       862.679            0           1.23326    
   18       895.748            0           1.28054    
   19       897.557            0           1.28312    
   20       980.231            0           1.40131    
   21       980.338            0           1.40146    
   22      1020.026            1           4.37460    
   23      1038.529            0           1.48465    
   24      1073.574            0           1.53475    
   25      1100.400            0           1.57310    
   26      1105.412            0           1.58027    
   27      1105.566            0           1.58049    
   28      1109.073            0           1.58550    
   29      1205.892            0           1.72391    
   30      1263.874            0           1.80680    
   31      1285.056            0           1.83708    
   32      1296.050            0           1.85280    
   33      1351.551            0           1.93214    
   34      1399.381            0           2.00052    
   35      1419.344            0           2.02905    
   36      1425.936            0           2.03848    
   37      1515.428            0           2.16641    
   38      1564.937            0           2.23719    
   39      1574.657            0           2.25109    
   40      1641.386            0           2.34648    
   41      1691.590            0           2.41825    
   42      1739.821            0           2.48720    
   43      1814.181            0           2.59350    
   44      1815.042            0           2.59473    
   45      3397.798            0           4.85740    
   46      3398.515            0           4.85842    
   47      3439.019            0           4.91632    
   48      3439.065            0           4.91639    
   49      3448.405            0           4.92974    
   50      3451.923            0           4.93477    
   51      3468.400            0           4.95833    
   52      3471.347            0           4.96254    
   53      3549.691            0           5.07454    
   54      3549.703            0           5.07456    

 -------------------------------------------------------

                  MW displacement        MW velocity
                  (amu(1/2)*Bohr)        (amu(1/2)*Bohr/sec)
 Mode    1      -0.4204532819D+01      -0.1678392091D+14
 Mode    2      -0.2681085626D+01       0.2670378121D+14
 Mode    3       0.1199825052D+01       0.4520397046D+14
 Mode    4       0.9609747677D+00      -0.3526775786D+14
 Mode    5      -0.6497124685D+00       0.9386683897D+13
 Mode    6      -0.6356551949D+00       0.8725997046D+12
 Mode    7      -0.2950072777D+00      -0.3504085621D+14
 Mode    8       0.3753982033D+00      -0.3020603724D+14
 Mode    9      -0.2497580721D-01      -0.4463473300D+14
 Mode   10       0.3113075843D+00       0.3555092844D+14
 Mode   11      -0.2386710543D-01      -0.4962161575D+14
 Mode   12       0.4282471205D+00      -0.1183847828D+13
 Mode   13      -0.4150014147D+00      -0.1030632125D+14
 Mode   14      -0.3317843710D+00      -0.3269059233D+14
 Mode   15       0.2399446027D+00      -0.4512262400D+14
 Mode   16       0.1165980492D+00       0.5607529881D+14
 Mode   17      -0.2687631495D+00      -0.4216547058D+14
 Mode   18       0.2252232277D+00      -0.4881062346D+14
 Mode   19      -0.1462580514D+00      -0.5677020411D+14
 Mode   20      -0.3484805115D+00      -0.6881210138D+13
 Mode   21      -0.2626311591D+00       0.4284744880D+14
 Mode   22      -0.5947357204D+00      -0.3824791716D+13
 Mode   23       0.3716766919D-01      -0.6620927972D+14
 Mode   24      -0.2891434785D-01      -0.6746893582D+14
 Mode   25       0.9813866102D-01       0.6547559816D+14
 Mode   26       0.2299591577D+00      -0.4929033107D+14
 Mode   27       0.1140541097D-01       0.6868239421D+14
 Mode   28      -0.3204363097D+00       0.1601833626D+14
 Mode   29       0.6187653258D-01      -0.7038432808D+14
 Mode   30       0.3062124657D+00       0.9208392302D+13
 Mode   31      -0.1053668114D+00      -0.6956418824D+14
 Mode   32       0.3032438089D+00      -0.7486215885D+13
 Mode   33       0.2420098157D+00       0.4447131068D+14
 Mode   34       0.6842764753D-01       0.7518466804D+14
 Mode   35       0.2574440494D+00      -0.3641335571D+14
 Mode   36       0.2454077702D+00       0.4179277764D+14
 Mode   37      -0.1658752439D+00      -0.6505247906D+14
 Mode   38      -0.4236213999D-01      -0.8080460597D+14
 Mode   39      -0.2421058730D+00       0.3962325073D+14
 Mode   40       0.2055987568D+00       0.5450817726D+14
 Mode   41      -0.9083614695D-01      -0.7992893423D+14
 Mode   42      -0.2194641561D+00       0.4753392837D+14
 Mode   43       0.2010829050D+00       0.5502927788D+14
 Mode   44       0.1292568295D+00      -0.7616329418D+14
 Mode   45      -0.1680753513D+00      -0.5425224455D+14
 Mode   46      -0.1532848846D+00       0.6992371721D+14
 Mode   47       0.8883036453D-01      -0.1066772256D+15
 Mode   48      -0.1684775506D+00      -0.5272571042D+14
 Mode   49       0.2856676679D-02      -0.1213587421D+15
 Mode   50      -0.1777490327D+00       0.3726293343D+14
 Mode   51      -0.1390237380D+00       0.8103775916D+14
 Mode   52      -0.1796735384D+00      -0.3204136536D+14
 Mode   53       0.1761108919D+00       0.3602724286D+14
 Mode   54      -0.1357105319D+00       0.8324721661D+14

 Summary of normal mode sampling:
 Translational Energy  =   0.0000000000D+00 Hartree
 Vibrational Energy =   0.1860608663D+00 Hartree
 MW distance from initial geometry =   0.3647274668D+01 Bohr

 Start point information 
 Time (fs)     0.000000
 EKin =       0.0831079; EPot =    -382.2053114; ETot =    -382.1222034 A.U.
 Angular momentum (instantaneous)
   JX =  0.6017391636D+01  JY =  0.6956336272D+01  JZ = -0.2487580614D+01
 Jtot =  0.9528256595D+01 H-BAR;  J (Quantum Number) =  0.9041366451D+01
 Total energy  -3.821222D+02 A.U.
 Total angular momentum   9.528257D+00 h-bar
 Cartesian coordinates: (bohr)
 I=    1 X=   4.781547798325D-01 Y=   2.658925486909D+00 Z=   3.534619248554D-01
 I=    2 X=  -2.026206153873D+00 Y=   1.613726722008D+00 Z=   4.396044140525D-01
 I=    3 X=  -2.532475144908D+00 Y=  -9.786750949088D-01 Z=   1.513822827421D-01
 I=    4 X=  -5.350011326761D-01 Y=  -2.650491272975D+00 Z=  -1.150389750219D-01
 I=    5 X=   1.882109304085D+00 Y=  -1.777989605633D+00 Z=  -3.526618856815D-02
 I=    6 X=  -3.569338795376D+00 Y=   2.863347471292D+00 Z=   1.180889614322D+00
 I=    7 X=  -4.515687544632D+00 Y=  -1.864598465552D+00 Z=   4.808725080308D-02
 I=    8 X=   3.493488269398D+00 Y=  -2.670689496831D+00 Z=  -5.688961902817D-01
 I=    9 X=  -1.203828314120D+00 Y=  -5.468184644597D+00 Z=   4.677750302314D-02
 I=   10 X=   6.532043081442D-01 Y=  -7.386738297855D+00 Z=  -3.181184150421D-01
 I=   11 X=   2.836889851805D+00 Y=  -7.148370631903D+00 Z=  -8.314281746778D-01
 I=   12 X=  -3.063626621335D+00 Y=  -5.825478135127D+00 Z=   4.433102674840D-01
 I=   13 X=  -1.848418110648D-01 Y=  -9.090352784844D+00 Z=  -8.492650624873D-01
 I=   14 X=   1.177030400369D+00 Y=   5.460269832126D+00 Z=   3.880874601732D-01
 I=   15 X=   3.058891636190D+00 Y=   6.083743345804D+00 Z=   1.571675471212D+00
 I=   16 X=  -3.467550148293D-01 Y=   7.498929270526D+00 Z=  -8.973035147079D-01
 I=   17 X=  -2.583527840777D+00 Y=   7.632950642273D+00 Z=  -2.014502796087D+00
 I=   18 X=   5.441525861595D-01 Y=   9.572435753966D+00 Z=  -8.114632590857D-01
 I=   19 X=   2.421557441594D+00 Y=   9.286424804241D-01 Z=   1.141256772645D-01
 I=   20 X=   4.367113580360D+00 Y=   1.656568962993D+00 Z=   3.109459718589D-01
 MW cartesian velocity: (sqrt(amu)*bohr/sec)
 I=    1 X=   3.127561139764D+13 Y=   6.630182308336D+13 Z=  -2.514851793520D+13
 I=    2 X=   1.938508041847D+13 Y=  -4.903857174081D+13 Z=  -2.871614929782D+13
 I=    3 X=   1.224120458323D+13 Y=   6.733301657683D+13 Z=   6.623462153771D+13
 I=    4 X=   4.017238458934D+13 Y=  -3.839088462055D+13 Z=  -6.947017167781D+13
 I=    5 X=  -8.228478610145D+13 Y=  -4.899592367144D+13 Z=  -1.234504733869D+13
 I=    6 X=   8.843074844922D+13 Y=  -8.003167902448D+13 Z=  -1.871495330937D+13
 I=    7 X=  -6.682513972492D+12 Y=   2.347005271227D+12 Z=  -4.142897299588D+13
 I=    8 X=   1.059000987658D+14 Y=  -4.445217584599D+10 Z=   4.493192493065D+13
 I=    9 X=  -2.732146254882D+12 Y=   2.727223287141D+13 Z=   8.282737611164D+13
 I=   10 X=  -3.243671405906D+13 Y=  -1.923427900624D+13 Z=  -3.182764227658D+13
 I=   11 X=  -8.587562221945D+13 Y=  -3.651190035816D+12 Z=  -3.365300362746D+13
 I=   12 X=  -5.648416477967D+13 Y=  -2.027277429745D+13 Z=  -4.633796671399D+13
 I=   13 X=   1.197875001370D+14 Y=  -1.730067203915D+13 Z=   2.166166481530D+13
 I=   14 X=   5.757150037237D+13 Y=  -5.226414098047D+13 Z=   1.487053926452D+13
 I=   15 X=  -9.400138974650D+13 Y=   3.329276080361D+13 Z=   2.579295782575D+13
 I=   16 X=  -8.557514823914D+13 Y=   9.280516748032D+12 Z=  -1.552548624146D+13
 I=   17 X=   6.499768154150D+13 Y=   3.079380294667D+13 Z=   1.690551111769D+13
 I=   18 X=   2.857121797520D+13 Y=   2.841217594318D+13 Z=   2.632882625874D+13
 I=   19 X=   2.598196392458D+13 Y=   2.472002752032D+13 Z=   2.246427236551D+13
 I=   20 X=  -1.080496477777D+14 Y=   7.136901950694D+13 Z=  -7.093189408188D+12
 TRJ-TRJ-TRJ-TRJ-TRJ-TRJ-TRJ-TRJ-TRJ-TRJ-TRJ-TRJ-TRJ-TRJ-TRJ-TRJ-TRJ-TRJ
 
                          Input orientation:                          
 ---------------------------------------------------------------------
 Center     Atomic      Atomic             Coordinates (Angstroms)
 Number     Number       Type             X           Y           Z
 ---------------------------------------------------------------------
      1          6           0        0.253029    1.407043    0.187044
      2          6           0       -1.072222    0.853947    0.232629
      3          6           0       -1.340128   -0.517893    0.080108
      4          6           0       -0.283110   -1.402580   -0.060876
      5          6           0        0.995969   -0.940872   -0.018662
      6          1           0       -1.888813    1.515218    0.624900
      7          1           0       -2.389599   -0.986703    0.025447
      8          1           0        1.848674   -1.413268   -0.301047
      9          6           0       -0.637039   -2.893639    0.024754
     10          6           0        0.345661   -3.908894   -0.168341
     11          1           0        1.501217   -3.782755   -0.439973
     12          1           0       -1.621201   -3.082710    0.234590
     13          1           0       -0.097814   -4.810408   -0.449412
     14          6           0        0.622858    2.889450    0.205367
     15          1           0        1.618696    3.219378    0.831695
     16          6           0       -0.183495    3.968262   -0.474833
     17          1           0       -1.367144    4.039184   -1.066029
     18          1           0        0.287953    5.065515   -0.429408
     19          6           0        1.281433    0.491416    0.060393
     20          1           0        2.310977    0.876619    0.164546
 ---------------------------------------------------------------------
                    Distance matrix (angstroms):
                    1          2          3          4          5
     1  C    0.000000
     2  C    1.436761   0.000000
     3  C    2.500992   1.406052   0.000000
     4  C    2.871043   2.408476   1.385581   0.000000
     5  C    2.471230   2.749898   2.376135   1.360515   0.000000
     6  H    2.188813   1.121595   2.175176   3.400311   3.842983
     7  H    3.569259   2.272972   1.150722   2.148883   3.386166
     8  H    3.276961   3.735868   3.333982   2.145298   1.014892
     9  C    4.394817   3.778492   2.478219   1.534879   2.545957
    10  C    5.328608   4.985561   3.795062   2.586216   3.042114
    11  H    5.374488   5.345465   4.359249   2.998796   2.917033
    12  H    4.865478   3.974752   2.584793   2.168093   3.391341
    13  H    6.259781   5.787881   4.499936   3.434907   4.044158
    14  C    1.527953   2.649021   3.934335   4.394677   3.854967
    15  H    2.359064   3.632517   4.825631   5.077011   4.291687
    16  C    2.681134   3.315011   4.665978   5.387692   5.069401
    17  H    3.335164   3.452422   4.699075   5.638993   5.610903
    18  H    3.710209   4.475005   5.838210   6.503705   6.061904
    19  C    1.382761   2.387632   2.809213   2.459618   1.462596
    20  H    2.125325   3.383960   3.909266   3.460469   2.250796
                    6          7          8          9         10
     6  H    0.000000
     7  H    2.621019   0.000000
     8  H    4.837584   4.272179   0.000000
     9  C    4.622243   2.589956   2.911428   0.000000
    10  C    5.919721   4.007293   2.916300   1.426088   0.000000
    11  H    6.379246   4.813831   2.398853   2.361914   1.193736
    12  H    4.622219   2.242191   3.887670   1.023892   2.171055
    13  H    6.661484   4.483133   3.918085   2.046851   1.043263
    14  C    2.893615   4.912416   4.502496   5.921493   6.814248
    15  H    3.905066   5.865798   4.774663   6.565704   7.309785
    16  C    3.183543   5.446913   5.755066   6.894996   7.900856
    17  H    3.082496   5.243688   6.376199   7.055982   8.179943
    18  H    4.295868   6.633666   6.665355   8.025584   8.978390
    19  C    3.378949   3.957592   2.019956   3.891067   4.504522
    20  H    4.272935   5.058333   2.382033   4.788024   5.184053
                   11         12         13         14         15
    11  H    0.000000
    12  H    3.270259   0.000000
    13  H    1.900805   2.402812   0.000000
    14  C    6.760644   6.379918   7.761180   0.000000
    15  H    7.117641   7.111244   8.310542   1.221815   0.000000
    16  C    7.932070   7.230940   8.779125   1.508878   2.348560
    17  H    8.354769   7.244137   8.961399   2.626488   3.631622
    18  H    8.931069   8.395197   9.883474   2.291366   2.601822
    19  C    4.308969   4.607604   5.501960   2.491045   2.854896
    20  H    4.767695   5.580611   6.206568   2.627338   2.532364
                   16         17         18         19         20
    16  C    0.000000
    17  H    1.324979   0.000000
    18  H    1.195111   2.048899   0.000000
    19  C    3.810635   4.568417   4.706302   0.000000
    20  H    4.023612   5.004469   4.689590   1.104169   0.000000
 Symmetry turned off by external request.
 Stoichiometry    C10H10
 Framework group  C1[X(C10H10)]
 Deg. of freedom    54
 Full point group                 C1      NOp   1
 Rotational constants (GHZ):      4.4002782      0.6645544      0.5878142
 Standard basis: STO-3G (5D, 7F)
    60 basis functions,   180 primitive gaussians,    60 cartesian basis functions
    35 alpha electrons       35 beta electrons
       nuclear repulsion energy       439.6558503945 Hartrees.
 NAtoms=   20 NActive=   20 NUniq=   20 SFac= 1.00D+00 NAtFMM=   60 NAOKFM=F Big=F
 Integral buffers will be    131072 words long.
 Raffenetti 2 integral format.
 Two-electron integral symmetry is turned off.
 One-electron integrals computed using PRISM.
 NBasis=    60 RedAO= T EigKep=  1.73D-01  NBF=    60
 NBsUse=    60 1.00D-06 EigRej= -1.00D+00 NBFU=    60
 Initial guess from the checkpoint file:  "PhCCCC.chk"
 B after Tr=     0.002718    0.008572   -0.010777
         Rot=    0.999999   -0.000685    0.001443   -0.000322 Ang=  -0.19 deg.
 ExpMin= 1.69D-01 ExpMax= 7.16D+01 ExpMxC= 7.16D+01 IAcc=1 IRadAn=         1 AccDes= 0.00D+00
 Harris functional with IExCor=  402 and IRadAn=       1 diagonalized for initial guess.
 HarFok:  IExCor=  402 AccDes= 0.00D+00 IRadAn=         1 IDoV= 1 UseB2=F ITyADJ=14
 ICtDFT=  3500011 ScaDFX=  1.000000  1.000000  1.000000  1.000000
 FoFCou: FMM=F IPFlag=           0 FMFlag=      100000 FMFlg1=           0
         NFxFlg=           0 DoJE=T BraDBF=F KetDBF=T FulRan=T
         wScrn=  0.000000 ICntrl=     500 IOpCl=  0 I1Cent=   200000004 NGrid=           0
         NMat0=    1 NMatS0=      1 NMatT0=    0 NMatD0=    1 NMtDS0=    0 NMtDT0=    0
 Symmetry not used in FoFCou.
 Keep R1 ints in memory in canonical form, NReq=2587797.
 Requested convergence on RMS density matrix=1.00D-08 within 128 cycles.
 Requested convergence on MAX density matrix=1.00D-06.
 Requested convergence on             energy=1.00D-06.
 No special actions if energy rises.
 Integral accuracy reduced to 1.0D-05 until final iterations.
 Initial convergence to 1.0D-05 achieved.  Increase integral accuracy.
 SCF Done:  E(RB3LYP) =  -382.160750524     A.U. after   16 cycles
            NFock= 16  Conv=0.68D-08     -V/T= 2.0175
 DoSCS=F DFT=T ScalE2(SS,OS)=  1.000000  1.000000
 Range of M.O.s used for correlation:     1    60
 NBasis=    60 NAE=    35 NBE=    35 NFC=     0 NFV=     0
 NROrb=     60 NOA=    35 NOB=    35 NVA=    25 NVB=    25
 Symmetrizing basis deriv contribution to polar:
 IMax=3 JMax=2 DiffMx= 0.00D+00
 G2DrvN: will do    21 centers at a time, making    1 passes.
 Calling FoFCou, ICntrl=  3107 FMM=F I1Cent=   0 AccDes= 0.00D+00.
 End of G2Drv F.D. properties file   721 does not exist.
 End of G2Drv F.D. properties file   722 does not exist.
 End of G2Drv F.D. properties file   788 does not exist.
          IDoAtm=11111111111111111111
          Differentiating once with respect to electric field.
                with respect to dipole field.
          Differentiating once with respect to nuclear coordinates.
 Keep R1 ints in memory in canonical form, NReq=2561615.
          There are    63 degrees of freedom in the 1st order CPHF.  IDoFFX=6 NUNeed=     3.
     60 vectors produced by pass  0 Test12= 1.39D-15 1.59D-09 XBig12= 2.13D+02 1.22D+01.
 AX will form    60 AO Fock derivatives at one time.
     60 vectors produced by pass  1 Test12= 1.39D-15 1.59D-09 XBig12= 2.22D+01 1.23D+00.
     60 vectors produced by pass  2 Test12= 1.39D-15 1.59D-09 XBig12= 2.63D-02 2.93D-02.
     60 vectors produced by pass  3 Test12= 1.39D-15 1.59D-09 XBig12= 2.01D-05 4.95D-04.
     53 vectors produced by pass  4 Test12= 1.39D-15 1.59D-09 XBig12= 5.35D-09 1.06D-05.
      8 vectors produced by pass  5 Test12= 1.39D-15 1.59D-09 XBig12= 1.19D-12 1.40D-07.
      2 vectors produced by pass  6 Test12= 1.39D-15 1.59D-09 XBig12= 3.60D-16 2.51D-09.
 InvSVY:  IOpt=1 It=  1 EMax= 3.55D-15
 Solved reduced A of dimension   303 with    63 vectors.
 Isotropic polarizability for W=    0.000000       78.52 Bohr**3.
 End of Minotr F.D. properties file   721 does not exist.
 End of Minotr F.D. properties file   722 does not exist.
 End of Minotr F.D. properties file   788 does not exist.
 Calling FoFJK, ICntrl=    100127 FMM=F ISym2X=0 I1Cent= 0 IOpClX= 0 NMat=1 NMatS=1 NMatT=0.
 -------------------------------------------------------------------
 Center     Atomic                   Forces (Hartrees/Bohr)
 Number     Number              X              Y              Z
 -------------------------------------------------------------------
      1        6          -0.011684361    0.019603185    0.003290757
      2        6          -0.028819997    0.020047925    0.016684087
      3        6          -0.046946678    0.020120082    0.000093464
      4        6          -0.021512610   -0.071644842    0.018293393
      5        6           0.010515455    0.111764098   -0.001230898
      6        1           0.007057143   -0.005490194   -0.019680458
      7        1           0.028835557    0.025044287    0.010000893
      8        1           0.061222150   -0.062371203   -0.008148546
      9        6           0.159012242   -0.003191962   -0.036655545
     10        6          -0.006272744    0.093351618   -0.009967515
     11        1          -0.061597057    0.002305628    0.016111154
     12        1          -0.069780128   -0.022421114    0.007506380
     13        1          -0.009753214   -0.057752738    0.002135192
     14        6          -0.048740913    0.089686730   -0.025425386
     15        1          -0.053719309   -0.018110345   -0.042658512
     16        6           0.016489937   -0.014534978    0.025945836
     17        1           0.092164443   -0.023732110    0.044913726
     18        1          -0.021681846   -0.051963118   -0.000053628
     19        6           0.005382355   -0.041472391    0.008206048
     20        1          -0.000170427   -0.009238558   -0.009360441
 -------------------------------------------------------------------
 Cartesian Forces:  Max     0.159012242 RMS     0.043745502
 FormGI is forming the generalized inverse of G from B-inverse, IUseBI=4.
 TRJ-TRJ-TRJ-TRJ-TRJ-TRJ-TRJ-TRJ-TRJ-TRJ-TRJ-TRJ-TRJ-TRJ-TRJ-TRJ-TRJ-TRJ
 Trajectory Number     1    Step Number     2

 Eigenvalues of Mass-weighted Force Constants in hartree/(bohr**2*amu):
    -0.17016984D-01    -0.11715314D-01    -0.33827701D-03     0.10488668D-02
     0.15773356D-02     0.28505014D-02     0.45407981D-02     0.69984489D-02
     0.85484429D-02     0.92296805D-02     0.99537941D-02     0.12109656D-01
     0.12994396D-01     0.16379259D-01     0.16914372D-01     0.21030540D-01
     0.23002493D-01     0.27356289D-01     0.32202905D-01     0.34953505D-01
     0.36412874D-01     0.37831934D-01     0.38811067D-01     0.39653475D-01
     0.47708355D-01     0.49450703D-01     0.50812151D-01     0.52562472D-01
     0.54004818D-01     0.57069716D-01     0.58448720D-01     0.60366208D-01
     0.62675902D-01     0.64268034D-01     0.70984134D-01     0.76194861D-01
     0.79162582D-01     0.83788112D-01     0.92108150D-01     0.10035208D+00
     0.10585782D+00     0.10694997D+00     0.11544630D+00     0.12723094D+00
     0.12953275D+00     0.23276439D+00     0.27133392D+00     0.27165266D+00
     0.34149194D+00     0.39996569D+00     0.43889357D+00     0.60175155D+00
     0.66781967D+00     0.69552796D+00     0.00000000D+00     0.00000000D+00
     0.00000000D+00     0.00000000D+00     0.00000000D+00     0.00000000D+00

 Energy and position before scaling:
   E(real) = -0.3821222057D+03 A.U.
   E(calc) = -0.3820776426D+03 A.U.  Delta-E =   0.4456311317D-01 A.U.
   The MW distance from TS to current scaled point 
     is   0.5534376541D+01 sqrt(amu)*bohr
 Using fifth order polynomial potential fitting.

 Energy and position after scaling:
   E(real) = -0.3821222057D+03 A.U.
   E(calc) = -0.3821222057D+03 A.U.  Delta-E =  -0.2256513199D-08 A.U.
   The MW distance from TS to current scaled point 
     is   0.4762432098D+01 sqrt(amu)*bohr
 Scaling not done.  Reevaluate energy and rescale.
 TRJ-TRJ-TRJ-TRJ-TRJ-TRJ-TRJ-TRJ-TRJ-TRJ-TRJ-TRJ-TRJ-TRJ-TRJ-TRJ-TRJ-TRJ
 
                          Input orientation:                          
 ---------------------------------------------------------------------
 Center     Atomic      Atomic             Coordinates (Angstroms)
 Number     Number       Type             X           Y           Z
 ---------------------------------------------------------------------
      1          6           0        0.255323    1.407467    0.160955
      2          6           0       -1.071180    0.863258    0.200181
      3          6           0       -1.338079   -0.509403    0.068934
      4          6           0       -0.281209   -1.403627   -0.052385
      5          6           0        1.005563   -0.938058   -0.016059
      6          1           0       -1.890992    1.530893    0.537738
      7          1           0       -2.386136   -0.962498    0.021897
      8          1           0        1.856452   -1.443163   -0.259056
      9          6           0       -0.632393   -2.890330    0.021301
     10          6           0        0.335035   -3.906531   -0.144861
     11          1           0        1.480846   -3.777072   -0.378605
     12          1           0       -1.629668   -3.083728    0.201869
     13          1           0       -0.094497   -4.827503   -0.386727
     14          6           0        0.620190    2.886726    0.176722
     15          1           0        1.627512    3.201333    0.715689
     16          6           0       -0.195488    3.957619   -0.408602
     17          1           0       -1.365473    3.997734   -0.917337
     18          1           0        0.258115    5.047027   -0.369513
     19          6           0        1.287570    0.486620    0.051969
     20          1           0        2.318480    0.867768    0.141594
 ---------------------------------------------------------------------
                    Distance matrix (angstroms):
                    1          2          3          4          5
     1  C    0.000000
     2  C    1.434334   0.000000
     3  C    2.494352   1.404514   0.000000
     4  C    2.869779   2.413837   1.389722   0.000000
     5  C    2.468944   2.757601   2.384036   1.368889   0.000000
     6  H    2.182629   1.109852   2.165248   3.398683   3.846094
     7  H    3.551532   2.257051   1.142774   2.151936   3.392000
     8  H    3.296379   3.755197   3.344325   2.147992   1.018916
     9  C    4.390741   3.783379   2.483762   1.529394   2.548659
    10  C    5.323387   4.984715   3.792821   2.579309   3.045985
    11  H    5.354669   5.327335   4.338696   2.973971   2.901264
    12  H    4.870903   3.986303   2.594194   2.169268   3.405266
    13  H    6.268746   5.803717   4.516648   3.445225   4.058978
    14  C    1.523674   2.637367   3.921750   4.390004   3.848980
    15  H    2.325637   3.607670   4.794015   5.043690   4.249333
    16  C    2.651584   3.272999   4.635497   5.373750   5.056112
    17  H    3.240243   3.340717   4.613867   5.576600   5.549429
    18  H    3.678016   4.426680   5.797757   6.480924   6.041925
    19  C    1.387578   2.393225   2.808270   2.458657   1.453913
    20  H    2.132667   3.390170   3.907980   3.457636   2.238217
                    6          7          8          9         10
     6  H    0.000000
     7  H    2.593888   0.000000
     8  H    4.850074   4.278963   0.000000
     9  C    4.625796   2.606176   2.892618   0.000000
    10  C    5.914956   4.012469   2.897573   1.412866   0.000000
    11  H    6.354799   4.799560   2.366961   2.326374   1.176554
    12  H    4.634201   2.259258   3.880327   1.031778   2.158074
    13  H    6.671673   4.511856   3.908485   2.051453   1.044599
    14  C    2.876569   4.886562   4.523956   5.913332   6.806839
    15  H    3.898962   5.824792   4.751198   6.534348   7.275491
    16  C    3.107940   5.402945   5.779382   6.875325   7.886435
    17  H    2.911824   5.150516   6.357475   6.990270   8.121936
    18  H    4.219593   6.577207   6.685017   7.996710   8.956706
    19  C    3.380789   3.949299   2.035786   3.884712   4.499537
    20  H    4.279757   5.049517   2.390480   4.779689   5.177841
                   11         12         13         14         15
    11  H    0.000000
    12  H    3.239286   0.000000
    13  H    1.893456   2.396654   0.000000
    14  C    6.742056   6.380345   7.767726   0.000000
    15  H    7.065205   7.097551   8.285097   1.184973   0.000000
    16  C    7.914318   7.211803   8.785729   1.467906   2.271415
    17  H    8.296950   7.174226   8.932062   2.524711   3.501284
    18  H    8.908416   8.366563   9.880839   2.257515   2.541555
    19  C    4.289734   4.613040   5.508399   2.494287   2.815271
    20  H    4.748345   5.586218   6.207873   2.638487   2.500509
                   16         17         18         19         20
    16  C    0.000000
    17  H    1.276435   0.000000
    18  H    1.180718   2.009270   0.000000
    19  C    3.802554   4.506231   4.694118   0.000000
    20  H    4.021185   4.948690   4.687488   1.102761   0.000000
 Symmetry turned off by external request.
 Stoichiometry    C10H10
 Framework group  C1[X(C10H10)]
 Deg. of freedom    54
 Full point group                 C1      NOp   1
 Rotational constants (GHZ):      4.4684931      0.6682001      0.5890922
 Standard basis: STO-3G (5D, 7F)
    60 basis functions,   180 primitive gaussians,    60 cartesian basis functions
    35 alpha electrons       35 beta electrons
       nuclear repulsion energy       441.0564553238 Hartrees.
 NAtoms=   20 NActive=   20 NUniq=   20 SFac= 1.00D+00 NAtFMM=   60 NAOKFM=F Big=F
 Integral buffers will be    131072 words long.
 Raffenetti 2 integral format.
 Two-electron integral symmetry is turned off.
 One-electron integrals computed using PRISM.
 NBasis=    60 RedAO= T EigKep=  1.75D-01  NBF=    60
 NBsUse=    60 1.00D-06 EigRej= -1.00D+00 NBFU=    60
 Initial guess from the checkpoint file:  "PhCCCC.chk"
 B after Tr=    -0.000376   -0.001193    0.001506
         Rot=    1.000000    0.000093   -0.000188    0.000045 Ang=   0.02 deg.
 ExpMin= 1.69D-01 ExpMax= 7.16D+01 ExpMxC= 7.16D+01 IAcc=1 IRadAn=         1 AccDes= 0.00D+00
 Harris functional with IExCor=  402 and IRadAn=       1 diagonalized for initial guess.
 HarFok:  IExCor=  402 AccDes= 0.00D+00 IRadAn=         1 IDoV= 1 UseB2=F ITyADJ=14
 ICtDFT=  3500011 ScaDFX=  1.000000  1.000000  1.000000  1.000000
 FoFCou: FMM=F IPFlag=           0 FMFlag=      100000 FMFlg1=           0
         NFxFlg=           0 DoJE=T BraDBF=F KetDBF=T FulRan=T
         wScrn=  0.000000 ICntrl=     500 IOpCl=  0 I1Cent=   200000004 NGrid=           0
         NMat0=    1 NMatS0=      1 NMatT0=    0 NMatD0=    1 NMtDS0=    0 NMtDT0=    0
 Symmetry not used in FoFCou.
 Keep R1 ints in memory in canonical form, NReq=2587797.
 Requested convergence on RMS density matrix=1.00D-08 within 128 cycles.
 Requested convergence on MAX density matrix=1.00D-06.
 Requested convergence on             energy=1.00D-06.
 No special actions if energy rises.
 Integral accuracy reduced to 1.0D-05 until final iterations.
 Initial convergence to 1.0D-05 achieved.  Increase integral accuracy.
 SCF Done:  E(RB3LYP) =  -382.205336990     A.U. after   13 cycles
            NFock= 13  Conv=0.94D-08     -V/T= 2.0175
 DoSCS=F DFT=T ScalE2(SS,OS)=  1.000000  1.000000
 Range of M.O.s used for correlation:     1    60
 NBasis=    60 NAE=    35 NBE=    35 NFC=     0 NFV=     0
 NROrb=     60 NOA=    35 NOB=    35 NVA=    25 NVB=    25
 Symmetrizing basis deriv contribution to polar:
 IMax=3 JMax=2 DiffMx= 0.00D+00
 G2DrvN: will do    21 centers at a time, making    1 passes.
 Calling FoFCou, ICntrl=  3107 FMM=F I1Cent=   0 AccDes= 0.00D+00.
 End of G2Drv F.D. properties file   721 does not exist.
 End of G2Drv F.D. properties file   722 does not exist.
 End of G2Drv F.D. properties file   788 does not exist.
          IDoAtm=11111111111111111111
          Differentiating once with respect to electric field.
                with respect to dipole field.
          Differentiating once with respect to nuclear coordinates.
 Keep R1 ints in memory in canonical form, NReq=2561615.
          There are    63 degrees of freedom in the 1st order CPHF.  IDoFFX=6 NUNeed=     3.
     60 vectors produced by pass  0 Test12= 1.39D-15 1.59D-09 XBig12= 2.09D+02 1.22D+01.
 AX will form    60 AO Fock derivatives at one time.
     60 vectors produced by pass  1 Test12= 1.39D-15 1.59D-09 XBig12= 2.09D+01 1.25D+00.
     60 vectors produced by pass  2 Test12= 1.39D-15 1.59D-09 XBig12= 2.43D-02 2.88D-02.
     60 vectors produced by pass  3 Test12= 1.39D-15 1.59D-09 XBig12= 1.80D-05 5.05D-04.
     54 vectors produced by pass  4 Test12= 1.39D-15 1.59D-09 XBig12= 4.61D-09 8.96D-06.
      6 vectors produced by pass  5 Test12= 1.39D-15 1.59D-09 XBig12= 9.75D-13 1.18D-07.
      2 vectors produced by pass  6 Test12= 1.39D-15 1.59D-09 XBig12= 2.88D-16 2.13D-09.
 InvSVY:  IOpt=1 It=  1 EMax= 5.33D-15
 Solved reduced A of dimension   302 with    63 vectors.
 Isotropic polarizability for W=    0.000000       77.01 Bohr**3.
 End of Minotr F.D. properties file   721 does not exist.
 End of Minotr F.D. properties file   722 does not exist.
 End of Minotr F.D. properties file   788 does not exist.
 Calling FoFJK, ICntrl=    100127 FMM=F ISym2X=0 I1Cent= 0 IOpClX= 0 NMat=1 NMatS=1 NMatT=0.
 -------------------------------------------------------------------
 Center     Atomic                   Forces (Hartrees/Bohr)
 Number     Number              X              Y              Z
 -------------------------------------------------------------------
      1        6          -0.009620797    0.017149467    0.002810199
      2        6          -0.021207400    0.015355181    0.012175440
      3        6          -0.040597049    0.017201166   -0.000426550
      4        6          -0.016724033   -0.062267244    0.016185066
      5        6           0.003274808    0.101599992   -0.002617296
      6        1           0.002359442   -0.001362143   -0.014941628
      7        1           0.025267616    0.021577950    0.008440802
      8        1           0.056855611   -0.058389282   -0.005529172
      9        6           0.139200854   -0.003633109   -0.028359647
     10        6          -0.004951756    0.087392853   -0.009343056
     11        1          -0.053659048    0.001300143    0.012429758
     12        1          -0.061257991   -0.019653792    0.004887091
     13        1          -0.009206287   -0.054547434    0.002685844
     14        6          -0.046707222    0.076598397   -0.020129886
     15        1          -0.042423417   -0.015396590   -0.030216545
     16        6           0.009516049   -0.011880971    0.017347957
     17        1           0.083999942   -0.019469972    0.035020063
     18        1          -0.018451857   -0.046634359    0.000302896
     19        6           0.004249446   -0.037055806    0.007188933
     20        1           0.000083091   -0.007884451   -0.007910269
 -------------------------------------------------------------------
 Cartesian Forces:  Max     0.139200854 RMS     0.038492465
 FormGI is forming the generalized inverse of G from B-inverse, IUseBI=4.
 TRJ-TRJ-TRJ-TRJ-TRJ-TRJ-TRJ-TRJ-TRJ-TRJ-TRJ-TRJ-TRJ-TRJ-TRJ-TRJ-TRJ-TRJ
 Trajectory Number     1    Step Number     2 -      1

 Eigenvalues of Mass-weighted Force Constants in hartree/(bohr**2*amu):
    -0.13268856D-01    -0.90419590D-02     0.25444839D-03     0.12021462D-02
     0.17858785D-02     0.28765202D-02     0.47858787D-02     0.70650146D-02
     0.86756385D-02     0.93785807D-02     0.99351057D-02     0.12473711D-01
     0.13962303D-01     0.17027464D-01     0.17066776D-01     0.21200739D-01
     0.23047952D-01     0.27795454D-01     0.33156901D-01     0.35257755D-01
     0.36335563D-01     0.37005421D-01     0.37945289D-01     0.46548841D-01
     0.48225584D-01     0.49136521D-01     0.50496864D-01     0.52991513D-01
     0.53534484D-01     0.58598785D-01     0.59152830D-01     0.60777656D-01
     0.62283440D-01     0.63990662D-01     0.72190776D-01     0.77212461D-01
     0.77948634D-01     0.83880203D-01     0.92557382D-01     0.10110154D+00
     0.10506843D+00     0.11100945D+00     0.11486234D+00     0.12431098D+00
     0.17132317D+00     0.28496287D+00     0.29388747D+00     0.29755368D+00
     0.35661535D+00     0.42582128D+00     0.44221447D+00     0.59804474D+00
     0.64058216D+00     0.68178555D+00     0.00000000D+00     0.00000000D+00
     0.00000000D+00     0.00000000D+00     0.00000000D+00     0.00000000D+00

 Energy and position before scaling:
   E(real) = -0.3821222057D+03 A.U.
   E(calc) = -0.3821222291D+03 A.U.  Delta-E =  -0.2335284040D-04 A.U.
   The MW distance from TS to current scaled point 
     is   0.4762432098D+01 sqrt(amu)*bohr
 Using fifth order polynomial potential fitting.

 Energy and position after scaling:
   E(real) = -0.3821222057D+03 A.U.
   E(calc) = -0.3821222058D+03 A.U.  Delta-E =  -0.5031461114D-07 A.U.
   The MW distance from TS to current scaled point 
     is   0.4762882646D+01 sqrt(amu)*bohr
 Scaling not done.  Reevaluate energy and rescale.
 TRJ-TRJ-TRJ-TRJ-TRJ-TRJ-TRJ-TRJ-TRJ-TRJ-TRJ-TRJ-TRJ-TRJ-TRJ-TRJ-TRJ-TRJ
 
                          Input orientation:                          
 ---------------------------------------------------------------------
 Center     Atomic      Atomic             Coordinates (Angstroms)
 Number     Number       Type             X           Y           Z
 ---------------------------------------------------------------------
      1          6           0        0.255322    1.407467    0.160970
      2          6           0       -1.071181    0.863253    0.200200
      3          6           0       -1.338080   -0.509408    0.068941
      4          6           0       -0.281210   -1.403626   -0.052390
      5          6           0        1.005558   -0.938060   -0.016061
      6          1           0       -1.890990    1.530884    0.537789
      7          1           0       -2.386138   -0.962512    0.021899
      8          1           0        1.856447   -1.443145   -0.259081
      9          6           0       -0.632396   -2.890332    0.021303
     10          6           0        0.335041   -3.906532   -0.144874
     11          1           0        1.480858   -3.777075   -0.378640
     12          1           0       -1.629663   -3.083727    0.201888
     13          1           0       -0.094498   -4.827493   -0.386764
     14          6           0        0.620192    2.886727    0.176739
     15          1           0        1.627507    3.201344    0.715756
     16          6           0       -0.195481    3.957625   -0.408641
     17          1           0       -1.365474    3.997758   -0.917424
     18          1           0        0.258132    5.047038   -0.369548
     19          6           0        1.287567    0.486623    0.051974
     20          1           0        2.318476    0.867773    0.141608
 ---------------------------------------------------------------------
                    Distance matrix (angstroms):
                    1          2          3          4          5
     1  C    0.000000
     2  C    1.434335   0.000000
     3  C    2.494355   1.404515   0.000000
     4  C    2.869780   2.413834   1.389719   0.000000
     5  C    2.468945   2.757596   2.384031   1.368884   0.000000
     6  H    2.182632   1.109858   2.165253   3.398684   3.846092
     7  H    3.551542   2.257060   1.142778   2.151934   3.391996
     8  H    3.296367   3.755185   3.344319   2.147991   1.018913
     9  C    4.390743   3.783376   2.483759   1.529397   2.548657
    10  C    5.323390   4.984715   3.792822   2.579313   3.045983
    11  H    5.354680   5.327345   4.338708   2.973985   2.901273
    12  H    4.870900   3.986296   2.594188   2.169268   3.405258
    13  H    6.268741   5.803707   4.516638   3.445218   4.058970
    14  C    1.523676   2.637374   3.921758   4.390007   3.848984
    15  H    2.325655   3.607684   4.794033   5.043709   4.249357
    16  C    2.651600   3.273022   4.635515   5.373758   5.056119
    17  H    3.240296   3.340781   4.613915   5.576635   5.549463
    18  H    3.678034   4.426708   5.797780   6.480937   6.041936
    19  C    1.387575   2.393222   2.808271   2.458657   1.453918
    20  H    2.132662   3.390166   3.907980   3.457638   2.238224
                    6          7          8          9         10
     6  H    0.000000
     7  H    2.593903   0.000000
     8  H    4.850066   4.278959   0.000000
     9  C    4.625793   2.606166   2.892629   0.000000
    10  C    5.914959   4.012466   2.897584   1.412873   0.000000
    11  H    6.354812   4.799568   2.366979   2.326394   1.176563
    12  H    4.634194   2.259248   3.880331   1.031773   2.158082
    13  H    6.671666   4.511839   3.908491   2.051449   1.044597
    14  C    2.876578   4.886577   4.523944   5.913336   6.806843
    15  H    3.898966   5.824816   4.751210   6.534366   7.275510
    16  C    3.107982   5.402970   5.779368   6.875337   7.886443
    17  H    2.911920   5.150569   6.357486   6.990307   8.121969
    18  H    4.219636   6.577240   6.685005   7.996727   8.956719
    19  C    3.380787   3.949304   2.035776   3.884716   4.499540
    20  H    4.279753   5.049522   2.390474   4.779694   5.177845
                   11         12         13         14         15
    11  H    0.000000
    12  H    3.239304   0.000000
    13  H    1.893460   2.396656   0.000000
    14  C    6.742066   6.380345   7.767722   0.000000
    15  H    7.065235   7.097558   8.285111   1.184993   0.000000
    16  C    7.914329   7.211814   8.785725   1.467928   2.271457
    17  H    8.296983   7.174265   8.932079   2.524767   3.501356
    18  H    8.908430   8.366579   9.880840   2.257534   2.541586
    19  C    4.289745   4.613036   5.508395   2.494285   2.815293
    20  H    4.748356   5.586215   6.207872   2.638481   2.500527
                   16         17         18         19         20
    16  C    0.000000
    17  H    1.276462   0.000000
    18  H    1.180726   2.009292   0.000000
    19  C    3.802559   4.506266   4.694124   0.000000
    20  H    4.021186   4.948721   4.687489   1.102762   0.000000
 Symmetry turned off by external request.
 Stoichiometry    C10H10
 Framework group  C1[X(C10H10)]
 Deg. of freedom    54
 Full point group                 C1      NOp   1
 Rotational constants (GHZ):      4.4684563      0.6681980      0.5890915
 Standard basis: STO-3G (5D, 7F)
    60 basis functions,   180 primitive gaussians,    60 cartesian basis functions
    35 alpha electrons       35 beta electrons
       nuclear repulsion energy       441.0556746197 Hartrees.
 NAtoms=   20 NActive=   20 NUniq=   20 SFac= 1.00D+00 NAtFMM=   60 NAOKFM=F Big=F
 Integral buffers will be    131072 words long.
 Raffenetti 2 integral format.
 Two-electron integral symmetry is turned off.
 One-electron integrals computed using PRISM.
 NBasis=    60 RedAO= T EigKep=  1.75D-01  NBF=    60
 NBsUse=    60 1.00D-06 EigRej= -1.00D+00 NBFU=    60
 Initial guess from the checkpoint file:  "PhCCCC.chk"
 B after Tr=     0.000000    0.000001   -0.000001
         Rot=    1.000000    0.000000    0.000000    0.000000 Ang=   0.00 deg.
 ExpMin= 1.69D-01 ExpMax= 7.16D+01 ExpMxC= 7.16D+01 IAcc=1 IRadAn=         1 AccDes= 0.00D+00
 Harris functional with IExCor=  402 and IRadAn=       1 diagonalized for initial guess.
 HarFok:  IExCor=  402 AccDes= 0.00D+00 IRadAn=         1 IDoV= 1 UseB2=F ITyADJ=14
 ICtDFT=  3500011 ScaDFX=  1.000000  1.000000  1.000000  1.000000
 FoFCou: FMM=F IPFlag=           0 FMFlag=      100000 FMFlg1=           0
         NFxFlg=           0 DoJE=T BraDBF=F KetDBF=T FulRan=T
         wScrn=  0.000000 ICntrl=     500 IOpCl=  0 I1Cent=   200000004 NGrid=           0
         NMat0=    1 NMatS0=      1 NMatT0=    0 NMatD0=    1 NMtDS0=    0 NMtDT0=    0
 Symmetry not used in FoFCou.
 Keep R1 ints in memory in canonical form, NReq=2587797.
 Requested convergence on RMS density matrix=1.00D-08 within 128 cycles.
 Requested convergence on MAX density matrix=1.00D-06.
 Requested convergence on             energy=1.00D-06.
 No special actions if energy rises.
 Integral accuracy reduced to 1.0D-05 until final iterations.
 Initial convergence to 1.0D-05 achieved.  Increase integral accuracy.
 SCF Done:  E(RB3LYP) =  -382.205313687     A.U. after    7 cycles
            NFock=  7  Conv=0.70D-08     -V/T= 2.0175
 DoSCS=F DFT=T ScalE2(SS,OS)=  1.000000  1.000000
 Range of M.O.s used for correlation:     1    60
 NBasis=    60 NAE=    35 NBE=    35 NFC=     0 NFV=     0
 NROrb=     60 NOA=    35 NOB=    35 NVA=    25 NVB=    25
 Symmetrizing basis deriv contribution to polar:
 IMax=3 JMax=2 DiffMx= 0.00D+00
 G2DrvN: will do    21 centers at a time, making    1 passes.
 Calling FoFCou, ICntrl=  3107 FMM=F I1Cent=   0 AccDes= 0.00D+00.
 End of G2Drv F.D. properties file   721 does not exist.
 End of G2Drv F.D. properties file   722 does not exist.
 End of G2Drv F.D. properties file   788 does not exist.
          IDoAtm=11111111111111111111
          Differentiating once with respect to electric field.
                with respect to dipole field.
          Differentiating once with respect to nuclear coordinates.
 Keep R1 ints in memory in canonical form, NReq=2561615.
          There are    63 degrees of freedom in the 1st order CPHF.  IDoFFX=6 NUNeed=     3.
     60 vectors produced by pass  0 Test12= 1.39D-15 1.59D-09 XBig12= 2.09D+02 1.22D+01.
 AX will form    60 AO Fock derivatives at one time.
     60 vectors produced by pass  1 Test12= 1.39D-15 1.59D-09 XBig12= 2.09D+01 1.25D+00.
     60 vectors produced by pass  2 Test12= 1.39D-15 1.59D-09 XBig12= 2.44D-02 2.88D-02.
     60 vectors produced by pass  3 Test12= 1.39D-15 1.59D-09 XBig12= 1.80D-05 5.05D-04.
     54 vectors produced by pass  4 Test12= 1.39D-15 1.59D-09 XBig12= 4.61D-09 8.96D-06.
      6 vectors produced by pass  5 Test12= 1.39D-15 1.59D-09 XBig12= 9.75D-13 1.18D-07.
      2 vectors produced by pass  6 Test12= 1.39D-15 1.59D-09 XBig12= 2.88D-16 2.14D-09.
 InvSVY:  IOpt=1 It=  1 EMax= 5.33D-15
 Solved reduced A of dimension   302 with    63 vectors.
 Isotropic polarizability for W=    0.000000       77.01 Bohr**3.
 End of Minotr F.D. properties file   721 does not exist.
 End of Minotr F.D. properties file   722 does not exist.
 End of Minotr F.D. properties file   788 does not exist.
 Calling FoFJK, ICntrl=    100127 FMM=F ISym2X=0 I1Cent= 0 IOpClX= 0 NMat=1 NMatS=1 NMatT=0.
 -------------------------------------------------------------------
 Center     Atomic                   Forces (Hartrees/Bohr)
 Number     Number              X              Y              Z
 -------------------------------------------------------------------
      1        6          -0.009622011    0.017150911    0.002810507
      2        6          -0.021211635    0.015357899    0.012177796
      3        6          -0.040600778    0.017202856   -0.000426303
      4        6          -0.016726636   -0.062272801    0.016186346
      5        6           0.003278226    0.101606498   -0.002616449
      6        1           0.002361974   -0.001364370   -0.014944134
      7        1           0.025269740    0.021579978    0.008441702
      8        1           0.056858805   -0.058392119   -0.005530743
      9        6           0.139212810   -0.003632920   -0.028364241
     10        6          -0.004952375    0.087397109   -0.009343365
     11        1          -0.053663835    0.001300667    0.012431799
     12        1          -0.061263178   -0.019655470    0.004888482
     13        1          -0.009206766   -0.054549853    0.002685476
     14        6          -0.046708854    0.076606993   -0.020133154
     15        1          -0.042430555   -0.015398252   -0.030223483
[...]
    12.677940     0.0897572  -382.2106362     0.0000028    -0.0000000001318483
    13.314536     0.0782743  -382.1991521     0.0000039    -0.0000000001200675
    13.984736     0.0750331  -382.1959100     0.0000048    -0.0000000003686864
    14.640983     0.0840352  -382.2049104     0.0000065    -0.0000000006513403
    15.255419     0.0962045  -382.2170790     0.0000073    -0.0000000006670859
    15.836724     0.1048457  -382.2257207     0.0000067    -0.0000000007151044
    16.400833     0.1083803  -382.2292561     0.0000060    -0.0000000007658656
    16.962760     0.1062875  -382.2271638     0.0000055    -0.0000000008036523
    17.537939     0.0987868  -382.2196634     0.0000051    -0.0000000008311360
    18.141066     0.0884988  -382.2093758     0.0000048    -0.0000000008622436
    18.776768     0.0811313  -382.2020091     0.0000040    -0.0000000008938343
    19.425730     0.0818422  -382.2027201     0.0000038    -0.0000000008718786
    20.057363     0.0893355  -382.2102137     0.0000036    -0.0000000008744365
    20.659552     0.0978848  -382.2187629     0.0000037    -0.0000000008531487
                             Max Error =      0.0000073    -0.0000000008938343
 Trajectory      1 has not met product criteria!


 -----------------------
 Summary of trajectories
 -----------------------

 Trajectory      1 did not finish in     35 cycles.
   Total time in trajectory     20.660 femtosec.


 TRJ-TRJ-TRJ-TRJ-TRJ-TRJ-TRJ-TRJ-TRJ-TRJ-TRJ-TRJ-TRJ-TRJ-TRJ-TRJ-TRJ-TRJ
                          Input orientation:                          
 ---------------------------------------------------------------------
 Center     Atomic      Atomic             Coordinates (Angstroms)
 Number     Number       Type             X           Y           Z
 ---------------------------------------------------------------------
      1          6           0        0.264841    1.433349    0.058249
      2          6           0       -1.049716    0.990202    0.157477
      3          6           0       -1.292071   -0.462117    0.121956
      4          6           0       -0.294226   -1.402955   -0.002263
      5          6           0        1.054011   -0.930669   -0.043468
      6          1           0       -1.814374    1.703860    0.010113
      7          1           0       -2.335288   -0.840759    0.436734
      8          1           0        1.958721   -1.546170    0.056706
      9          6           0       -0.719637   -2.923765    0.064548
     10          6           0        0.205776   -3.936852   -0.218046
     11          1           0        1.283818   -3.738551   -0.531860
     12          1           0       -1.598530   -3.101170    0.654049
     13          1           0       -0.060835   -4.885481    0.130094
     14          6           0        0.595956    2.855076    0.179497
     15          1           0        1.631470    3.034358    0.634912
     16          6           0       -0.179838    3.949107   -0.380367
     17          1           0       -1.094814    3.618070   -1.090535
     18          1           0       -0.001773    5.168386   -0.179648
     19          6           0        1.382572    0.420696    0.043826
     20          1           0        2.416591    0.681868    0.100790
 ---------------------------------------------------------------------
                    Distance matrix (angstroms):
                    1          2          3          4          5
     1  C    0.000000
     2  C    1.390786   0.000000
     3  C    2.453736   1.472829   0.000000
     4  C    2.891511   2.514653   1.377062   0.000000
     5  C    2.494337   2.855835   2.398126   1.429159   0.000000
     6  H    2.097290   1.056279   2.230866   3.458800   3.895028
     7  H    3.474980   2.254572   1.153585   2.162109   3.424329
     8  H    3.427356   3.936246   3.427401   2.258265   1.098807
     9  C    4.466954   3.928959   2.527981   1.580602   2.670192
    10  C    5.377629   5.098347   3.799070   2.591756   3.128437
    11  H    5.304252   5.318051   4.218732   2.868050   2.859290
    12  H    4.938521   4.157776   2.709547   2.239618   3.497653
    13  H    6.327625   5.958379   4.591531   3.492847   4.112607
    14  C    1.464802   2.487263   3.817293   4.353882   3.819868
    15  H    2.182532   3.405184   4.586453   4.878939   4.063878
    16  C    2.592135   3.130668   4.576929   5.366620   5.044611
    17  H    2.818045   2.909513   4.261100   5.199613   5.138563
    18  H    3.752090   4.320772   5.784324   6.580237   6.191260
    19  C    1.508309   2.500656   2.817654   2.477797   1.393471
    20  H    2.279597   3.480456   3.881150   3.421351   2.116061
                    6          7          8          9         10
     6  H    0.000000
     7  H    2.632194   0.000000
     8  H    4.980071   4.368128   0.000000
     9  C    4.755662   2.662285   3.011882   0.000000
    10  C    5.995890   4.058514   2.977191   1.400926   0.000000
    11  H    6.285886   4.736381   2.368214   2.243527   1.140166
    12  H    4.852788   2.387362   3.927961   1.073049   2.171274
    13  H    6.819729   4.650478   3.903202   2.070422   1.045074
    14  C    2.676505   4.724147   4.609031   5.927816   6.814732
    15  H    3.746256   5.548962   4.628461   6.430571   7.166444
    16  C    2.804517   5.315678   5.912913   6.908379   7.897050
    17  H    2.322368   4.873652   6.108160   6.653615   7.715545
    18  H    3.914649   6.475728   6.998905   8.127600   9.107685
    19  C    3.445012   3.945647   2.049555   3.950333   4.521244
    20  H    4.353591   5.001161   2.275026   4.778895   5.130491
                   11         12         13         14         15
    11  H    0.000000
    12  H    3.181283   0.000000
    13  H    1.887253   2.413048   0.000000
    14  C    6.667466   6.365362   7.768529   0.000000
    15  H    6.881462   6.933828   8.114345   1.145353   0.000000
    16  C    7.827217   7.265611   8.850123   1.453344   2.269007
    17  H    7.751767   6.960280   8.652713   2.248077   3.278798
    18  H    9.006127   8.463465  10.058811   2.416127   2.808036
    19  C    4.200060   4.654340   5.499671   2.561909   2.691201
    20  H    4.606900   5.544247   6.093757   2.836149   2.536910
                   16         17         18         19         20
    16  C    0.000000
    17  H    1.204619   0.000000
    18  H    1.248454   2.104266   0.000000
    19  C    3.882106   4.200883   4.950446   0.000000
    20  H    4.200929   4.729747   5.104506   1.068013   0.000000
 Symmetry turned off by external request.
 Stoichiometry    C10H10
 Framework group  C1[X(C10H10)]
 Deg. of freedom    54
 Full point group                 C1      NOp   1
 Rotational constants (GHZ):      4.4217278      0.6656350      0.5863128

 **********************************************************************

            Population analysis using the SCF density.

 **********************************************************************

 Alpha  occ. eigenvalues --  -10.01827 -10.01755 -10.00594 -10.00484 -10.00440
 Alpha  occ. eigenvalues --  -10.00232 -10.00196 -10.00112  -9.99535  -9.99106
 Alpha  occ. eigenvalues --   -0.80137  -0.74154  -0.70163  -0.69158  -0.64866
 Alpha  occ. eigenvalues --   -0.57640  -0.55294  -0.53083  -0.49852  -0.44511
 Alpha  occ. eigenvalues --   -0.42585  -0.40956  -0.38579  -0.37635  -0.36830
 Alpha  occ. eigenvalues --   -0.34800  -0.33335  -0.31734  -0.30696  -0.28307
 Alpha  occ. eigenvalues --   -0.27705  -0.23891  -0.19454  -0.18448  -0.14563
 Alpha virt. eigenvalues --    0.03740   0.08171   0.09005   0.15341   0.24185
 Alpha virt. eigenvalues --    0.28162   0.31354   0.33128   0.37140   0.37565
 Alpha virt. eigenvalues --    0.40136   0.41444   0.43086   0.43476   0.45846
 Alpha virt. eigenvalues --    0.47790   0.54342   0.55502   0.57178   0.60900
 Alpha virt. eigenvalues --    0.61761   0.63675   0.65730   0.74714   0.78163
          Condensed to atoms (all electrons):
               1          2          3          4          5          6
     1  C    4.792571   0.510524  -0.027702  -0.008664  -0.026306  -0.028598
     2  C    0.510524   4.836621   0.462980  -0.023743  -0.009021   0.395615
     3  C   -0.027702   0.462980   4.830031   0.518079  -0.033485  -0.021446
     4  C   -0.008664  -0.023743   0.518079   4.792625   0.471707   0.001071
     5  C   -0.026306  -0.009021  -0.033485   0.471707   4.817164   0.000019
     6  H   -0.028598   0.395615  -0.021446   0.001071   0.000019   0.568414
     7  H    0.001171  -0.023126   0.373640  -0.027080   0.001510  -0.002226
     8  H    0.001515   0.000031   0.001350  -0.020528   0.385621   0.000002
     9  C    0.000004   0.000695  -0.028335   0.382005  -0.019351  -0.000012
    10  C    0.000000  -0.000005   0.000597  -0.023150  -0.002842   0.000000
    11  H    0.000000   0.000000   0.000023  -0.003133  -0.000159   0.000000
    12  H    0.000000  -0.000002  -0.002694  -0.024253   0.000803   0.000000
    13  H    0.000000   0.000000  -0.000018   0.001388   0.000013   0.000000
    14  C    0.419351  -0.029752   0.000888   0.000018   0.000720  -0.003919
    15  H   -0.027649   0.001058  -0.000020   0.000001   0.000022   0.000042
    16  C   -0.021685  -0.003579   0.000012   0.000000  -0.000005   0.000221
    17  H   -0.002873  -0.000310  -0.000008   0.000000   0.000000   0.000436
    18  H    0.000694   0.000011   0.000000   0.000000   0.000000  -0.000021
    19  C    0.443686  -0.026718  -0.011519  -0.025415   0.521773   0.001367
    20  H   -0.020615   0.001001   0.000050   0.001348  -0.027965  -0.000030
               7          8          9         10         11         12
     1  C    0.001171   0.001515   0.000004   0.000000   0.000000   0.000000
     2  C   -0.023126   0.000031   0.000695  -0.000005   0.000000  -0.000002
     3  C    0.373640   0.001350  -0.028335   0.000597   0.000023  -0.002694
     4  C   -0.027080  -0.020528   0.382005  -0.023150  -0.003133  -0.024253
     5  C    0.001510   0.385621  -0.019351  -0.002842  -0.000159   0.000803
     6  H   -0.002226   0.000002  -0.000012   0.000000   0.000000   0.000000
     7  H    0.613505  -0.000035  -0.004956   0.000051   0.000001   0.000906
     8  H   -0.000035   0.595215  -0.001867  -0.000340   0.000350   0.000014
     9  C   -0.004956  -0.001867   4.843946   0.559926  -0.019425   0.389993
    10  C    0.000051  -0.000340   0.559926   4.874644   0.378757  -0.023785
    11  H    0.000001   0.000350  -0.019425   0.378757   0.586762   0.001540
    12  H    0.000906   0.000014   0.389993  -0.023785   0.001540   0.577347
    13  H   -0.000004  -0.000015  -0.028679   0.394174  -0.022198  -0.004230
    14  C   -0.000015  -0.000018   0.000000   0.000000   0.000000   0.000000
    15  H    0.000000  -0.000003   0.000000   0.000000   0.000000   0.000000
    16  C    0.000000   0.000000   0.000000   0.000000   0.000000   0.000000
    17  H    0.000001   0.000000   0.000000   0.000000   0.000000   0.000000
    18  H    0.000000   0.000000   0.000000   0.000000   0.000000   0.000000
    19  C    0.000052  -0.033272   0.000582   0.000012  -0.000014  -0.000015
    20  H    0.000002  -0.005849  -0.000012   0.000000   0.000002   0.000000
              13         14         15         16         17         18
     1  C    0.000000   0.419351  -0.027649  -0.021685  -0.002873   0.000694
     2  C    0.000000  -0.029752   0.001058  -0.003579  -0.000310   0.000011
     3  C   -0.000018   0.000888  -0.000020   0.000012  -0.000008   0.000000
     4  C    0.001388   0.000018   0.000001   0.000000   0.000000   0.000000
     5  C    0.000013   0.000720   0.000022  -0.000005   0.000000   0.000000
     6  H    0.000000  -0.003919   0.000042   0.000221   0.000436  -0.000021
     7  H   -0.000004  -0.000015   0.000000   0.000000   0.000001   0.000000
     8  H   -0.000015  -0.000018  -0.000003   0.000000   0.000000   0.000000
     9  C   -0.028679   0.000000   0.000000   0.000000   0.000000   0.000000
    10  C    0.394174   0.000000   0.000000   0.000000   0.000000   0.000000
    11  H   -0.022198   0.000000   0.000000   0.000000   0.000000   0.000000
    12  H   -0.004230   0.000000   0.000000   0.000000   0.000000   0.000000
    13  H    0.575255   0.000000   0.000000   0.000000   0.000000   0.000000
    14  C    0.000000   4.852462   0.371525   0.533304  -0.023457  -0.015893
    15  H    0.000000   0.371525   0.610646  -0.021225   0.001333  -0.001622
    16  C    0.000000   0.533304  -0.021225   4.915471   0.356254   0.349644
    17  H    0.000000  -0.023457   0.001333   0.356254   0.628173  -0.017789
    18  H    0.000000  -0.015893  -0.001622   0.349644  -0.017789   0.621196
    19  C    0.000000  -0.026230  -0.003745   0.000442   0.000005  -0.000007
    20  H    0.000000  -0.002099   0.000710   0.000009   0.000000   0.000000
              19         20
     1  C    0.443686  -0.020615
     2  C   -0.026718   0.001001
     3  C   -0.011519   0.000050
     4  C   -0.025415   0.001348
     5  C    0.521773  -0.027965
     6  H    0.001367  -0.000030
     7  H    0.000052   0.000002
     8  H   -0.033272  -0.005849
     9  C    0.000582  -0.000012
    10  C    0.000012   0.000000
    11  H   -0.000014   0.000002
    12  H   -0.000015   0.000000
    13  H    0.000000   0.000000
    14  C   -0.026230  -0.002099
    15  H   -0.003745   0.000710
    16  C    0.000442   0.000009
    17  H    0.000005   0.000000
    18  H   -0.000007   0.000000
    19  C    4.846089   0.394987
    20  H    0.394987   0.576111
 Mulliken charges:
               1
     1  C   -0.005423
     2  C   -0.092278
     3  C   -0.062423
     4  C   -0.012274
     5  C   -0.080217
     6  H    0.089064
     7  H    0.066602
     8  H    0.077828
     9  C   -0.074514
    10  C   -0.158041
    11  H    0.077494
    12  H    0.084375
    13  H    0.084314
    14  C   -0.076883
    15  H    0.068929
    16  C   -0.108864
    17  H    0.058234
    18  H    0.063787
    19  C   -0.082062
    20  H    0.082351
 Sum of Mulliken charges =   0.00000
 Mulliken charges with hydrogens summed into heavy atoms:
               1
     1  C   -0.005423
     2  C   -0.003214
     3  C    0.004179
     4  C   -0.012274
     5  C   -0.002389
     9  C    0.009861
    10  C    0.003767
    14  C   -0.007955
    16  C    0.013158
    19  C    0.000290
 APT charges:
               1
     1  C   -0.282462
     2  C   -0.479826
     3  C   -0.563419
     4  C   -0.292859
     5  C   -0.556966
     6  H    0.519414
     7  H    0.531975
     8  H    0.522029
     9  C   -0.690814
    10  C   -0.477612
    11  H    0.209197
    12  H    0.455131
    13  H    0.804695
    14  C   -0.923530
    15  H    0.442397
    16  C   -0.467135
    17  H    0.097666
    18  H    1.094287
    19  C   -0.478063
    20  H    0.535897
 Sum of APT charges =   0.00000
 APT charges with hydrogens summed into heavy atoms:
               1
     1  C   -0.282462
     2  C    0.039588
     3  C   -0.031445
     4  C   -0.292859
     5  C   -0.034937
     9  C   -0.235683
    10  C    0.536279
    14  C   -0.481132
    16  C    0.724818
    19  C    0.057834
 Electronic spatial extent (au):  <R**2>=           1901.4199
 Charge=              0.0000 electrons
 Dipole moment (field-independent basis, Debye):
    X=              0.1823    Y=              0.0604    Z=              0.3235  Tot=              0.3762
 Quadrupole moment (field-independent basis, Debye-Ang):
   XX=            -50.8810   YY=            -50.3381   ZZ=            -57.7746
   XY=             -0.4149   XZ=              0.0009   YZ=             -1.5027
 Traceless Quadrupole moment (field-independent basis, Debye-Ang):
   XX=              2.1169   YY=              2.6598   ZZ=             -4.7767
   XY=             -0.4149   XZ=              0.0009   YZ=             -1.5027
 Octapole moment (field-independent basis, Debye-Ang**2):
  XXX=              2.8960  YYY=              9.7651  ZZZ=             -0.3059  XYY=             -0.5293
  XXY=             -2.0811  XXZ=              1.8563  XZZ=             -0.9941  YZZ=              0.0445
  YYZ=              4.1765  XYZ=              5.9974
 Hexadecapole moment (field-independent basis, Debye-Ang**3):
 XXXX=           -330.6555 YYYY=          -1874.4892 ZZZZ=            -67.0565 XXXY=            -27.6696
 XXXZ=              2.2417 YYYX=            -31.1370 YYYZ=            -11.1010 ZZZX=              4.0959
 ZZZY=              8.5135 XXYY=           -384.3821 XXZZ=            -71.7757 YYZZ=           -369.0608
 XXYZ=              0.9634 YYXZ=              1.0857 ZZXY=            -10.6476
 N-N= 4.393563970757D+02 E-N=-1.763485284123D+03  KE= 3.755149750031D+02
  Exact polarizability:   0.000   0.000   0.000   0.000   0.000   0.000
 Approx polarizability: 127.790 -21.493 228.450  -0.693  -6.296  27.486
 -------------------------------------------------------------------
 Center     Atomic                   Forces (Hartrees/Bohr)
 Number     Number              X              Y              Z
 -------------------------------------------------------------------
      1        6           0.045593783   -0.033092136    0.004493333
      2        6           0.025041454   -0.072740170   -0.021983998
      3        6          -0.058274339    0.040867666    0.027219489
      4        6          -0.004688522   -0.049127358    0.000257453
      5        6           0.027420679    0.012468203    0.008694151
      6        1          -0.033778983    0.020649905    0.009629304
      7        1           0.028225472    0.014071209   -0.021953782
      8        1          -0.009579134   -0.017055008   -0.007960326
      9        6           0.104011306    0.011103370   -0.013746057
     10        6          -0.013586669    0.089260842    0.009394052
     11        1          -0.034091767   -0.005428480    0.001677638
     12        1          -0.025211852   -0.008552097    0.001089689
     13        1          -0.006036544   -0.050465658    0.005235182
     14        6          -0.006180466    0.100365257   -0.032040198
     15        1          -0.031193314    0.003954240   -0.006271857
     16        6           0.012252432   -0.026113131    0.012938607
     17        1           0.042194320    0.024823768    0.041190976
     18        1          -0.005991633   -0.082330689   -0.015240410
     19        6          -0.078564026    0.012363809   -0.003223836
     20        1           0.022437804    0.014976458    0.000600592
 -------------------------------------------------------------------
 Cartesian Forces:  Max     0.104011306 RMS     0.035976550
 1\1\GINC-COLLSEROLA5\BOMD\RB3LYP\STO-3G\C10H10\ROOT\02-Jun-2016\0\\# b
 3lyp/sto-3g BOMD=(MaxPoints=35, Ntraj=1, Update=15, RTemp=298) # guess
 =read geom=allcheck\\Title Card Required\\0,1\C,0,-0.075814703,0.,0.02
 69380583\C,0,-0.0045596398,0.,1.4463041796\C,0,1.2336805037,0.,2.10421
 90086\C,0,2.457241559,0.,1.3787842111\C,0,2.3859864958,0.,-0.040581910
 2\H,0,-0.9288538077,0.,2.0382912867\H,0,1.265233515,0.,3.2024280981\H,
 0,3.3102806637,0.,-0.6325690173\C,0,3.7520425889,0.,2.1313241979\C,0,4
 .9872240436,0.,1.600868666\H,0,5.1663339096,0.,0.5196128924\H,0,3.6421
 497516,0.,3.2262297951\H,0,5.8793431704,0.,2.2379242812\C,0,-1.3706157
 329,0.,-0.7256019285\H,0,-1.2607228956,0.,-1.8205075257\C,0,-2.6057971
 877,0.,-0.1951463967\H,0,-2.7849070536,0.,0.886109377\H,0,-3.497916314
 4,0.,-0.8322020118\C,0,1.1477463523,0.,-0.6984967392\H,0,1.116193341,0
 .,-1.7967058287\\Version=ES64L-G09RevD.01\HF=-382.2187652\RMSD=7.530e-
 09\RMSF=3.598e-02\Dipole=0.0717242,0.0237665,0.1272866\Polar=0.,0.,0.,
 0.,0.,0.\Quadrupole=1.5738805,1.9774891,-3.5513696,-0.3084999,0.000696
 2,-1.117206\PG=C01 [X(C10H10)]\\@


 UNDER MOST GREENE GRASSE LY MOST GREATE SNAKES.
 -- PROVERBS AND REASONS OF THE YEAR 1585
           AS REPRINTED IN PAISLEY MAGAZINE 1828.
 Job cpu time:       0 days  0 hours 16 minutes  6.5 seconds.
 File lengths (MBytes):  RWF=     16 Int=      0 D2E=      0 Chk=      2 Scr=      1
 Normal termination of Gaussian 09 at Thu Jun  2 17:20:52 2016.
