 Entering Gaussian System, Link 0=g09
 Initial command:
 /share/apps/g09/l1.exe /state/partition1/adam-11619/Gau-13616.inp -scrdir=/state/partition1/adam-11619/
 Entering Link 1 = /share/apps/g09/l1.exe PID=     13617.
  
 Copyright (c) 1988,1990,1992,1993,1995,1998,2003,2009, Gaussian, Inc.
                  All Rights Reserved.
  
 This is part of the Gaussian(R) 09 program.  It is based on
 the Gaussian(R) 03 system (copyright 2003, Gaussian, Inc.),
 the Gaussian(R) 98 system (copyright 1998, Gaussian, Inc.),
 the Gaussian(R) 94 system (copyright 1995, Gaussian, Inc.),
 the Gaussian 92(TM) system (copyright 1992, Gaussian, Inc.),
 the Gaussian 90(TM) system (copyright 1990, Gaussian, Inc.),
 the Gaussian 88(TM) system (copyright 1988, Gaussian, Inc.),
 the Gaussian 86(TM) system (copyright 1986, Carnegie Mellon
 University), and the Gaussian 82(TM) system (copyright 1983,
 Carnegie Mellon University). Gaussian is a federally registered
 trademark of Gaussian, Inc.
  
 This software contains proprietary and confidential information,
 including trade secrets, belonging to Gaussian, Inc.
  
 This software is provided under written license and may be
 used, copied, transmitted, or stored only in accord with that
 written license.
  
 The following legend is applicable only to US Government
 contracts under FAR:
  
                    RESTRICTED RIGHTS LEGEND
  
 Use, reproduction and disclosure by the US Government is
 subject to restrictions as set forth in subparagraphs (a)
 and (c) of the Commercial Computer Software - Restricted
 Rights clause in FAR 52.227-19.
  
 Gaussian, Inc.
 340 Quinnipiac St., Bldg. 40, Wallingford CT 06492
  
  
 ---------------------------------------------------------------
 Warning -- This program may not be used in any manner that
 competes with the business of Gaussian, Inc. or will provide
 assistance to any competitor of Gaussian, Inc.  The licensee
 of this program is prohibited from giving any competitor of
 Gaussian, Inc. access to this program.  By using this program,
 the user acknowledges that Gaussian, Inc. is engaged in the
 business of creating and licensing software in the field of
 computational chemistry and represents and warrants to the
 licensee that it is not a competitor of Gaussian, Inc. and that
 it will not use this program in any manner prohibited above.
 ---------------------------------------------------------------
  

 Cite this work as:
 Gaussian 09, Revision A.02,
 M. J. Frisch, G. W. Trucks, H. B. Schlegel, G. E. Scuseria, 
 M. A. Robb, J. R. Cheeseman, G. Scalmani, V. Barone, B. Mennucci, 
 G. A. Petersson, H. Nakatsuji, M. Caricato, X. Li, H. P. Hratchian, 
 A. F. Izmaylov, J. Bloino, G. Zheng, J. L. Sonnenberg, M. Hada, 
 M. Ehara, K. Toyota, R. Fukuda, J. Hasegawa, M. Ishida, T. Nakajima, 
 Y. Honda, O. Kitao, H. Nakai, T. Vreven, J. A. Montgomery, Jr., 
 J. E. Peralta, F. Ogliaro, M. Bearpark, J. J. Heyd, E. Brothers, 
 K. N. Kudin, V. N. Staroverov, R. Kobayashi, J. Normand, 
 K. Raghavachari, A. Rendell, J. C. Burant, S. S. Iyengar, J. Tomasi, 
 M. Cossi, N. Rega, J. M. Millam, M. Klene, J. E. Knox, J. B. Cross, 
 V. Bakken, C. Adamo, J. Jaramillo, R. Gomperts, R. E. Stratmann, 
 O. Yazyev, A. J. Austin, R. Cammi, C. Pomelli, J. W. Ochterski, 
 R. L. Martin, K. Morokuma, V. G. Zakrzewski, G. A. Voth, 
 P. Salvador, J. J. Dannenberg, S. Dapprich, A. D. Daniels, 
 O. Farkas, J. B. Foresman, J. V. Ortiz, J. Cioslowski, 
 and D. J. Fox, Gaussian, Inc., Wallingford CT, 2009.
 
 ******************************************
 Gaussian 09:  IA32L-G09RevA.02 11-Jun-2009
                31-Jan-2014 
 ******************************************
 %chk=PhCCCC.chk
 %mem=100MB
 %nproc=1
 Will use up to    1 processors via shared memory.
 ---------------------------------------------------------------------
 #t b3lyp/sto-3g guess=read geom=allcheck pop=full iop(3/33=1,3/36=-1)
 ---------------------------------------------------------------------
 -----------------
 DVB scan dihedral
 -----------------
 Redundant internal coordinates taken from checkpoint file:
 PhCCCC.chk
 Charge =  0 Multiplicity = 1
 C,0,0.1821211638,-1.4140344915,0.1684150775
 C,0,-0.5116857701,-0.8952094604,-0.9581717777
 C,0,-0.6882465879,0.4863173188,-1.1204946225
 C,0,-0.1821513121,1.4140088725,-0.1683311093
 C,0,0.5115288443,0.8951529375,0.9583504479
 H,0,-0.9156569514,-1.5821600763,-1.7129311071
 H,0,-1.2278093805,0.8652667393,-1.9993098947
 H,0,0.9155069551,1.5821428051,1.713065894
 C,0,-0.3985699679,2.8791220486,-0.3902134106
 C,0,0.01233008,3.8800702199,0.4075105154
 H,0,0.5687569452,3.7062200694,1.3355743782
 H,0,-0.9534631577,3.123266115,-1.3085938526
 H,0,-0.195574845,4.9271478725,0.1582907052
 C,0,0.398680965,-2.8791473082,0.3902021838
 H,0,0.9536938742,-3.1234054735,1.3084889363
 C,0,-0.0122999075,-3.8799815424,-0.4076198204
 H,0,-0.5688261894,-3.7059996944,-1.3356186536
 H,0,0.1957689273,-4.9270965165,-0.158666039
 C,0,0.6881836712,-0.4863360101,1.1206195516
 H,0,1.2277126433,-0.8653444252,1.9994325979
 Recover connectivity data from disk.
                    Distance matrix (angstroms):
                    1          2          3          4          5
     1  C    0.000000
     2  C    1.421177   0.000000
     3  C    2.455639   1.402191   0.000000
     4  C    2.871223   2.462708   1.422448   0.000000
     5  C    2.462692   2.815213   2.434790   1.421202   0.000000
     6  H    2.184685   1.097614   2.163630   3.449761   3.912759
     7  H    3.447049   2.167044   1.098657   2.178762   3.431318
     8  H    3.449765   3.912757   3.435393   2.184669   1.097610
     9  C    4.368119   3.818501   2.518479   1.497540   2.565743
    10  C    5.302220   4.994294   3.787237   2.539857   3.076094
    11  H    5.265810   5.253740   4.240296   2.842504   2.836842
    12  H    4.904916   4.057845   2.656919   2.194694   3.499961
    13  H    6.352429   5.936856   4.647472   3.528315   4.170980
    14  C    1.497546   2.565714   3.845773   4.368125   3.818490
    15  H    2.194776   3.499992   4.650379   4.905025   4.057945
    16  C    2.539786   3.075932   4.475451   5.302117   4.994215
    17  H    2.842383   2.836595   4.199531   5.265602   5.253577
    18  H    3.528282   4.170829   5.568810   6.352364   5.936836
    19  C    1.422469   2.434797   2.804141   2.455644   1.402159
    20  H    2.178749   3.431300   3.902798   3.447081   2.167054
                    6          7          8          9         10
     6  H    0.000000
     7  H    2.483818   0.000000
     8  H    5.010332   4.346200   0.000000
     9  C    4.681880   2.707848   2.798703   0.000000
    10  C    5.932402   4.052132   2.792969   1.344284   0.000000
    11  H    6.282025   4.734989   2.185049   2.144331   1.095964
    12  H    4.722918   2.377165   3.872795   1.100425   2.109626
    13  H    6.811100   4.713770   3.852387   2.129900   1.096224
    14  C    2.798719   4.730315   4.681900   5.865349   6.770272
    15  H    3.872840   5.622277   4.723063   6.383145   7.123665
    16  C    2.792826   5.150565   5.932363   6.770154   7.802785
    17  H    2.184800   4.665964   6.281893   6.654818   7.805428
    18  H    3.852221   6.242277   6.811138   7.832235   8.827253
    19  C    3.435425   3.902796   2.163625   3.845771   4.475579
    20  H    4.346205   5.001454   2.483882   4.730352   5.150760
                   11         12         13         14         15
    11  H    0.000000
    12  H    3.106222   0.000000
    13  H    1.860340   2.445431   0.000000
    14  C    6.655052   6.383038   7.832316   0.000000
    15  H    6.840519   7.036141   8.213110   1.100433   0.000000
    16  C    7.805563   7.123414   8.827195   1.344282   2.109640
    17  H    7.960551   6.840142   8.769397   2.144344   3.106250
    18  H    8.769608   8.212881   9.867104   2.129912   2.445464
    19  C    4.199761   4.650302   5.568924   2.518505   2.657052
    20  H    4.666276   5.622240   6.242477   2.707825   2.377252
                   16         17         18         19         20
    16  C    0.000000
    17  H    1.095980   0.000000
    18  H    1.096230   1.860350   0.000000
    19  C    3.787218   4.240214   4.647515   0.000000
    20  H    4.052107   4.734917   4.713823   1.098659   0.000000
 Framework group  C1[X(C10H10)]
 Deg. of freedom    54
                         Standard orientation:                         
 ---------------------------------------------------------------------
 Center     Atomic      Atomic             Coordinates (Angstroms)
 Number     Number       Type             X           Y           Z
 ---------------------------------------------------------------------
      1          6           0       -1.415124    0.241742    0.000032
      2          6           0       -0.899583   -1.082631   -0.000096
      3          6           0        0.483014   -1.316217   -0.000054
      4          6           0        1.415105   -0.241710   -0.000069
      5          6           0        0.899542    1.082680   -0.000099
      6          1           0       -1.589966   -1.935934   -0.000050
      7          1           0        0.859365   -2.348403   -0.000031
      8          1           0        1.589962    1.935950   -0.000115
      9          6           0        2.881177   -0.547093    0.000067
     10          6           0        3.886075    0.345812    0.000070
     11          1           0        3.715242    1.428379   -0.000035
     12          1           0        3.122423   -1.620749    0.000135
     13          1           0        4.933519    0.022440    0.000276
     14          6           0       -2.881204    0.547115    0.000066
     15          1           0       -3.122571    1.620751    0.000143
     16          6           0       -3.885988   -0.345916    0.000049
     17          1           0       -3.715016   -1.428478    0.000042
     18          1           0       -4.933482   -0.022690    0.000116
     19          6           0       -0.483023    1.316268   -0.000031
     20          1           0       -0.859431    2.348435   -0.000085
 ---------------------------------------------------------------------
 Rotational constants (GHZ):      4.6265238      0.6849150      0.5965946
                         Coordinates in L301:                         
 ---------------------------------------------------------------------
 Center     Atomic      Atomic             Coordinates (Angstroms)
 Number     Number       Type             X           Y           Z
 ---------------------------------------------------------------------
      1          6           0       -1.415124    0.241742    0.000032
      2          6           0       -0.899583   -1.082631   -0.000096
      3          6           0        0.483014   -1.316217   -0.000054
      4          6           0        1.415105   -0.241710   -0.000069
      5          6           0        0.899542    1.082680   -0.000099
      6          1           0       -1.589966   -1.935934   -0.000050
      7          1           0        0.859365   -2.348403   -0.000031
      8          1           0        1.589962    1.935950   -0.000115
      9          6           0        2.881177   -0.547093    0.000067
     10          6           0        3.886075    0.345812    0.000070
     11          1           0        3.715242    1.428379   -0.000035
     12          1           0        3.122423   -1.620749    0.000135
     13          1           0        4.933519    0.022440    0.000276
     14          6           0       -2.881204    0.547115    0.000066
     15          1           0       -3.122571    1.620751    0.000143
     16          6           0       -3.885988   -0.345916    0.000049
     17          1           0       -3.715016   -1.428478    0.000042
     18          1           0       -4.933482   -0.022690    0.000116
     19          6           0       -0.483023    1.316268   -0.000031
     20          1           0       -0.859431    2.348435   -0.000085
 ---------------------------------------------------------------------
 FixB: optimizing general contractions.
 Ernie: Thresh=  0.10000D-02 Tol=  0.10000D-05 Strict=F.
 IA=     1 NL=   1 NS=   0.
 IA=     1 L=0 SC=0 ISt=    0 NBk=    0 NP=    0 IndPr=    0.
 IA=     1 NL=   1 NS=   0.
 IA=     1 L=1 SC=0 ISt=    0 NBk=    0 NP=    0 IndPr=    0.
 IA=     2 NL=   1 NS=   0.
 IA=     2 L=0 SC=0 ISt=    0 NBk=    0 NP=    0 IndPr=    0.
 IA=     2 NL=   1 NS=   0.
 IA=     2 L=1 SC=0 ISt=    0 NBk=    0 NP=    0 IndPr=    0.
 IA=     3 NL=   1 NS=   0.
 IA=     3 L=0 SC=0 ISt=    0 NBk=    0 NP=    0 IndPr=    0.
 IA=     3 NL=   1 NS=   0.
 IA=     3 L=1 SC=0 ISt=    0 NBk=    0 NP=    0 IndPr=    0.
 IA=     4 NL=   1 NS=   0.
 IA=     4 L=0 SC=0 ISt=    0 NBk=    0 NP=    0 IndPr=    0.
 IA=     4 NL=   1 NS=   0.
 IA=     4 L=1 SC=0 ISt=    0 NBk=    0 NP=    0 IndPr=    0.
 IA=     5 NL=   1 NS=   0.
 IA=     5 L=0 SC=0 ISt=    0 NBk=    0 NP=    0 IndPr=    0.
 IA=     5 NL=   1 NS=   0.
 IA=     5 L=1 SC=0 ISt=    0 NBk=    0 NP=    0 IndPr=    0.
 IA=     6 NL=   1 NS=   0.
 IA=     6 L=0 SC=0 ISt=    0 NBk=    0 NP=    0 IndPr=    0.
 IA=     7 NL=   1 NS=   0.
 IA=     7 L=0 SC=0 ISt=    0 NBk=    0 NP=    0 IndPr=    0.
 IA=     8 NL=   1 NS=   0.
 IA=     8 L=0 SC=0 ISt=    0 NBk=    0 NP=    0 IndPr=    0.
 IA=     9 NL=   1 NS=   0.
 IA=     9 L=0 SC=0 ISt=    0 NBk=    0 NP=    0 IndPr=    0.
 IA=     9 NL=   1 NS=   0.
 IA=     9 L=1 SC=0 ISt=    0 NBk=    0 NP=    0 IndPr=    0.
 IA=    10 NL=   1 NS=   0.
 IA=    10 L=0 SC=0 ISt=    0 NBk=    0 NP=    0 IndPr=    0.
 IA=    10 NL=   1 NS=   0.
 IA=    10 L=1 SC=0 ISt=    0 NBk=    0 NP=    0 IndPr=    0.
 IA=    11 NL=   1 NS=   0.
 IA=    11 L=0 SC=0 ISt=    0 NBk=    0 NP=    0 IndPr=    0.
 IA=    12 NL=   1 NS=   0.
 IA=    12 L=0 SC=0 ISt=    0 NBk=    0 NP=    0 IndPr=    0.
 IA=    13 NL=   1 NS=   0.
 IA=    13 L=0 SC=0 ISt=    0 NBk=    0 NP=    0 IndPr=    0.
 IA=    14 NL=   1 NS=   0.
 IA=    14 L=0 SC=0 ISt=    0 NBk=    0 NP=    0 IndPr=    0.
 IA=    14 NL=   1 NS=   0.
 IA=    14 L=1 SC=0 ISt=    0 NBk=    0 NP=    0 IndPr=    0.
 IA=    15 NL=   1 NS=   0.
 IA=    15 L=0 SC=0 ISt=    0 NBk=    0 NP=    0 IndPr=    0.
 IA=    16 NL=   1 NS=   0.
 IA=    16 L=0 SC=0 ISt=    0 NBk=    0 NP=    0 IndPr=    0.
 IA=    16 NL=   1 NS=   0.
 IA=    16 L=1 SC=0 ISt=    0 NBk=    0 NP=    0 IndPr=    0.
 IA=    17 NL=   1 NS=   0.
 IA=    17 L=0 SC=0 ISt=    0 NBk=    0 NP=    0 IndPr=    0.
 IA=    18 NL=   1 NS=   0.
 IA=    18 L=0 SC=0 ISt=    0 NBk=    0 NP=    0 IndPr=    0.
 IA=    19 NL=   1 NS=   0.
 IA=    19 L=0 SC=0 ISt=    0 NBk=    0 NP=    0 IndPr=    0.
 IA=    19 NL=   1 NS=   0.
 IA=    19 L=1 SC=0 ISt=    0 NBk=    0 NP=    0 IndPr=    0.
 IA=    20 NL=   1 NS=   0.
 IA=    20 L=0 SC=0 ISt=    0 NBk=    0 NP=    0 IndPr=    0.
 LdAtmC:  AtmChg=     6.000000     6.000000     6.000000     6.000000     6.000000
 LdAtmC:  AtmChg=     1.000000     1.000000     1.000000     6.000000     6.000000
 LdAtmC:  AtmChg=     1.000000     1.000000     1.000000     6.000000     1.000000
 LdAtmC:  AtmChg=     6.000000     1.000000     1.000000     6.000000     1.000000
 AtZEff=     -3.6000000     -3.6000000     -3.6000000     -3.6000000     -3.6000000
 AtZEff=     -1.0000000     -1.0000000     -1.0000000     -3.6000000     -3.6000000
 AtZEff=     -1.0000000     -1.0000000     -1.0000000     -3.6000000     -1.0000000
 AtZEff=     -3.6000000     -1.0000000     -1.0000000     -3.6000000     -1.0000000
 NEqShl: 
              1
     1            1
     2            2
     3            3
     4            4
     5            5
     6            6
     7            7
     8            8
     9            9
    10           10
    11           11
    12           12
    13           13
    14           14
    15           15
    16           16
    17           17
    18           18
    19           19
    20           20
    21           21
    22           22
    23           23
    24           24
    25           25
    26           26
    27           27
    28           28
    29           29
    30           30
 NEqBas: 
              1
     1            1
     2            2
     3            3
     4            4
     5            5
     6            6
     7            7
     8            8
     9            9
    10           10
    11           11
    12           12
    13           13
    14           14
    15           15
    16           16
    17           17
    18           18
    19           19
    20           20
    21           21
    22           22
    23           23
    24           24
    25           25
    26           26
    27           27
    28           28
    29           29
    30           30
    31           31
    32           32
    33           33
    34           34
    35           35
    36           36
    37           37
    38           38
    39           39
    40           40
    41           41
    42           42
    43           43
    44           44
    45           45
    46           46
    47           47
    48           48
    49           49
    50           50
    51           51
    52           52
    53           53
    54           54
    55           55
    56           56
    57           57
    58           58
    59           59
    60           60
 NEqShl: 
              1
     1            1
     2            2
     3            3
     4            4
     5            5
     6            6
     7            7
     8            8
     9            9
    10           10
    11           11
    12           12
    13           13
    14           14
    15           15
    16           16
    17           17
    18           18
    19           19
    20           20
    21           21
    22           22
    23           23
    24           24
    25           25
    26           26
    27           27
    28           28
    29           29
    30           30
 NEqBas: 
              1
     1            1
     2            2
     3            3
     4            4
     5            5
     6            6
     7            7
     8            8
     9            9
    10           10
    11           11
    12           12
    13           13
    14           14
    15           15
    16           16
    17           17
    18           18
    19           19
    20           20
    21           21
    22           22
    23           23
    24           24
    25           25
    26           26
    27           27
    28           28
    29           29
    30           30
    31           31
    32           32
    33           33
    34           34
    35           35
    36           36
    37           37
    38           38
    39           39
    40           40
    41           41
    42           42
    43           43
    44           44
    45           45
    46           46
    47           47
    48           48
    49           49
    50           50
    51           51
    52           52
    53           53
    54           54
    55           55
    56           56
    57           57
    58           58
    59           59
    60           60
 Order= 1
 Reordered character table:
              1
     1            1
    60 basis functions,   180 primitive gaussians,    60 cartesian basis functions
    35 alpha electrons       35 beta electrons
       nuclear repulsion energy       445.8955115860 Hartrees.
 NAtoms=   20 NActive=   20 NUniq=   20 SFac= 7.50D-01 NAtFMM=   80 NAOKFM=F Big=F
 NPDir=0 NMtPBC=     1 NCelOv=     1 NCel=       1 NClECP=     1 NCelD=      1
         NCelK=      1 NCelE2=     1 NClLst=     1 CellRange=     0.0.
 Entering OneElI...
 Calculate overlap and kinetic energy integrals
    NBasis =  60  MinDer = 0  MaxDer = 0
 Requested accuracy = 0.1000D-12
 PrsmSu:  NPrtUS=   1 ThrOK=F IAlg=1
 PRISM was handed    13050838 working-precision words and   442 shell-pairs
 IPart=  0 NShTot=         442 NBatch=          19 AvBLen=        23.3
 *** Overlap *** 
                1             2             3             4             5 
      1  0.100000D+01
      2  0.248362D+00  0.100000D+01
      3  0.000000D+00  0.000000D+00  0.100000D+01
      4  0.000000D+00  0.000000D+00  0.000000D+00  0.100000D+01
      5  0.000000D+00  0.000000D+00  0.000000D+00  0.000000D+00  0.100000D+01
      6  0.000000D+00  0.356453D-01  0.214515D-01 -0.551068D-01 -0.532460D-05
      7  0.356453D-01  0.354134D+00  0.137916D+00 -0.354294D+00 -0.342330D-04
      8 -0.214515D-01 -0.137916D+00  0.134980D+00  0.179804D+00  0.173732D-04
      9  0.551068D-01  0.354294D+00  0.179804D+00 -0.256926D+00 -0.446301D-04
     10  0.532460D-05  0.342330D-04  0.173732D-04 -0.446301D-04  0.204972D+00
     11  0.000000D+00  0.159299D-02  0.288006D-02 -0.236390D-02  0.000000D+00
     12  0.159299D-02  0.563229D-01  0.646768D-01 -0.530856D-01 -0.292748D-05
     13 -0.288006D-02 -0.646768D-01 -0.583957D-01  0.671113D-01  0.370095D-05
     14  0.236390D-02  0.530856D-01  0.671113D-01 -0.317146D-01 -0.303768D-05
     15  0.000000D+00  0.292748D-05  0.370095D-05 -0.303768D-05  0.233692D-01
     16  0.000000D+00  0.298179D-03  0.802389D-03 -0.137062D-03  0.000000D+00
     17  0.298179D-03  0.216830D-01  0.349508D-01 -0.597021D-02 -0.124144D-05
     18 -0.802389D-03 -0.349508D-01 -0.522522D-01  0.103334D-01  0.214870D-05
     19  0.137062D-03  0.597021D-02  0.103334D-01  0.647625D-02  0.000000D+00
     20  0.000000D+00  0.124144D-05  0.214870D-05  0.000000D+00  0.824137D-02
     21  0.000000D+00  0.155168D-02  0.342077D-02  0.124279D-02  0.000000D+00
     22  0.155168D-02  0.554738D-01  0.775927D-01  0.281901D-01 -0.439874D-05
     23 -0.342077D-02 -0.775927D-01 -0.964442D-01 -0.433875D-01  0.677011D-05
     24 -0.124279D-02 -0.281901D-01 -0.433875D-01  0.721607D-02  0.245964D-05
     25  0.000000D+00  0.439874D-05  0.677011D-05  0.245964D-05  0.229791D-01
     26  0.503631D-02  0.922686D-01 -0.959154D-02 -0.119463D+00 -0.451245D-05
     27  0.802831D-04  0.592140D-02  0.651595D-02 -0.742024D-02  0.000000D+00
     28  0.794138D-04  0.588115D-02  0.854771D-02  0.481903D-02  0.000000D+00
     29  0.000000D+00  0.000000D+00  0.000000D+00  0.000000D+00  0.000000D+00
     30  0.000000D+00  0.256796D-03  0.559995D-03 -0.102820D-03  0.000000D+00
     31  0.000000D+00 -0.559995D-03 -0.115384D-02  0.227012D-03  0.000000D+00
     32  0.000000D+00  0.102820D-03  0.227012D-03  0.408732D-04  0.000000D+00
     33  0.000000D+00  0.000000D+00  0.000000D+00  0.000000D+00  0.825544D-04
     34  0.000000D+00  0.000000D+00  0.000000D+00  0.000000D+00  0.000000D+00
     35  0.000000D+00  0.700872D-05  0.185859D-04  0.000000D+00  0.000000D+00
     36  0.000000D+00 -0.185859D-04 -0.471844D-04  0.000000D+00  0.000000D+00
     37  0.000000D+00  0.000000D+00  0.000000D+00  0.218684D-05  0.000000D+00
     38  0.000000D+00  0.000000D+00  0.000000D+00  0.000000D+00  0.220587D-05
     39  0.000000D+00  0.231393D-04  0.516759D-04  0.119525D-04  0.000000D+00
     40  0.000000D+00  0.819845D-04  0.163205D-03 -0.669893D-04  0.000000D+00
     41  0.000000D+00  0.000000D+00  0.000000D+00  0.000000D+00  0.000000D+00
     42  0.000000D+00  0.295719D-01 -0.482879D-01  0.100580D-01  0.112902D-05
     43  0.295719D-01  0.317744D+00 -0.344701D+00  0.717983D-01  0.805943D-05
     44  0.482879D-01  0.344701D+00 -0.299228D+00  0.994039D-01  0.111582D-04
     45 -0.100580D-01 -0.717983D-01  0.994039D-01  0.157300D+00 -0.232416D-05
     46 -0.112902D-05 -0.805943D-05  0.111582D-04 -0.232416D-05  0.178005D+00
     47  0.490729D-02  0.905682D-01 -0.917354D-01  0.740895D-01  0.594535D-05
     48  0.000000D+00  0.115866D-02 -0.272519D-02 -0.648145D-03  0.000000D+00
     49  0.115866D-02  0.468795D-01 -0.691547D-01 -0.164474D-01  0.000000D+00
     50  0.272519D-02  0.691547D-01 -0.925792D-01 -0.265566D-01  0.000000D+00
     51  0.648145D-03  0.164474D-01 -0.265566D-01  0.127644D-01  0.000000D+00
     52  0.000000D+00  0.000000D+00  0.000000D+00  0.000000D+00  0.190804D-01
     53  0.732833D-03  0.245066D-01 -0.296583D-01 -0.215384D-01  0.000000D+00
     54  0.577541D-04  0.482021D-02 -0.812878D-02 -0.610942D-03  0.000000D+00
     55  0.000000D+00  0.355343D-01  0.386304D-01  0.445331D-01 -0.262007D-05
     56  0.355343D-01  0.353499D+00  0.248818D+00  0.286838D+00 -0.168759D-04
     57 -0.386304D-01 -0.248818D+00 -0.236532D-01 -0.263003D+00  0.154735D-04
     58 -0.445331D-01 -0.286838D+00 -0.263003D+00 -0.987004D-01  0.178379D-04
     59  0.262007D-05  0.168759D-04  0.154735D-04  0.178379D-04  0.204489D+00
     60  0.511352D-02  0.932812D-01  0.308598D-01  0.116993D+00 -0.649818D-05
                6             7             8             9            10 
      6  0.100000D+01
      7  0.248362D+00  0.100000D+01
      8  0.000000D+00  0.000000D+00  0.100000D+01
      9  0.000000D+00  0.000000D+00  0.000000D+00  0.100000D+01
     10  0.000000D+00  0.000000D+00  0.000000D+00  0.000000D+00  0.100000D+01
     11  0.000000D+00  0.373135D-01  0.610048D-01 -0.103066D-01  0.185536D-05
     12  0.373135D-01  0.363549D+00  0.381689D+00 -0.644855D-01  0.116084D-04
     13 -0.610048D-01 -0.381689D+00 -0.312855D+00  0.887038D-01 -0.159681D-04
     14  0.103066D-01  0.644855D-01  0.887038D-01  0.197195D+00  0.269777D-05
     15 -0.185536D-05 -0.116084D-04 -0.159681D-04  0.269777D-05  0.212181D+00
     16  0.000000D+00  0.155159D-02  0.342060D-02  0.124270D-02  0.000000D+00
     17  0.155159D-02  0.554719D-01  0.775907D-01  0.281885D-01  0.000000D+00
     18 -0.342060D-02 -0.775907D-01 -0.964427D-01 -0.433853D-01 -0.141554D-05
     19 -0.124270D-02 -0.281885D-01 -0.433853D-01  0.721649D-02  0.000000D+00
     20  0.000000D+00  0.000000D+00 -0.141554D-05  0.000000D+00  0.229783D-01
     21  0.000000D+00  0.379428D-03  0.649137D-03  0.781259D-03  0.000000D+00
     22  0.379428D-03  0.248335D-01  0.256354D-01  0.308531D-01  0.000000D+00
     23 -0.649137D-03 -0.256354D-01 -0.189592D-01 -0.343011D-01  0.000000D+00
     24 -0.781259D-03 -0.308531D-01 -0.343011D-01 -0.317415D-01  0.000000D+00
     25  0.000000D+00  0.000000D+00  0.000000D+00  0.000000D+00  0.954109D-02
     26  0.611783D-01  0.486382D+00 -0.292257D+00 -0.361226D+00  0.193496D-04
     27  0.526872D-02  0.953055D-01  0.100064D+00 -0.720080D-01  0.369119D-05
     28  0.109532D-04  0.173145D-02  0.199041D-02  0.241338D-02  0.000000D+00
     29  0.000000D+00  0.248012D-05  0.889760D-05  0.126033D-05  0.000000D+00
     30  0.248012D-05  0.157385D-02  0.309497D-02  0.438396D-03  0.000000D+00
     31 -0.889760D-05 -0.309497D-02 -0.573420D-02 -0.886502D-03  0.000000D+00
     32 -0.126033D-05 -0.438396D-03 -0.886502D-03  0.398719D-03  0.000000D+00
     33  0.000000D+00  0.000000D+00  0.000000D+00  0.000000D+00  0.524291D-03
     34  0.000000D+00  0.000000D+00  0.000000D+00  0.000000D+00  0.000000D+00
     35  0.000000D+00  0.247378D-04  0.593722D-04  0.177216D-04  0.000000D+00
     36  0.000000D+00 -0.593722D-04 -0.135247D-03 -0.427015D-04  0.000000D+00
     37  0.000000D+00 -0.177216D-04 -0.427015D-04 -0.493098D-05  0.000000D+00
     38  0.000000D+00  0.000000D+00  0.000000D+00  0.000000D+00  0.781474D-05
     39  0.000000D+00  0.241728D-04  0.485691D-04  0.264273D-04  0.000000D+00
     40  0.559448D-05  0.115084D-02  0.211350D-02 -0.282772D-03  0.000000D+00
     41  0.000000D+00  0.174906D-05  0.440948D-05  0.000000D+00  0.000000D+00
     42  0.000000D+00  0.104815D-02 -0.197685D-02  0.162582D-02  0.000000D+00
     43  0.104815D-02  0.442576D-01 -0.521523D-01  0.428917D-01  0.426993D-05
     44  0.197685D-02  0.521523D-01 -0.492432D-01  0.552286D-01  0.549809D-05
     45 -0.162582D-02 -0.428917D-01  0.552286D-01 -0.275120D-01 -0.452180D-05
     46  0.000000D+00 -0.426993D-05  0.549809D-05 -0.452180D-05  0.179097D-01
     47  0.648298D-04  0.518040D-02 -0.553741D-02  0.673405D-02  0.000000D+00
     48  0.000000D+00  0.118729D-03 -0.336979D-03  0.831292D-04  0.000000D+00
     49  0.118729D-03  0.129651D-01 -0.215020D-01  0.530432D-02  0.104208D-05
     50  0.336979D-03  0.215020D-01 -0.331428D-01  0.934788D-02  0.183648D-05
     51 -0.831292D-04 -0.530432D-02  0.934788D-02  0.244451D-02  0.000000D+00
     52  0.000000D+00 -0.104208D-05  0.183648D-05  0.000000D+00  0.475053D-02
     53  0.746981D-03  0.248189D-01 -0.368030D-01 -0.452088D-02  0.180700D-05
     54  0.326001D-05  0.830080D-03 -0.151719D-02  0.398654D-03  0.000000D+00
     55  0.000000D+00  0.172087D-02  0.682922D-03  0.393283D-02  0.000000D+00
     56  0.172087D-02  0.588967D-01  0.148924D-01  0.857627D-01  0.231474D-05
     57 -0.682922D-03 -0.148924D-01  0.204049D-01 -0.239106D-01  0.000000D+00
     58 -0.393283D-02 -0.857627D-01 -0.239106D-01 -0.113140D+00 -0.371646D-05
     59  0.000000D+00 -0.231474D-05  0.000000D+00 -0.371646D-05  0.245569D-01
     60  0.855012D-04  0.615981D-02  0.119883D-03  0.102442D-01  0.000000D+00
               11            12            13            14            15 
     11  0.100000D+01
     12  0.248362D+00  0.100000D+01
     13  0.000000D+00  0.000000D+00  0.100000D+01
     14  0.000000D+00  0.000000D+00  0.000000D+00  0.100000D+01
     15  0.000000D+00  0.000000D+00  0.000000D+00  0.000000D+00  0.100000D+01
     16  0.000000D+00  0.355360D-01  0.386324D-01  0.445351D-01  0.000000D+00
     17  0.355360D-01  0.353509D+00  0.248824D+00  0.286843D+00 -0.390086D-05
     18 -0.386324D-01 -0.248824D+00 -0.236513D-01 -0.263008D+00  0.357671D-05
     19 -0.445351D-01 -0.286843D+00 -0.263008D+00 -0.986959D-01  0.412321D-05
     20  0.000000D+00  0.390086D-05  0.357671D-05  0.412321D-05  0.204497D+00
     21  0.000000D+00  0.172092D-02  0.682886D-03  0.393293D-02  0.000000D+00
     22  0.172092D-02  0.588975D-01  0.148915D-01  0.857640D-01 -0.161963D-05
     23 -0.682886D-03 -0.148915D-01  0.204059D-01 -0.239092D-01  0.000000D+00
     24 -0.393293D-02 -0.857640D-01 -0.239092D-01 -0.113142D+00  0.260042D-05
     25  0.000000D+00  0.161963D-05  0.000000D+00  0.260042D-05  0.245573D-01
     26  0.531472D-02  0.959028D-01 -0.118760D+00 -0.355031D-01  0.000000D+00
     27  0.610295D-01  0.485784D+00  0.159044D+00 -0.436196D+00  0.965006D-05
     28  0.841158D-04  0.609703D-02  0.326975D-02  0.960638D-02  0.000000D+00
     29  0.000000D+00  0.125718D-02  0.287030D-02  0.920546D-03  0.000000D+00
     30  0.125718D-02  0.491325D-01  0.705781D-01  0.226354D-01  0.355627D-05
     31 -0.287030D-02 -0.705781D-01 -0.910344D-01 -0.356403D-01 -0.559948D-05
     32 -0.920546D-03 -0.226354D-01 -0.356403D-01  0.866323D-02 -0.179583D-05
     33  0.000000D+00 -0.355627D-05 -0.559948D-05 -0.179583D-05  0.200936D-01
     34  0.000000D+00  0.296790D-05  0.958451D-05  0.468100D-05  0.000000D+00
     35  0.296790D-05  0.173342D-02  0.307418D-02  0.150140D-02  0.000000D+00
     36 -0.958451D-05 -0.307418D-02 -0.503365D-02 -0.274121D-02  0.000000D+00
     37 -0.468100D-05 -0.150140D-02 -0.274121D-02 -0.759707D-03  0.000000D+00
     38  0.000000D+00  0.000000D+00  0.000000D+00  0.000000D+00  0.579081D-03
     39  0.232184D-05  0.676425D-03  0.986371D-03  0.837562D-03  0.000000D+00
     40  0.132653D-02  0.364507D-01  0.521982D-01 -0.602255D-02  0.374178D-05
     41  0.000000D+00  0.191930D-03  0.377868D-03  0.113658D-03  0.000000D+00
     42  0.000000D+00  0.211804D-05 -0.676104D-05  0.374472D-05  0.000000D+00
     43  0.211804D-05  0.144588D-02 -0.252591D-02  0.139902D-02  0.000000D+00
     44  0.676104D-05  0.252591D-02 -0.405263D-02  0.251076D-02  0.000000D+00
     45 -0.374472D-05 -0.139902D-02  0.251076D-02 -0.910119D-03  0.000000D+00
     46  0.000000D+00  0.000000D+00  0.000000D+00  0.000000D+00  0.480512D-03
     47  0.000000D+00  0.190140D-03 -0.303242D-03  0.247009D-03  0.000000D+00
     48  0.000000D+00  0.000000D+00  0.000000D+00  0.000000D+00  0.000000D+00
     49  0.000000D+00  0.175612D-03 -0.388275D-03  0.862312D-04  0.000000D+00
     50  0.000000D+00  0.388275D-03 -0.811179D-03  0.192636D-03  0.000000D+00
     51  0.000000D+00 -0.862312D-04  0.192636D-03  0.134281D-04  0.000000D+00
     52  0.000000D+00  0.000000D+00  0.000000D+00  0.000000D+00  0.562103D-04
     53  0.283541D-05  0.763031D-03 -0.144874D-02 -0.387413D-04  0.000000D+00
     54  0.000000D+00  0.748480D-05 -0.175753D-04  0.419720D-05  0.000000D+00
     55  0.000000D+00  0.397717D-03 -0.365363D-03  0.995628D-03  0.000000D+00
     56  0.397717D-03  0.255019D-01 -0.141565D-01  0.385770D-01  0.000000D+00
     57  0.365363D-03  0.141565D-01  0.135068D-02  0.230769D-01  0.000000D+00
     58 -0.995628D-03 -0.385770D-01  0.230769D-01 -0.530663D-01  0.000000D+00
     59  0.000000D+00  0.000000D+00  0.000000D+00  0.000000D+00  0.981916D-02
     60  0.114599D-04  0.177988D-02 -0.110422D-02  0.301435D-02  0.000000D+00
               16            17            18            19            20 
     16  0.100000D+01
     17  0.248362D+00  0.100000D+01
     18  0.000000D+00  0.000000D+00  0.100000D+01
     19  0.000000D+00  0.000000D+00  0.000000D+00  0.100000D+01
     20  0.000000D+00  0.000000D+00  0.000000D+00  0.000000D+00  0.100000D+01
     21  0.000000D+00  0.356432D-01 -0.214508D-01  0.551034D-01 -0.127691D-05
     22  0.356432D-01  0.354122D+00 -0.137917D+00  0.354284D+00 -0.820983D-05
     23  0.214508D-01  0.137917D+00  0.134968D+00  0.179804D+00 -0.416661D-05
     24 -0.551034D-01 -0.354284D+00  0.179804D+00 -0.256922D+00  0.107033D-04
     25  0.127691D-05  0.820983D-05 -0.416661D-05  0.107033D-04  0.204963D+00
     26  0.794152D-04  0.588122D-02 -0.854777D-02 -0.481914D-02  0.000000D+00
     27  0.511336D-02  0.932791D-01 -0.308616D-01 -0.116990D+00  0.207957D-05
     28  0.503652D-02  0.922713D-01  0.959266D-02  0.119466D+00 -0.253555D-05
     29  0.000000D+00  0.295724D-01  0.482885D-01 -0.100585D-01  0.446138D-05
     30  0.295724D-01  0.317747D+00  0.344702D+00 -0.718015D-01  0.318471D-04
     31 -0.482885D-01 -0.344702D+00 -0.299227D+00  0.994080D-01 -0.440917D-04
     32  0.100585D-01  0.718015D-01  0.994080D-01  0.157301D+00  0.918432D-05
     33 -0.446138D-05 -0.318471D-04 -0.440917D-04  0.918432D-05  0.178007D+00
     34  0.000000D+00  0.115834D-02  0.272455D-02  0.647816D-03  0.000000D+00
     35  0.115834D-02  0.468721D-01  0.691459D-01  0.164408D-01  0.388529D-05
     36 -0.272455D-02 -0.691459D-01 -0.925714D-01 -0.265466D-01 -0.627350D-05
     37 -0.647816D-03 -0.164408D-01 -0.265466D-01  0.127651D-01 -0.149165D-05
     38  0.000000D+00 -0.388529D-05 -0.627350D-05 -0.149165D-05  0.190771D-01
     39  0.732542D-03  0.245001D-01  0.296531D-01  0.215306D-01  0.000000D+00
     40  0.490833D-02  0.905819D-01  0.917440D-01 -0.741037D-01  0.109522D-04
     41  0.577462D-04  0.481980D-02  0.812819D-02  0.610236D-03  0.000000D+00
     42  0.000000D+00  0.000000D+00  0.000000D+00  0.000000D+00  0.000000D+00
     43  0.000000D+00  0.256791D-03 -0.559984D-03  0.102816D-03  0.000000D+00
     44  0.000000D+00  0.559984D-03 -0.115382D-02  0.227004D-03  0.000000D+00
     45  0.000000D+00 -0.102816D-03  0.227004D-03  0.408734D-04  0.000000D+00
     46  0.000000D+00  0.000000D+00  0.000000D+00  0.000000D+00  0.825526D-04
     47  0.000000D+00  0.819543D-04 -0.163149D-03  0.669633D-04  0.000000D+00
     48  0.000000D+00  0.000000D+00  0.000000D+00  0.000000D+00  0.000000D+00
     49  0.000000D+00  0.701178D-05 -0.185937D-04  0.000000D+00  0.000000D+00
     50  0.000000D+00  0.185937D-04 -0.472031D-04  0.000000D+00  0.000000D+00
     51  0.000000D+00  0.000000D+00  0.000000D+00  0.218775D-05  0.000000D+00
     52  0.000000D+00  0.000000D+00  0.000000D+00  0.000000D+00  0.220684D-05
     53  0.000000D+00  0.231568D-04 -0.517126D-04 -0.119628D-04  0.000000D+00
     54  0.000000D+00  0.000000D+00  0.000000D+00  0.000000D+00  0.000000D+00
     55  0.000000D+00  0.159297D-02 -0.288000D-02  0.236389D-02  0.000000D+00
     56  0.159297D-02  0.563223D-01 -0.646758D-01  0.530857D-01  0.127127D-05
     57  0.288000D-02  0.646758D-01 -0.583942D-01  0.671110D-01  0.160714D-05
     58 -0.236389D-02 -0.530857D-01  0.671110D-01 -0.317156D-01 -0.131914D-05
     59  0.000000D+00 -0.127127D-05  0.160714D-05 -0.131914D-05  0.233690D-01
     60  0.802730D-04  0.592093D-02 -0.651555D-02  0.741963D-02  0.000000D+00
               21            22            23            24            25 
     21  0.100000D+01
     22  0.248362D+00  0.100000D+01
     23  0.000000D+00  0.000000D+00  0.100000D+01
     24  0.000000D+00  0.000000D+00  0.000000D+00  0.100000D+01
     25  0.000000D+00  0.000000D+00  0.000000D+00  0.000000D+00  0.100000D+01
     26  0.109531D-04  0.173144D-02 -0.199037D-02 -0.241339D-02  0.000000D+00
     27  0.854951D-04  0.615954D-02 -0.119953D-03 -0.102437D-01  0.000000D+00
     28  0.611787D-01  0.486384D+00  0.292274D+00  0.361213D+00 -0.657359D-05
     29  0.000000D+00  0.104803D-02  0.197664D-02 -0.162566D-02  0.000000D+00
     30  0.104803D-02  0.442547D-01  0.521491D-01 -0.428894D-01  0.437219D-05
     31 -0.197664D-02 -0.521491D-01 -0.492404D-01  0.552258D-01 -0.562977D-05
     32  0.162566D-02  0.428894D-01  0.552258D-01 -0.275114D-01  0.463014D-05
     33  0.000000D+00 -0.437219D-05 -0.562977D-05  0.463014D-05  0.179084D-01
     34  0.000000D+00  0.118640D-03  0.336740D-03 -0.830839D-04  0.000000D+00
     35  0.118640D-03  0.129597D-01  0.214935D-01 -0.530310D-02  0.122010D-05
     36 -0.336740D-03 -0.214935D-01 -0.331306D-01  0.934589D-02 -0.215024D-05
     37  0.830839D-04  0.530310D-02  0.934589D-02  0.244250D-02  0.000000D+00
     38  0.000000D+00 -0.122010D-05 -0.215024D-05  0.000000D+00  0.474841D-02
     39  0.746373D-03  0.248055D-01  0.367852D-01  0.451633D-02  0.000000D+00
     40  0.648380D-04  0.518082D-02  0.553760D-02 -0.673473D-02  0.000000D+00
     41  0.325763D-05  0.829713D-03  0.151653D-02 -0.398586D-03  0.000000D+00
     42  0.000000D+00  0.248028D-05 -0.889811D-05 -0.126047D-05  0.000000D+00
     43  0.248028D-05  0.157390D-02 -0.309506D-02 -0.438433D-03  0.000000D+00
     44  0.889811D-05  0.309506D-02 -0.573435D-02 -0.886576D-03  0.000000D+00
     45  0.126047D-05  0.438433D-03 -0.886576D-03  0.398720D-03  0.000000D+00
     46  0.000000D+00  0.000000D+00  0.000000D+00  0.000000D+00  0.524308D-03
     47  0.559185D-05  0.115051D-02 -0.211294D-02  0.282664D-03  0.000000D+00
     48  0.000000D+00  0.000000D+00  0.000000D+00  0.000000D+00  0.000000D+00
     49  0.000000D+00  0.247457D-04 -0.593894D-04 -0.177292D-04  0.000000D+00
     50  0.000000D+00  0.593894D-04 -0.135282D-03 -0.427186D-04  0.000000D+00
     51  0.000000D+00  0.177292D-04 -0.427186D-04 -0.493531D-05  0.000000D+00
     52  0.000000D+00  0.000000D+00  0.000000D+00  0.000000D+00  0.781723D-05
     53  0.000000D+00  0.241871D-04 -0.485951D-04 -0.264446D-04  0.000000D+00
     54  0.000000D+00  0.174920D-05 -0.440978D-05  0.000000D+00  0.000000D+00
     55  0.000000D+00  0.373163D-01 -0.610094D-01  0.103077D-01  0.300067D-05
     56  0.373163D-01  0.363565D+00 -0.381700D+00  0.644893D-01  0.187735D-04
     57  0.610094D-01  0.381700D+00 -0.312855D+00  0.887084D-01  0.258239D-04
     58 -0.103077D-01 -0.644893D-01  0.887084D-01  0.197206D+00 -0.436301D-05
     59 -0.300067D-05 -0.187735D-04  0.258239D-04 -0.436301D-05  0.212193D+00
     60  0.526858D-02  0.953037D-01 -0.100063D+00  0.720055D-01  0.000000D+00
               26            27            28            29            30 
     26  0.100000D+01
     27  0.510417D-01  0.100000D+01
     28  0.104479D-03  0.710590D-03  0.100000D+01
     29  0.000000D+00  0.113153D-02  0.845778D-03  0.100000D+01
     30  0.171727D-03  0.327446D-01  0.269524D-01  0.248362D+00  0.100000D+01
     31 -0.339229D-03 -0.356101D-01 -0.184413D-01  0.000000D+00  0.000000D+00
     32 -0.105372D-03 -0.317264D-01  0.354632D-01  0.000000D+00  0.000000D+00
     33  0.000000D+00 -0.172612D-05 -0.259462D-05  0.000000D+00  0.000000D+00
     34  0.000000D+00  0.574712D-05  0.861702D-03  0.223762D-05  0.428307D-01
     35  0.178108D-05  0.116978D-02  0.272891D-01  0.428307D-01  0.393128D+00
     36 -0.421546D-05 -0.161732D-02 -0.332339D-01 -0.530953D-01 -0.304850D+00
     37 -0.175649D-05 -0.143966D-02  0.230156D-01 -0.471779D-01 -0.270876D+00
     38  0.000000D+00  0.000000D+00 -0.267858D-05  0.000000D+00 -0.102924D-05
     39  0.134745D-05  0.237815D-03  0.873096D-01  0.558119D-02  0.993386D-01
     40  0.246321D-03  0.621261D-01  0.244122D-02  0.607781D-01  0.484772D+00
     41  0.000000D+00  0.252957D-03  0.256866D-02  0.578773D-02  0.101975D+00
     42  0.845732D-03  0.000000D+00  0.000000D+00  0.000000D+00  0.000000D+00
     43  0.269515D-01  0.146652D-03  0.171716D-03  0.000000D+00  0.000000D+00
     44  0.184409D-01  0.241948D-03  0.339209D-03  0.000000D+00  0.165779D-05
     45 -0.354619D-01 -0.187289D-03  0.105365D-03  0.000000D+00  0.000000D+00
     46 -0.166431D-05  0.000000D+00  0.000000D+00  0.000000D+00  0.000000D+00
     47  0.244094D-02  0.144647D-04  0.246217D-03  0.000000D+00  0.000000D+00
     48  0.862103D-03  0.000000D+00  0.000000D+00  0.000000D+00  0.000000D+00
     49  0.272976D-01  0.349807D-04  0.178136D-05  0.000000D+00  0.000000D+00
     50  0.332436D-01  0.724091D-04  0.421605D-05  0.000000D+00  0.000000D+00
     51 -0.230216D-01 -0.305559D-04  0.175685D-05  0.000000D+00  0.000000D+00
     52 -0.143378D-05  0.000000D+00  0.000000D+00  0.000000D+00  0.000000D+00
     53  0.873472D-01  0.290448D-03  0.134813D-05  0.000000D+00  0.000000D+00
     54  0.256973D-02  0.156593D-05  0.000000D+00  0.000000D+00  0.000000D+00
     55  0.841051D-04  0.114600D-04  0.531479D-02  0.000000D+00  0.211806D-05
     56  0.609654D-02  0.177989D-02  0.959036D-01  0.211806D-05  0.144589D-02
     57 -0.326946D-02  0.110418D-02  0.118761D+00  0.676106D-05  0.252591D-02
     58 -0.960567D-02 -0.301438D-02  0.355015D-01 -0.374481D-05 -0.139905D-02
     59  0.000000D+00  0.000000D+00 -0.478532D-05  0.000000D+00  0.000000D+00
     60  0.710579D-03  0.107355D-03  0.510355D-01  0.000000D+00  0.146634D-03
               31            32            33            34            35 
     31  0.100000D+01
     32  0.000000D+00  0.100000D+01
     33  0.000000D+00  0.000000D+00  0.100000D+01
     34  0.530953D-01  0.471779D-01  0.000000D+00  0.100000D+01
     35  0.304850D+00  0.270876D+00  0.102924D-05  0.248362D+00  0.100000D+01
     36 -0.795552D-01 -0.279913D+00 -0.106358D-05  0.000000D+00  0.000000D+00
     37 -0.279913D+00 -0.132513D-01  0.000000D+00  0.000000D+00  0.000000D+00
     38 -0.106358D-05  0.000000D+00  0.235466D+00  0.000000D+00  0.000000D+00
     39  0.497131D-01  0.117745D+00 -0.607782D-05  0.614143D-01  0.487328D+00
     40  0.101651D+00 -0.452392D+00  0.288063D-04  0.608874D-02  0.105776D+00
     41  0.125992D+00  0.349632D-01  0.128705D-04  0.613771D-01  0.487179D+00
     42  0.000000D+00  0.000000D+00  0.000000D+00  0.000000D+00  0.000000D+00
     43 -0.165779D-05  0.000000D+00  0.000000D+00  0.000000D+00  0.000000D+00
     44 -0.459079D-05  0.000000D+00  0.000000D+00  0.000000D+00  0.000000D+00
     45  0.000000D+00  0.000000D+00  0.000000D+00  0.000000D+00  0.000000D+00
     46  0.000000D+00  0.000000D+00  0.000000D+00  0.000000D+00  0.000000D+00
     47  0.000000D+00  0.000000D+00  0.000000D+00  0.000000D+00  0.000000D+00
     48  0.000000D+00  0.000000D+00  0.000000D+00  0.000000D+00  0.000000D+00
     49  0.000000D+00  0.000000D+00  0.000000D+00  0.000000D+00  0.000000D+00
     50  0.000000D+00  0.000000D+00  0.000000D+00  0.000000D+00  0.000000D+00
     51  0.000000D+00  0.000000D+00  0.000000D+00  0.000000D+00  0.000000D+00
     52  0.000000D+00  0.000000D+00  0.000000D+00  0.000000D+00  0.000000D+00
     53  0.000000D+00  0.000000D+00  0.000000D+00  0.000000D+00  0.000000D+00
     54  0.000000D+00  0.000000D+00  0.000000D+00  0.000000D+00  0.000000D+00
     55 -0.676106D-05  0.374481D-05  0.000000D+00  0.000000D+00  0.000000D+00
     56 -0.252591D-02  0.139905D-02  0.000000D+00  0.000000D+00  0.175531D-03
     57 -0.405260D-02  0.251080D-02  0.000000D+00  0.000000D+00  0.388105D-03
     58  0.251080D-02 -0.910167D-03  0.000000D+00  0.000000D+00 -0.862051D-04
     59  0.000000D+00  0.000000D+00  0.480514D-03  0.000000D+00  0.000000D+00
     60 -0.241921D-03  0.187266D-03  0.000000D+00  0.000000D+00  0.349565D-04
               36            37            38            39            40 
     36  0.100000D+01
     37  0.000000D+00  0.100000D+01
     38  0.000000D+00  0.000000D+00  0.100000D+01
     39 -0.725162D-01  0.459533D+00 -0.447252D-04  0.100000D+01
     40 -0.488590D-01 -0.125822D+00  0.415699D-05  0.145557D-01  0.100000D+01
     41  0.444432D+00 -0.137207D+00  0.875172D-04  0.149285D+00  0.548173D-01
     42  0.000000D+00  0.000000D+00  0.000000D+00  0.000000D+00  0.000000D+00
     43  0.000000D+00  0.000000D+00  0.000000D+00  0.000000D+00  0.000000D+00
     44  0.000000D+00  0.000000D+00  0.000000D+00  0.000000D+00  0.000000D+00
     45  0.000000D+00  0.000000D+00  0.000000D+00  0.000000D+00  0.000000D+00
     46  0.000000D+00  0.000000D+00  0.000000D+00  0.000000D+00  0.000000D+00
     47  0.000000D+00  0.000000D+00  0.000000D+00  0.000000D+00  0.000000D+00
     48  0.000000D+00  0.000000D+00  0.000000D+00  0.000000D+00  0.000000D+00
     49  0.000000D+00  0.000000D+00  0.000000D+00  0.000000D+00  0.000000D+00
     50  0.000000D+00  0.000000D+00  0.000000D+00  0.000000D+00  0.000000D+00
     51  0.000000D+00  0.000000D+00  0.000000D+00  0.000000D+00  0.000000D+00
     52  0.000000D+00  0.000000D+00  0.000000D+00  0.000000D+00  0.000000D+00
     53  0.000000D+00  0.000000D+00  0.000000D+00  0.000000D+00  0.000000D+00
     54  0.000000D+00  0.000000D+00  0.000000D+00  0.000000D+00  0.000000D+00
     55  0.000000D+00  0.000000D+00  0.000000D+00  0.283223D-05  0.000000D+00
     56 -0.388105D-03  0.862051D-04  0.000000D+00  0.762514D-03  0.190187D-03
     57 -0.810838D-03  0.192582D-03  0.000000D+00  0.144782D-02  0.303307D-03
     58  0.192582D-03  0.134084D-04  0.000000D+00  0.386629D-04 -0.247075D-03
     59  0.000000D+00  0.000000D+00  0.561843D-04  0.000000D+00  0.000000D+00
     60 -0.723611D-04  0.305367D-04  0.000000D+00  0.290188D-03  0.144665D-04
               41            42            43            44            45 
     41  0.100000D+01
     42  0.000000D+00  0.100000D+01
     43  0.000000D+00  0.248362D+00  0.100000D+01
     44  0.000000D+00  0.000000D+00  0.000000D+00  0.100000D+01
     45  0.000000D+00  0.000000D+00  0.000000D+00  0.000000D+00  0.100000D+01
     46  0.000000D+00  0.000000D+00  0.000000D+00  0.000000D+00  0.000000D+00
     47  0.000000D+00  0.607770D-01  0.484768D+00 -0.101701D+00  0.452378D+00
     48  0.000000D+00  0.223770D-05  0.428309D-01 -0.530896D-01 -0.471849D-01
     49  0.000000D+00  0.428309D-01  0.393129D+00 -0.304817D+00 -0.270915D+00
     50  0.000000D+00  0.530896D-01  0.304817D+00 -0.794840D-01 -0.279922D+00
     51  0.000000D+00  0.471849D-01  0.270915D+00 -0.279922D+00 -0.133216D-01
     52  0.000000D+00  0.000000D+00  0.531162D-05 -0.548822D-05 -0.487781D-05
     53  0.000000D+00  0.558101D-02  0.993362D-01 -0.496968D-01 -0.117749D+00
     54  0.000000D+00  0.578756D-02  0.101972D+00 -0.125985D+00 -0.349791D-01
     55  0.000000D+00  0.000000D+00  0.125706D-02  0.287004D-02  0.920490D-03
     56  0.748154D-05  0.125706D-02  0.491297D-01  0.705744D-01  0.226349D-01
     57  0.175678D-04 -0.287004D-02 -0.705744D-01 -0.910299D-01 -0.356395D-01
     58 -0.419635D-05 -0.920490D-03 -0.226349D-01 -0.356395D-01  0.866187D-02
     59  0.000000D+00  0.000000D+00  0.286917D-05  0.451763D-05  0.144891D-05
     60  0.156475D-05  0.113161D-02  0.327462D-01  0.356113D-01  0.317282D-01
               46            47            48            49            50 
     46  0.100000D+01
     47  0.321832D-04  0.100000D+01
     48  0.000000D+00  0.608853D-02  0.100000D+01
     49 -0.531162D-05  0.105774D+00  0.248362D+00  0.100000D+01
     50 -0.548822D-05  0.488425D-01  0.000000D+00  0.000000D+00  0.100000D+01
     51 -0.487781D-05  0.125825D+00  0.000000D+00  0.000000D+00  0.000000D+00
     52  0.235467D+00  0.600697D-05  0.000000D+00  0.000000D+00  0.000000D+00
     53 -0.143093D-05  0.145548D-01  0.614120D-01  0.487319D+00  0.725726D-01
     54  0.308193D-05  0.548139D-01  0.613762D-01  0.487175D+00 -0.444449D+00
     55  0.000000D+00  0.132598D-02  0.000000D+00  0.296822D-05  0.958527D-05
     56 -0.286917D-05  0.364406D-01  0.296822D-05  0.173352D-02  0.307427D-02
     57  0.451763D-05 -0.521853D-01 -0.958527D-05 -0.307427D-02 -0.503364D-02
     58  0.144891D-05  0.601978D-02 -0.468194D-05 -0.150163D-02 -0.274156D-02
     59  0.200923D-01  0.343766D-05  0.000000D+00  0.000000D+00  0.000000D+00
     60 -0.266483D-05  0.621163D-01  0.574779D-05  0.116986D-02  0.161736D-02
               51            52            53            54            55 
     51  0.100000D+01
     52  0.000000D+00  0.100000D+01
     53 -0.459518D+00 -0.275873D-05  0.100000D+01
     54  0.137144D+00  0.287305D-04  0.149282D+00  0.100000D+01
     55  0.468194D-05  0.000000D+00  0.232278D-05  0.000000D+00  0.100000D+01
     56  0.150163D-02  0.000000D+00  0.676589D-03  0.191903D-03  0.248362D+00
     57 -0.274156D-02  0.000000D+00 -0.986544D-03 -0.377810D-03  0.000000D+00
     58 -0.760004D-03  0.000000D+00 -0.837815D-03 -0.113667D-03  0.000000D+00
     59  0.000000D+00  0.579115D-03  0.000000D+00  0.000000D+00  0.000000D+00
     60  0.143983D-02  0.000000D+00  0.237865D-03  0.252918D-03  0.610292D-01
               56            57            58            59            60 
     56  0.100000D+01
     57  0.000000D+00  0.100000D+01
     58  0.000000D+00  0.000000D+00  0.100000D+01
     59  0.000000D+00  0.000000D+00  0.000000D+00  0.100000D+01
     60  0.485783D+00 -0.159067D+00  0.436187D+00 -0.227331D-04  0.100000D+01
 *** Kinetic Energy *** 
                1             2             3             4             5 
      1  0.158911D+02
      2 -0.858900D-01  0.472250D+00
      3  0.000000D+00  0.000000D+00  0.147773D+01
      4  0.000000D+00  0.000000D+00  0.000000D+00  0.147773D+01
      5  0.000000D+00  0.000000D+00  0.000000D+00  0.000000D+00  0.147773D+01
      6 -0.232354D-04 -0.841004D-02 -0.431392D-02  0.110820D-01  0.107078D-05
      7 -0.841004D-02  0.409084D-01  0.508628D-01 -0.130662D+00 -0.126249D-04
      8  0.431392D-02 -0.508628D-01  0.204772D-01  0.122176D+00  0.118050D-04
      9 -0.110820D-01  0.130662D+00  0.122176D+00 -0.245821D+00 -0.303260D-04
     10 -0.107078D-05  0.126249D-04  0.118050D-04 -0.303260D-04  0.680367D-01
     11  0.000000D+00 -0.207802D-02 -0.257348D-02  0.211227D-02  0.000000D+00
     12 -0.207802D-02 -0.171075D-01 -0.860586D-02  0.706355D-02  0.000000D+00
     13  0.257348D-02  0.860586D-02 -0.630299D-02  0.191698D-02  0.000000D+00
     14 -0.211227D-02 -0.706355D-02  0.191698D-02 -0.554087D-02  0.000000D+00
     15  0.000000D+00  0.000000D+00  0.000000D+00  0.000000D+00 -0.396745D-02
     16  0.000000D+00 -0.598840D-03 -0.127368D-02  0.217568D-03  0.000000D+00
     17 -0.598840D-03 -0.108351D-01 -0.118002D-01  0.201568D-02  0.000000D+00
     18  0.127368D-02  0.118002D-01  0.795263D-02 -0.188424D-02  0.000000D+00
     19 -0.217568D-03 -0.201568D-02 -0.188424D-02 -0.275625D-02  0.000000D+00
     20  0.000000D+00  0.000000D+00  0.000000D+00  0.000000D+00 -0.307811D-02
     21  0.000000D+00 -0.204111D-02 -0.309258D-02 -0.112356D-02  0.000000D+00
     22 -0.204111D-02 -0.170262D-01 -0.105850D-01 -0.384563D-02  0.000000D+00
     23  0.309258D-02  0.105850D-01 -0.698463D-02 -0.109236D-02  0.000000D+00
     24  0.112356D-02  0.384563D-02 -0.109236D-02 -0.437479D-02  0.000000D+00
     25  0.000000D+00  0.000000D+00  0.000000D+00  0.000000D+00 -0.397793D-02
     26 -0.225924D-02 -0.150262D-01  0.134874D-03  0.167987D-02  0.000000D+00
     27 -0.141372D-03 -0.356656D-02 -0.309151D-02  0.352056D-02  0.000000D+00
     28 -0.140122D-03 -0.354853D-02 -0.406447D-02 -0.229147D-02  0.000000D+00
     29  0.000000D+00  0.000000D+00 -0.170236D-05  0.000000D+00  0.000000D+00
     30  0.000000D+00 -0.356145D-03 -0.668846D-03  0.122806D-03  0.000000D+00
     31  0.170236D-05  0.668846D-03  0.115942D-02 -0.231206D-03  0.000000D+00
     32  0.000000D+00 -0.122806D-03 -0.231206D-03 -0.573592D-04  0.000000D+00
     33  0.000000D+00  0.000000D+00  0.000000D+00  0.000000D+00 -0.998104D-04
     34  0.000000D+00  0.000000D+00  0.000000D+00  0.000000D+00  0.000000D+00
     35  0.000000D+00 -0.151123D-04 -0.360904D-04  0.000000D+00  0.000000D+00
     36  0.000000D+00  0.360904D-04  0.812797D-04  0.167987D-05  0.000000D+00
     37  0.000000D+00  0.000000D+00  0.167987D-05 -0.425865D-05  0.000000D+00
     38  0.000000D+00  0.000000D+00  0.000000D+00  0.000000D+00 -0.429163D-05
     39  0.000000D+00 -0.359444D-04 -0.712706D-04 -0.164847D-04  0.000000D+00
     40  0.000000D+00 -0.108382D-03 -0.188735D-03  0.774685D-04  0.000000D+00
     41  0.000000D+00  0.000000D+00 -0.181332D-05  0.000000D+00  0.000000D+00
     42 -0.640261D-05 -0.818809D-02  0.112128D-01 -0.233554D-02  0.000000D+00
     43 -0.818809D-02  0.274202D-01 -0.111948D+00  0.233178D-01  0.261744D-05
     44 -0.112128D-01  0.111948D+00 -0.235994D+00  0.597306D-01  0.670481D-05
     45  0.233554D-02 -0.233178D-01  0.597306D-01  0.383279D-01 -0.139656D-05
     46  0.000000D+00 -0.261744D-05  0.670481D-05 -0.139656D-05  0.507693D-01
     47 -0.223490D-02 -0.150434D-01  0.159667D-02 -0.128954D-02  0.000000D+00
     48  0.000000D+00 -0.166551D-02  0.278572D-02  0.662542D-03  0.000000D+00
     49 -0.166551D-02 -0.160349D-01  0.119923D-01  0.285218D-02  0.000000D+00
     50 -0.278572D-02 -0.119923D-01 -0.263333D-02  0.326316D-03  0.000000D+00
     51 -0.662542D-03 -0.285218D-02  0.326316D-03 -0.392775D-02  0.000000D+00
     52  0.000000D+00  0.000000D+00  0.000000D+00  0.000000D+00 -0.400535D-02
     53 -0.764455D-03 -0.936068D-02  0.726281D-02  0.527437D-02  0.000000D+00
     54 -0.107874D-03 -0.305725D-02  0.411351D-02  0.309163D-03  0.000000D+00
     55 -0.227496D-04 -0.840809D-02 -0.779639D-02 -0.898768D-02  0.000000D+00
     56 -0.840809D-02  0.406605D-01  0.915735D-01  0.105566D+00 -0.621088D-05
     57  0.779639D-02 -0.915735D-01 -0.869950D-01 -0.178343D+00  0.104926D-04
     58  0.898768D-02 -0.105566D+00 -0.178343D+00 -0.137885D+00  0.120959D-04
     59  0.000000D+00  0.621088D-05  0.104926D-04  0.120959D-04  0.677090D-01
     60 -0.227356D-02 -0.150131D-01 -0.373269D-03 -0.141510D-02  0.000000D+00
                6             7             8             9            10 
      6  0.158911D+02
      7 -0.858900D-01  0.472250D+00
      8  0.000000D+00  0.000000D+00  0.147773D+01
      9  0.000000D+00  0.000000D+00  0.000000D+00  0.147773D+01
     10  0.000000D+00  0.000000D+00  0.000000D+00  0.000000D+00  0.147773D+01
     11 -0.316181D-04 -0.842908D-02 -0.115695D-01  0.195464D-02  0.000000D+00
     12 -0.842908D-02  0.446347D-01  0.145061D+00 -0.245078D-01  0.441178D-05
     13  0.115695D-01 -0.145061D+00 -0.294641D+00  0.621139D-01 -0.111815D-04
     14 -0.195464D-02  0.245078D-01  0.621139D-01  0.625159D-01  0.188908D-05
     15  0.000000D+00 -0.441178D-05 -0.111815D-04  0.188908D-05  0.730099D-01
     16  0.000000D+00 -0.204103D-02 -0.309251D-02 -0.112350D-02  0.000000D+00
     17 -0.204103D-02 -0.170260D-01 -0.105853D-01 -0.384562D-02  0.000000D+00
     18  0.309251D-02  0.105853D-01 -0.698370D-02 -0.109198D-02  0.000000D+00
     19  0.112350D-02  0.384562D-02 -0.109198D-02 -0.437467D-02  0.000000D+00
     20  0.000000D+00  0.000000D+00  0.000000D+00  0.000000D+00 -0.397795D-02
     21  0.000000D+00 -0.723490D-03 -0.964698D-03 -0.116105D-02  0.000000D+00
     22 -0.723490D-03 -0.117293D-01 -0.793110D-02 -0.954535D-02  0.000000D+00
     23  0.964698D-03  0.793110D-02  0.105801D-02  0.523950D-02  0.000000D+00
     24  0.116105D-02  0.954535D-02  0.523950D-02  0.301050D-02  0.000000D+00
     25  0.000000D+00  0.000000D+00  0.000000D+00  0.000000D+00 -0.329542D-02
     26 -0.107808D-01  0.104394D+00 -0.161340D+00 -0.199414D+00  0.106819D-04
     27 -0.230187D-02 -0.149803D-01 -0.822382D-03  0.591802D-03  0.000000D+00
     28 -0.263655D-04 -0.137923D-02 -0.131702D-02 -0.159689D-02  0.000000D+00
     29  0.000000D+00 -0.997777D-05 -0.320618D-04 -0.454149D-05  0.000000D+00
     30 -0.997777D-05 -0.160282D-02 -0.261566D-02 -0.370503D-03  0.000000D+00
     31  0.320618D-04  0.261566D-02  0.387956D-02  0.614152D-03  0.000000D+00
     32  0.454149D-05  0.370503D-03  0.614152D-03 -0.369208D-03  0.000000D+00
     33  0.000000D+00  0.000000D+00  0.000000D+00  0.000000D+00 -0.456201D-03
     34  0.000000D+00  0.000000D+00  0.000000D+00  0.000000D+00  0.000000D+00
     35  0.000000D+00 -0.465717D-04 -0.993462D-04 -0.296532D-04  0.000000D+00
     36  0.000000D+00  0.993462D-04  0.197481D-03  0.628625D-04  0.000000D+00
     37  0.000000D+00  0.296532D-04  0.628625D-04  0.563879D-05  0.000000D+00
     38  0.000000D+00  0.000000D+00  0.000000D+00  0.000000D+00 -0.131246D-04
     39  0.000000D+00 -0.373546D-04 -0.666058D-04 -0.362414D-04  0.000000D+00
     40 -0.146846D-04 -0.993556D-03 -0.153092D-02  0.204827D-03  0.000000D+00
     41  0.000000D+00 -0.356325D-05 -0.817009D-05 -0.154781D-05  0.000000D+00
     42  0.000000D+00 -0.155068D-02  0.210184D-02 -0.172862D-02  0.000000D+00
     43 -0.155068D-02 -0.156669D-01  0.969876D-02 -0.797656D-02  0.000000D+00
     44 -0.210184D-02 -0.969876D-02 -0.229960D-02 -0.138494D-02  0.000000D+00
     45  0.172862D-02  0.797656D-02 -0.138494D-02 -0.284455D-02  0.000000D+00
     46  0.000000D+00  0.000000D+00  0.000000D+00  0.000000D+00 -0.398356D-02
     47 -0.118659D-03 -0.322766D-02  0.274106D-02 -0.333340D-02  0.000000D+00
     48  0.000000D+00 -0.284518D-03  0.665587D-03 -0.164193D-03  0.000000D+00
     49 -0.284518D-03 -0.781043D-02  0.950733D-02 -0.234536D-02  0.000000D+00
     50 -0.665587D-03 -0.950733D-02  0.879830D-02 -0.272963D-02  0.000000D+00
     51  0.164193D-03  0.234536D-02 -0.272963D-02 -0.159335D-02  0.000000D+00
     52  0.000000D+00  0.000000D+00  0.000000D+00  0.000000D+00 -0.226673D-02
     53 -0.774590D-03 -0.943026D-02  0.893318D-02  0.109735D-02  0.000000D+00
     54 -0.912739D-05 -0.761695D-03  0.117601D-02 -0.309007D-03  0.000000D+00
     55  0.000000D+00 -0.218953D-02 -0.589236D-03 -0.339331D-02  0.000000D+00
     56 -0.218953D-02 -0.173371D-01 -0.183418D-02 -0.105627D-01  0.000000D+00
     57  0.589236D-03  0.183418D-02 -0.408756D-02 -0.921447D-03  0.000000D+00
     58  0.339331D-02  0.105627D-01 -0.921447D-03 -0.923400D-02  0.000000D+00
     59  0.000000D+00  0.000000D+00  0.000000D+00  0.000000D+00 -0.392755D-02
     60 -0.148813D-03 -0.367251D-02 -0.561487D-04 -0.479796D-02  0.000000D+00
               11            12            13            14            15 
     11  0.158911D+02
     12 -0.858900D-01  0.472250D+00
     13  0.000000D+00  0.000000D+00  0.147773D+01
     14  0.000000D+00  0.000000D+00  0.000000D+00  0.147773D+01
     15  0.000000D+00  0.000000D+00  0.000000D+00  0.000000D+00  0.147773D+01
     16 -0.227572D-04 -0.840812D-02 -0.779636D-02 -0.898758D-02  0.000000D+00
     17 -0.840812D-02  0.406644D-01  0.915787D-01  0.105571D+00 -0.143569D-05
     18  0.779636D-02 -0.915787D-01 -0.869987D-01 -0.178352D+00  0.242546D-05
     19  0.898758D-02 -0.105571D+00 -0.178352D+00 -0.137888D+00  0.279604D-05
     20  0.000000D+00  0.143569D-05  0.242546D-05  0.279604D-05  0.677141D-01
     21  0.000000D+00 -0.218957D-02 -0.589198D-03 -0.339335D-02  0.000000D+00
     22 -0.218957D-02 -0.173372D-01 -0.183401D-02 -0.105626D-01  0.000000D+00
     23  0.589198D-03  0.183401D-02 -0.408753D-02 -0.921468D-03  0.000000D+00
     24  0.339335D-02  0.105626D-01 -0.921468D-03 -0.923452D-02  0.000000D+00
     25  0.000000D+00  0.000000D+00  0.000000D+00  0.000000D+00 -0.392753D-02
     26 -0.231014D-02 -0.149690D-01  0.841755D-03  0.251643D-03  0.000000D+00
     27 -0.108139D-01  0.104058D+00  0.876502D-01 -0.240391D+00  0.531822D-05
     28 -0.146848D-03 -0.364475D-02 -0.153659D-02 -0.451445D-02  0.000000D+00
     29  0.000000D+00 -0.176420D-02 -0.283866D-02 -0.910397D-03  0.000000D+00
     30 -0.176420D-02 -0.163256D-01 -0.115138D-01 -0.369265D-02  0.000000D+00
     31  0.283866D-02  0.115138D-01 -0.380681D-02  0.659566D-04  0.000000D+00
     32  0.910397D-03  0.369265D-02  0.659566D-04 -0.399132D-02  0.000000D+00
     33  0.000000D+00  0.000000D+00  0.000000D+00  0.000000D+00 -0.401247D-02
     34  0.000000D+00 -0.117165D-04 -0.338140D-04 -0.165145D-04  0.000000D+00
     35 -0.117165D-04 -0.173200D-02 -0.254215D-02 -0.124157D-02  0.000000D+00
     36  0.338140D-04  0.254215D-02  0.329806D-02  0.185186D-02  0.000000D+00
     37  0.165145D-04  0.124157D-02  0.185186D-02  0.410753D-03  0.000000D+00
     38  0.000000D+00  0.000000D+00  0.000000D+00  0.000000D+00 -0.493679D-03
     39 -0.675591D-05 -0.643974D-03 -0.796286D-03 -0.676154D-03  0.000000D+00
     40 -0.112995D-02 -0.116093D-01 -0.922521D-02  0.106439D-02  0.000000D+00
     41 -0.101931D-05 -0.224539D-03 -0.382362D-03 -0.115010D-03  0.000000D+00
     42  0.000000D+00 -0.866135D-05  0.248110D-04 -0.137420D-04  0.000000D+00
     43 -0.866135D-05 -0.149694D-02  0.217515D-02 -0.120474D-02  0.000000D+00
     44 -0.248110D-04 -0.217515D-02  0.278336D-02 -0.177731D-02  0.000000D+00
     45  0.137420D-04  0.120474D-02 -0.177731D-02  0.558849D-03  0.000000D+00
     46  0.000000D+00  0.000000D+00  0.000000D+00  0.000000D+00 -0.425547D-03
     47 -0.100486D-05 -0.222760D-03  0.307323D-03 -0.250333D-03  0.000000D+00
     48  0.000000D+00  0.000000D+00  0.000000D+00  0.000000D+00  0.000000D+00
     49  0.000000D+00 -0.257447D-03  0.493116D-03 -0.109515D-03  0.000000D+00
     50  0.000000D+00 -0.493116D-03  0.872604D-03 -0.209810D-03  0.000000D+00
     51  0.000000D+00  0.109515D-03 -0.209810D-03 -0.255149D-04  0.000000D+00
     52  0.000000D+00  0.000000D+00  0.000000D+00  0.000000D+00 -0.721111D-04
     53 -0.806675D-05 -0.710944D-03  0.114208D-02  0.305407D-04  0.000000D+00
     54  0.000000D+00 -0.131993D-04  0.278359D-04 -0.664757D-05  0.000000D+00
     55  0.000000D+00 -0.750476D-03  0.535758D-03 -0.145996D-02  0.000000D+00
     56 -0.750476D-03 -0.119079D-01  0.430100D-02 -0.117204D-01  0.000000D+00
     57 -0.535758D-03 -0.430100D-02 -0.209279D-02 -0.339073D-02  0.000000D+00
     58  0.145996D-02  0.117204D-01 -0.339073D-02  0.590278D-02  0.000000D+00
     59  0.000000D+00  0.000000D+00  0.000000D+00  0.000000D+00 -0.333708D-02
     60 -0.274171D-04 -0.140986D-02  0.726001D-03 -0.198186D-02  0.000000D+00
               16            17            18            19            20 
     16  0.158911D+02
     17 -0.858900D-01  0.472250D+00
     18  0.000000D+00  0.000000D+00  0.147773D+01
     19  0.000000D+00  0.000000D+00  0.000000D+00  0.147773D+01
     20  0.000000D+00  0.000000D+00  0.000000D+00  0.000000D+00  0.147773D+01
     21 -0.232261D-04 -0.841001D-02  0.431408D-02 -0.110821D-01  0.000000D+00
     22 -0.841001D-02  0.409037D-01 -0.508610D-01  0.130653D+00 -0.302762D-05
     23 -0.431408D-02  0.508610D-01  0.204712D-01  0.122171D+00 -0.283108D-05
     24  0.110821D-01 -0.130653D+00  0.122171D+00 -0.245806D+00  0.727255D-05
     25  0.000000D+00  0.302762D-05 -0.283108D-05  0.727255D-05  0.680305D-01
     26 -0.140124D-03 -0.354856D-02  0.406449D-02  0.229151D-02  0.000000D+00
     27 -0.227353D-02 -0.150131D-01  0.373419D-03  0.141555D-02  0.000000D+00
     28 -0.225927D-02 -0.150262D-01 -0.134839D-03 -0.167928D-02  0.000000D+00
     29 -0.640328D-05 -0.818811D-02 -0.112129D-01  0.233565D-02 -0.103596D-05
     30 -0.818811D-02  0.274211D-01  0.111949D+00 -0.233190D-01  0.103430D-04
     31  0.112129D-01 -0.111949D+00 -0.235997D+00  0.597336D-01 -0.264944D-04
     32 -0.233565D-02  0.233190D-01  0.597336D-01  0.383280D-01  0.551880D-05
     33  0.103596D-05 -0.103430D-04 -0.264944D-04  0.551880D-05  0.507705D-01
     34  0.000000D+00 -0.166519D-02 -0.278538D-02 -0.662278D-03  0.000000D+00
     35 -0.166519D-02 -0.160339D-01 -0.119931D-01 -0.285161D-02  0.000000D+00
     36  0.278538D-02  0.119931D-01 -0.262949D-02  0.327130D-03  0.000000D+00
     37  0.662278D-03  0.285161D-02  0.327130D-03 -0.392753D-02  0.000000D+00
     38  0.000000D+00  0.000000D+00  0.000000D+00  0.000000D+00 -0.400531D-02
     39 -0.764246D-03 -0.935923D-02 -0.726285D-02 -0.527343D-02  0.000000D+00
     40 -0.223510D-02 -0.150433D-01 -0.159432D-02  0.128777D-02  0.000000D+00
     41 -0.107862D-03 -0.305705D-02 -0.411332D-02 -0.308814D-03  0.000000D+00
     42  0.000000D+00  0.000000D+00  0.170230D-05  0.000000D+00  0.000000D+00
     43  0.000000D+00 -0.356139D-03  0.668835D-03 -0.122802D-03  0.000000D+00
     44 -0.170230D-05 -0.668835D-03  0.115941D-02 -0.231199D-03  0.000000D+00
     45  0.000000D+00  0.122802D-03 -0.231199D-03 -0.573592D-04  0.000000D+00
     46  0.000000D+00  0.000000D+00  0.000000D+00  0.000000D+00 -0.998086D-04
     47  0.000000D+00 -0.108348D-03  0.188681D-03 -0.774428D-04  0.000000D+00
     48  0.000000D+00  0.000000D+00  0.000000D+00  0.000000D+00  0.000000D+00
     49  0.000000D+00 -0.151183D-04  0.361037D-04  0.000000D+00  0.000000D+00
     50  0.000000D+00 -0.361037D-04  0.813076D-04  0.168269D-05  0.000000D+00
     51  0.000000D+00  0.000000D+00  0.168269D-05 -0.426023D-05  0.000000D+00
     52  0.000000D+00  0.000000D+00  0.000000D+00  0.000000D+00 -0.429330D-05
     53  0.000000D+00 -0.359682D-04  0.713142D-04  0.164974D-04  0.000000D+00
     54  0.000000D+00  0.000000D+00  0.181377D-05  0.000000D+00  0.000000D+00
     55  0.000000D+00 -0.207799D-02  0.257345D-02 -0.211228D-02  0.000000D+00
     56 -0.207799D-02 -0.171075D-01  0.860587D-02 -0.706368D-02  0.000000D+00
     57 -0.257345D-02 -0.860587D-02 -0.630277D-02  0.191682D-02  0.000000D+00
     58  0.211228D-02  0.706368D-02  0.191682D-02 -0.554078D-02  0.000000D+00
     59  0.000000D+00  0.000000D+00  0.000000D+00  0.000000D+00 -0.396745D-02
     60 -0.141357D-03 -0.356635D-02  0.309140D-02 -0.352035D-02  0.000000D+00
               21            22            23            24            25 
     21  0.158911D+02
     22 -0.858900D-01  0.472250D+00
     23  0.000000D+00  0.000000D+00  0.147773D+01
     24  0.000000D+00  0.000000D+00  0.000000D+00  0.147773D+01
     25  0.000000D+00  0.000000D+00  0.000000D+00  0.000000D+00  0.147773D+01
     26 -0.263652D-04 -0.137922D-02  0.131699D-02  0.159690D-02  0.000000D+00
     27 -0.148804D-03 -0.367239D-02  0.561822D-04  0.479783D-02  0.000000D+00
     28 -0.107807D-01  0.104395D+00  0.161350D+00  0.199408D+00 -0.362895D-05
     29  0.000000D+00 -0.155055D-02 -0.210171D-02  0.172853D-02  0.000000D+00
     30 -0.155055D-02 -0.156664D-01 -0.969889D-02  0.797675D-02  0.000000D+00
     31  0.210171D-02  0.969889D-02 -0.229871D-02 -0.138566D-02  0.000000D+00
     32 -0.172853D-02 -0.797675D-02 -0.138566D-02 -0.284391D-02  0.000000D+00
     33  0.000000D+00  0.000000D+00  0.000000D+00  0.000000D+00 -0.398353D-02
     34  0.000000D+00 -0.284341D-03 -0.665221D-03  0.164130D-03  0.000000D+00
     35 -0.284341D-03 -0.780823D-02 -0.950537D-02  0.234526D-02  0.000000D+00
     36  0.665221D-03  0.950537D-02  0.879805D-02 -0.272986D-02  0.000000D+00
     37 -0.164130D-03 -0.234526D-02 -0.272986D-02 -0.159257D-02  0.000000D+00
     38  0.000000D+00  0.000000D+00  0.000000D+00  0.000000D+00 -0.226611D-02
     39 -0.774156D-03 -0.942729D-02 -0.893223D-02 -0.109666D-02  0.000000D+00
     40 -0.118671D-03 -0.322785D-02 -0.274108D-02  0.333366D-02  0.000000D+00
     41 -0.912148D-05 -0.761420D-03 -0.117561D-02  0.308983D-03  0.000000D+00
     42  0.000000D+00 -0.997832D-05  0.320634D-04  0.454197D-05  0.000000D+00
     43 -0.997832D-05 -0.160286D-02  0.261572D-02  0.370532D-03  0.000000D+00
     44 -0.320634D-04 -0.261572D-02  0.387963D-02  0.614197D-03  0.000000D+00
     45 -0.454197D-05 -0.370532D-03  0.614197D-03 -0.369209D-03  0.000000D+00
     46  0.000000D+00  0.000000D+00  0.000000D+00  0.000000D+00 -0.456213D-03
     47 -0.146786D-04 -0.993327D-03  0.153060D-02 -0.204761D-03  0.000000D+00
     48  0.000000D+00  0.000000D+00  0.000000D+00  0.000000D+00  0.000000D+00
     49  0.000000D+00 -0.465848D-04  0.993711D-04  0.296647D-04  0.000000D+00
     50  0.000000D+00 -0.993711D-04  0.197524D-03  0.628849D-04  0.000000D+00
     51  0.000000D+00 -0.296647D-04  0.628849D-04  0.564434D-05  0.000000D+00
     52  0.000000D+00  0.000000D+00  0.000000D+00  0.000000D+00 -0.131283D-04
     53  0.000000D+00 -0.373740D-04  0.666363D-04  0.362623D-04  0.000000D+00
     54  0.000000D+00 -0.356352D-05  0.817059D-05  0.154834D-05  0.000000D+00
     55 -0.316342D-04 -0.842910D-02  0.115691D-01 -0.195463D-02  0.000000D+00
     56 -0.842910D-02  0.446410D-01 -0.145073D+00  0.245104D-01  0.713522D-05
     57 -0.115691D-01  0.145073D+00 -0.294660D+00  0.621202D-01  0.180838D-04
     58  0.195463D-02 -0.245104D-01  0.621202D-01  0.625231D-01 -0.305531D-05
     59  0.000000D+00 -0.713522D-05  0.180838D-04 -0.305531D-05  0.730185D-01
     60 -0.230184D-02 -0.149803D-01  0.822714D-03 -0.592024D-03  0.000000D+00
               26            27            28            29            30 
     26  0.760032D+00
     27 -0.107569D-01  0.760032D+00
     28 -0.111247D-03 -0.562589D-03  0.760032D+00
     29  0.000000D+00 -0.102163D-02 -0.843053D-03  0.158911D+02
     30 -0.204284D-03 -0.109951D-01 -0.988851D-02 -0.858900D-01  0.472250D+00
     31  0.349581D-03  0.695297D-02  0.421698D-02  0.000000D+00  0.000000D+00
     32  0.108588D-03  0.619467D-02 -0.810937D-02  0.000000D+00  0.000000D+00
     33  0.000000D+00  0.000000D+00  0.000000D+00  0.000000D+00  0.000000D+00
     34  0.000000D+00 -0.150351D-04 -0.853730D-03 -0.784699D-04 -0.834200D-02
     35 -0.362237D-05 -0.100676D-02 -0.995818D-02 -0.834200D-02  0.569552D-01
     36  0.779633D-05  0.116744D-02  0.752908D-02  0.762674D-02 -0.126548D+00
     37  0.324856D-05  0.103919D-02 -0.521415D-02  0.677676D-02 -0.112445D+00
     38  0.000000D+00  0.000000D+00  0.000000D+00  0.000000D+00  0.000000D+00
     39 -0.237320D-05 -0.224490D-03 -0.113864D-01 -0.235708D-02 -0.148900D-01
     40 -0.231277D-03 -0.112520D-01 -0.153903D-02 -0.108691D-01  0.103491D+00
     41  0.000000D+00 -0.236544D-03 -0.160265D-02 -0.239246D-02 -0.148132D-01
     42 -0.843022D-03  0.000000D+00  0.000000D+00  0.000000D+00  0.000000D+00
     43 -0.988831D-02 -0.178569D-03 -0.204273D-03  0.000000D+00 -0.155892D-05
     44 -0.421701D-02 -0.255762D-03 -0.349564D-03  0.000000D+00 -0.412051D-05
     45  0.810930D-02  0.197982D-03 -0.108582D-03  0.000000D+00  0.000000D+00
     46  0.000000D+00  0.000000D+00  0.000000D+00  0.000000D+00  0.000000D+00
     47 -0.153889D-02 -0.198562D-04 -0.231194D-03  0.000000D+00  0.000000D+00
     48 -0.853997D-03  0.000000D+00  0.000000D+00  0.000000D+00  0.000000D+00
     49 -0.995992D-02 -0.516744D-04 -0.362288D-05  0.000000D+00  0.000000D+00
     50 -0.752953D-02 -0.945322D-04 -0.779730D-05  0.000000D+00  0.000000D+00
     51  0.521428D-02  0.398916D-04 -0.324919D-05  0.000000D+00  0.000000D+00
     52  0.000000D+00  0.000000D+00  0.000000D+00  0.000000D+00  0.000000D+00
     53 -0.113857D-01 -0.265880D-03 -0.237428D-05  0.000000D+00  0.000000D+00
     54 -0.160317D-02 -0.271896D-05  0.000000D+00  0.000000D+00  0.000000D+00
     55 -0.146832D-03 -0.274173D-04 -0.231015D-02  0.000000D+00 -0.866142D-05
     56 -0.364453D-02 -0.140986D-02 -0.149690D-01 -0.866142D-05 -0.149695D-02
     57  0.153650D-02 -0.725973D-03 -0.841566D-03 -0.248111D-04 -0.217514D-02
     58  0.451424D-02  0.198188D-02 -0.251571D-03  0.137423D-04  0.120477D-02
     59  0.000000D+00  0.000000D+00  0.000000D+00  0.000000D+00  0.000000D+00
     60 -0.562582D-03 -0.113872D-03 -0.107565D-01  0.000000D+00 -0.178550D-03
               31            32            33            34            35 
     31  0.147773D+01
     32  0.000000D+00  0.147773D+01
     33  0.000000D+00  0.000000D+00  0.147773D+01
     34 -0.762674D-02 -0.677676D-02  0.000000D+00  0.158911D+02
     35  0.126548D+00  0.112445D+00  0.000000D+00 -0.858900D-01  0.472250D+00
     36 -0.151351D+00 -0.214531D+00  0.000000D+00  0.000000D+00  0.000000D+00
     37 -0.214531D+00 -0.100534D+00  0.000000D+00  0.000000D+00  0.000000D+00
     38  0.000000D+00  0.000000D+00  0.900880D-01  0.000000D+00  0.000000D+00
     39 -0.344910D-04 -0.816915D-04  0.000000D+00 -0.107274D-01  0.104925D+00
     40  0.558588D-01 -0.248597D+00  0.158295D-04 -0.244272D-02 -0.146786D-01
     41  0.515469D-03  0.143045D-03  0.000000D+00 -0.107359D-01  0.104841D+00
     42  0.000000D+00  0.000000D+00  0.000000D+00  0.000000D+00  0.000000D+00
     43  0.412051D-05  0.000000D+00  0.000000D+00  0.000000D+00  0.000000D+00
     44  0.103720D-04 -0.205492D-05  0.000000D+00  0.000000D+00  0.000000D+00
     45 -0.205492D-05  0.000000D+00  0.000000D+00  0.000000D+00  0.000000D+00
     46  0.000000D+00  0.000000D+00  0.000000D+00  0.000000D+00  0.000000D+00
     47  0.151684D-05  0.000000D+00  0.000000D+00  0.000000D+00  0.000000D+00
     48  0.000000D+00  0.000000D+00  0.000000D+00  0.000000D+00  0.000000D+00
     49  0.000000D+00  0.000000D+00  0.000000D+00  0.000000D+00  0.000000D+00
     50  0.000000D+00  0.000000D+00  0.000000D+00  0.000000D+00  0.000000D+00
     51  0.000000D+00  0.000000D+00  0.000000D+00  0.000000D+00  0.000000D+00
     52  0.000000D+00  0.000000D+00  0.000000D+00  0.000000D+00  0.000000D+00
     53  0.000000D+00  0.000000D+00  0.000000D+00  0.000000D+00  0.000000D+00
     54  0.000000D+00  0.000000D+00  0.000000D+00  0.000000D+00  0.000000D+00
     55  0.248111D-04 -0.137423D-04  0.000000D+00  0.000000D+00  0.000000D+00
     56  0.217514D-02 -0.120477D-02  0.000000D+00  0.000000D+00 -0.257346D-03
     57  0.278334D-02 -0.177734D-02  0.000000D+00  0.000000D+00 -0.492934D-03
     58 -0.177734D-02  0.558882D-03  0.000000D+00  0.000000D+00  0.109490D-03
     59  0.000000D+00  0.000000D+00 -0.425548D-03  0.000000D+00  0.000000D+00
     60  0.255738D-03 -0.197961D-03  0.000000D+00  0.000000D+00 -0.516431D-04
               36            37            38            39            40 
     36  0.147773D+01
     37  0.000000D+00  0.147773D+01
     38  0.000000D+00  0.000000D+00  0.147773D+01
     39 -0.401402D-01  0.254367D+00 -0.247570D-04  0.760032D+00
     40 -0.528805D-03 -0.136178D-02  0.000000D+00 -0.575611D-02  0.760032D+00
     41  0.245904D+00 -0.759168D-01  0.484233D-04 -0.773129D-02 -0.109618D-01
     42  0.000000D+00  0.000000D+00  0.000000D+00  0.000000D+00  0.000000D+00
     43  0.000000D+00  0.000000D+00  0.000000D+00  0.000000D+00  0.000000D+00
     44  0.000000D+00  0.000000D+00  0.000000D+00  0.000000D+00 -0.151746D-05
     45  0.000000D+00  0.000000D+00  0.000000D+00  0.000000D+00  0.000000D+00
     46  0.000000D+00  0.000000D+00  0.000000D+00  0.000000D+00  0.000000D+00
     47  0.000000D+00  0.000000D+00  0.000000D+00  0.000000D+00  0.000000D+00
     48  0.000000D+00  0.000000D+00  0.000000D+00  0.000000D+00  0.000000D+00
     49  0.000000D+00  0.000000D+00  0.000000D+00  0.000000D+00  0.000000D+00
     50  0.000000D+00  0.000000D+00  0.000000D+00  0.000000D+00  0.000000D+00
     51  0.000000D+00  0.000000D+00  0.000000D+00  0.000000D+00  0.000000D+00
     52  0.000000D+00  0.000000D+00  0.000000D+00  0.000000D+00  0.000000D+00
     53  0.000000D+00  0.000000D+00  0.000000D+00  0.000000D+00  0.000000D+00
     54  0.000000D+00  0.000000D+00  0.000000D+00  0.000000D+00  0.000000D+00
     55  0.000000D+00  0.000000D+00  0.000000D+00 -0.805872D-05 -0.100524D-05
     56  0.492934D-03 -0.109490D-03  0.000000D+00 -0.710550D-03 -0.222807D-03
     57  0.872308D-03 -0.209766D-03  0.000000D+00 -0.114151D-02 -0.307376D-03
     58 -0.209766D-03 -0.254898D-04  0.000000D+00 -0.304830D-04  0.250390D-03
     59  0.000000D+00  0.000000D+00 -0.720827D-04  0.000000D+00  0.000000D+00
     60  0.944784D-04 -0.398703D-04  0.000000D+00 -0.265679D-03 -0.198584D-04
               41            42            43            44            45 
     41  0.760032D+00
     42  0.000000D+00  0.158911D+02
     43  0.000000D+00 -0.858900D-01  0.472250D+00
     44  0.000000D+00  0.000000D+00  0.000000D+00  0.147773D+01
     45  0.000000D+00  0.000000D+00  0.000000D+00  0.000000D+00  0.147773D+01
     46  0.000000D+00  0.000000D+00  0.000000D+00  0.000000D+00  0.000000D+00
     47  0.000000D+00 -0.108693D-01  0.103489D+00 -0.558856D-01  0.248586D+00
     48  0.000000D+00 -0.784722D-04 -0.834199D-02  0.762582D-02  0.677767D-02
     49  0.000000D+00 -0.834199D-02  0.569557D-01 -0.126535D+00 -0.112461D+00
     50  0.000000D+00 -0.762582D-02  0.126535D+00 -0.151297D+00 -0.214538D+00
     51  0.000000D+00 -0.677767D-02  0.112461D+00 -0.214538D+00 -0.100588D+00
     52  0.000000D+00  0.000000D+00  0.220495D-05 -0.420629D-05 -0.373846D-05
     53  0.000000D+00 -0.235705D-02 -0.148900D-01  0.346968D-04  0.822088D-04
     54  0.000000D+00 -0.239243D-02 -0.148133D-01 -0.514930D-03 -0.142968D-03
     55  0.000000D+00  0.000000D+00 -0.176408D-02 -0.283851D-02 -0.910378D-03
     56 -0.131942D-04 -0.176408D-02 -0.163253D-01 -0.115141D-01 -0.369284D-02
     57 -0.278254D-04  0.283851D-02  0.115141D-01 -0.380543D-02  0.664030D-04
     58  0.664655D-05  0.910378D-03  0.369284D-02  0.664030D-04 -0.399117D-02
     59  0.000000D+00  0.000000D+00  0.000000D+00  0.000000D+00  0.000000D+00
     60 -0.271710D-05 -0.102168D-02 -0.109954D-01 -0.695290D-02 -0.619476D-02
               46            47            48            49            50 
     46  0.147773D+01
     47  0.176850D-04  0.760032D+00
     48  0.000000D+00 -0.244269D-02  0.158911D+02
     49 -0.220495D-05 -0.146787D-01 -0.858900D-01  0.472250D+00
     50 -0.420629D-05  0.528406D-03  0.000000D+00  0.000000D+00  0.147773D+01
     51 -0.373846D-05  0.136125D-02  0.000000D+00  0.000000D+00  0.000000D+00
     52  0.900886D-01  0.000000D+00  0.000000D+00  0.000000D+00  0.000000D+00
     53  0.000000D+00 -0.575588D-02 -0.107280D-01  0.104920D+00  0.401704D-01
     54  0.000000D+00 -0.109616D-01 -0.107361D-01  0.104839D+00 -0.245911D+00
     55  0.000000D+00 -0.112966D-02  0.000000D+00 -0.117176D-04 -0.338163D-04
     56  0.000000D+00 -0.116077D-01 -0.117176D-04 -0.173208D-02 -0.254220D-02
     57  0.000000D+00  0.922543D-02  0.338163D-04  0.254220D-02  0.329800D-02
     58  0.000000D+00 -0.106419D-02  0.165176D-04  0.124174D-02  0.185206D-02
     59 -0.401247D-02  0.000000D+00  0.000000D+00  0.000000D+00  0.000000D+00
     60  0.000000D+00 -0.112517D-01 -0.150367D-04 -0.100681D-02 -0.116744D-02
               51            52            53            54            55 
     51  0.147773D+01
     52  0.000000D+00  0.147773D+01
     53 -0.254353D+00 -0.152701D-05  0.760032D+00
     54  0.758810D-01  0.158965D-04 -0.773151D-02  0.760032D+00
     55 -0.165176D-04  0.000000D+00 -0.675833D-05 -0.101909D-05  0.158911D+02
     56 -0.124174D-02  0.000000D+00 -0.644102D-03 -0.224512D-03 -0.858900D-01
     57  0.185206D-02  0.000000D+00  0.796387D-03  0.382312D-03  0.000000D+00
     58  0.410940D-03  0.000000D+00  0.676326D-03  0.115022D-03  0.000000D+00
     59  0.000000D+00 -0.493703D-03  0.000000D+00  0.000000D+00  0.000000D+00
     60 -0.103930D-02  0.000000D+00 -0.224530D-03 -0.236513D-03 -0.108140D-01
               56            57            58            59            60 
     56  0.472250D+00
     57  0.000000D+00  0.147773D+01
     58  0.000000D+00  0.000000D+00  0.147773D+01
     59  0.000000D+00  0.000000D+00  0.000000D+00  0.147773D+01
     60  0.104057D+00 -0.876630D-01  0.240385D+00 -0.125283D-04  0.760032D+00
 Entering OneElI...
 Calculate potential energy integrals
    NBasis =  60  MinDer = 0  MaxDer = 0
 Requested accuracy = 0.1000D-12
 PrsmSu:  NPrtUS=   1 ThrOK=F IAlg=1
 PRISM was handed    13055638 working-precision words and   418 shell-pairs
 IPart=  0 NShTot=        8360 NBatch=         418 AvBLen=        20.0
 ***** Potential Energy ***** 
                1             2             3             4             5 
      1  0.481639D+02
      2  0.779627D+01  0.196675D+02
      3  0.474444D-01  0.544679D+00  0.199913D+02
      4 -0.130906D-01 -0.151609D+00 -0.164972D-01  0.198051D+02
[...]
  32        2PY         0.00002  -0.00262  -0.00152  -0.00119   0.00000
  33        2PZ         0.00000   0.00000   0.00000   0.00000  -0.00084
  34 10  C  1S          0.00000   0.00000   0.00000   0.00000   0.00000
  35        2S          0.00000  -0.00045  -0.00075  -0.00002   0.00000
  36        2PX         0.00000  -0.00065  -0.00070  -0.00008   0.00000
  37        2PY         0.00000  -0.00008  -0.00021  -0.00010   0.00000
  38        2PZ         0.00000   0.00000   0.00000   0.00000  -0.00093
  39 11  H  1S          0.00000  -0.00026  -0.00016  -0.00014   0.00000
  40 12  H  1S          0.00000   0.00034   0.00021   0.00054   0.00000
  41 13  H  1S          0.00000   0.00001   0.00002  -0.00001   0.00000
  42 14  C  1S          0.00000   0.00000   0.00000   0.00000   0.00000
  43        2S          0.00000   0.00007   0.00022   0.00000   0.00000
  44        2PX         0.00000   0.00017   0.00039  -0.00001   0.00000
  45        2PY         0.00000   0.00000   0.00000   0.00000   0.00000
  46        2PZ         0.00000   0.00000   0.00000   0.00000  -0.00002
  47 15  H  1S          0.00000   0.00001   0.00002   0.00000   0.00000
  48 16  C  1S          0.00000   0.00000   0.00000   0.00000   0.00000
  49        2S          0.00000   0.00000   0.00000   0.00000   0.00000
  50        2PX         0.00000   0.00000   0.00000   0.00000   0.00000
  51        2PY         0.00000   0.00000   0.00000   0.00000   0.00000
  52        2PZ         0.00000   0.00000   0.00000   0.00000   0.00000
  53 17  H  1S          0.00000   0.00000   0.00000   0.00000   0.00000
  54 18  H  1S          0.00000   0.00000   0.00000   0.00000   0.00000
  55 19  C  1S          0.00000  -0.00249  -0.00698  -0.00017   0.00000
  56        2S         -0.00249   0.03229   0.11120   0.00209   0.00000
  57        2PX        -0.00694   0.10982   0.14057   0.00699   0.00000
  58        2PY        -0.00023   0.00418   0.00704   0.00146   0.00000
  59        2PZ         0.00000   0.00000   0.00000   0.00000   0.11262
  60 20  H  1S          0.00015  -0.00997  -0.00996  -0.00543   0.00000
                          26        27        28        29        30
  26 6   H  1S          0.58698
  27 7   H  1S         -0.00382   0.58888
  28 8   H  1S          0.00000  -0.00003   0.58698
  29 9   C  1S          0.00000   0.00002   0.00001   2.06714
  30        2S          0.00000  -0.00187  -0.00122  -0.05110   0.83167
  31        2PX        -0.00001  -0.00182  -0.00094   0.00000   0.00000
  32        2PY         0.00000  -0.00023  -0.00090   0.00000   0.00000
  33        2PZ         0.00000   0.00000   0.00000   0.00000   0.00000
  34 10  C  1S          0.00000   0.00000   0.00000   0.00000  -0.00318
  35        2S          0.00000   0.00001  -0.00039  -0.00318   0.03636
  36        2PX         0.00000   0.00002   0.00034  -0.00502   0.07059
  37        2PY         0.00000   0.00000  -0.00056  -0.00372   0.05025
  38        2PZ         0.00000   0.00000   0.00000   0.00000   0.00000
  39 11  H  1S          0.00000   0.00000   0.00056   0.00014  -0.00773
  40 12  H  1S          0.00000   0.00103   0.00002  -0.00677   0.13496
  41 13  H  1S          0.00000   0.00000  -0.00002   0.00017  -0.00976
  42 14  C  1S          0.00001   0.00000   0.00000   0.00000   0.00000
  43        2S         -0.00122   0.00000   0.00000   0.00000   0.00000
  44        2PX        -0.00094  -0.00001  -0.00001   0.00000   0.00000
  45        2PY        -0.00090   0.00000   0.00000   0.00000   0.00000
  46        2PZ         0.00000   0.00000   0.00000   0.00000   0.00000
  47 15  H  1S          0.00002   0.00000   0.00000   0.00000   0.00000
  48 16  C  1S          0.00000   0.00000   0.00000   0.00000   0.00000
  49        2S         -0.00039   0.00000   0.00000   0.00000   0.00000
  50        2PX         0.00034   0.00000   0.00000   0.00000   0.00000
  51        2PY        -0.00056   0.00000   0.00000   0.00000   0.00000
  52        2PZ         0.00000   0.00000   0.00000   0.00000   0.00000
  53 17  H  1S          0.00056   0.00000   0.00000   0.00000   0.00000
  54 18  H  1S         -0.00002   0.00000   0.00000   0.00000   0.00000
  55 19  C  1S          0.00000   0.00000   0.00015   0.00000   0.00000
  56        2S          0.00042   0.00001  -0.00998   0.00000   0.00006
  57        2PX         0.00019   0.00001  -0.01412   0.00000   0.00015
  58        2PY         0.00073   0.00002  -0.00132   0.00000   0.00002
  59        2PZ         0.00000   0.00000   0.00000   0.00000   0.00000
  60 20  H  1S         -0.00003   0.00000  -0.00382   0.00000   0.00000
                          31        32        33        34        35
  31        2PX         0.59083
  32        2PY         0.00000   0.62422
  33        2PZ         0.00000   0.00000   0.78660
  34 10  C  1S         -0.00468  -0.00407   0.00000   2.06711
  35        2S          0.06117   0.05837   0.00000  -0.05059   0.81914
  36        2PX         0.01795   0.06860   0.00000   0.00000   0.00000
  37        2PY         0.06516   0.00249   0.00000   0.00000   0.00000
  38        2PZ         0.00000   0.00000   0.17898   0.00000   0.00000
  39 11  H  1S         -0.00193  -0.01429   0.00000  -0.00692   0.13642
  40 12  H  1S          0.01259   0.24548   0.00000   0.00018  -0.01097
  41 13  H  1S         -0.01368  -0.00078   0.00000  -0.00698   0.13962
  42 14  C  1S          0.00000   0.00000   0.00000   0.00000   0.00000
  43        2S          0.00000   0.00000   0.00000   0.00000   0.00000
  44        2PX         0.00000   0.00000   0.00000   0.00000   0.00000
  45        2PY         0.00000   0.00000   0.00000   0.00000   0.00000
  46        2PZ         0.00000   0.00000   0.00000   0.00000   0.00000
  47 15  H  1S          0.00000   0.00000   0.00000   0.00000   0.00000
  48 16  C  1S          0.00000   0.00000   0.00000   0.00000   0.00000
  49        2S          0.00000   0.00000   0.00000   0.00000   0.00000
  50        2PX         0.00000   0.00000   0.00000   0.00000   0.00000
  51        2PY         0.00000   0.00000   0.00000   0.00000   0.00000
  52        2PZ         0.00000   0.00000   0.00000   0.00000   0.00000
  53 17  H  1S          0.00000   0.00000   0.00000   0.00000   0.00000
  54 18  H  1S          0.00000   0.00000   0.00000   0.00000   0.00000
  55 19  C  1S          0.00000   0.00000   0.00000   0.00000   0.00000
  56        2S          0.00013   0.00003   0.00000   0.00000   0.00000
  57        2PX         0.00028   0.00006   0.00000   0.00000   0.00000
  58        2PY         0.00003   0.00000   0.00000   0.00000   0.00000
  59        2PZ         0.00000   0.00000  -0.00002   0.00000   0.00000
  60 20  H  1S         -0.00001   0.00000   0.00000   0.00000   0.00000
                          36        37        38        39        40
  36        2PX         0.61479
  37        2PY         0.00000   0.62030
  38        2PZ         0.00000   0.00000   0.82965
  39 11  H  1S          0.00739   0.24907   0.00000   0.58674
  40 12  H  1S         -0.00183  -0.01505   0.00000   0.00204   0.59549
  41 13  H  1S          0.23111   0.02452   0.00000  -0.02373  -0.00509
  42 14  C  1S          0.00000   0.00000   0.00000   0.00000   0.00000
  43        2S          0.00000   0.00000   0.00000   0.00000   0.00000
  44        2PX         0.00000   0.00000   0.00000   0.00000   0.00000
  45        2PY         0.00000   0.00000   0.00000   0.00000   0.00000
  46        2PZ         0.00000   0.00000   0.00000   0.00000   0.00000
  47 15  H  1S          0.00000   0.00000   0.00000   0.00000   0.00000
  48 16  C  1S          0.00000   0.00000   0.00000   0.00000   0.00000
  49        2S          0.00000   0.00000   0.00000   0.00000   0.00000
  50        2PX         0.00000   0.00000   0.00000   0.00000   0.00000
  51        2PY         0.00000   0.00000   0.00000   0.00000   0.00000
  52        2PZ         0.00000   0.00000   0.00000   0.00000   0.00000
  53 17  H  1S          0.00000   0.00000   0.00000   0.00000   0.00000
  54 18  H  1S          0.00000   0.00000   0.00000   0.00000   0.00000
  55 19  C  1S          0.00000   0.00000   0.00000   0.00000   0.00000
  56        2S          0.00000   0.00000   0.00000   0.00000  -0.00001
  57        2PX         0.00000   0.00000   0.00000  -0.00001  -0.00001
  58        2PY         0.00000   0.00000   0.00000   0.00000   0.00000
  59        2PZ         0.00000   0.00000   0.00000   0.00000   0.00000
  60 20  H  1S          0.00000   0.00000   0.00000   0.00000   0.00000
                          41        42        43        44        45
  41 13  H  1S          0.58395
  42 14  C  1S          0.00000   2.06714
  43        2S          0.00000  -0.05110   0.83168
  44        2PX         0.00000   0.00000   0.00000   0.59083
  45        2PY         0.00000   0.00000   0.00000   0.00000   0.62421
  46        2PZ         0.00000   0.00000   0.00000   0.00000   0.00000
  47 15  H  1S          0.00000  -0.00677   0.13496   0.01260   0.24546
  48 16  C  1S          0.00000   0.00000  -0.00318  -0.00467  -0.00407
  49        2S          0.00000  -0.00318   0.03636   0.06116   0.05839
  50        2PX         0.00000  -0.00502   0.07057   0.01793   0.06860
  51        2PY         0.00000  -0.00372   0.05026   0.06517   0.00251
  52        2PZ         0.00000   0.00000   0.00000   0.00000   0.00000
  53 17  H  1S          0.00000   0.00014  -0.00773  -0.00193  -0.01429
  54 18  H  1S          0.00000   0.00017  -0.00976  -0.01368  -0.00078
  55 19  C  1S          0.00000   0.00000   0.00003   0.00006   0.00001
  56        2S          0.00000   0.00003  -0.00376  -0.00596  -0.00101
  57        2PX         0.00000   0.00007  -0.00714  -0.00756  -0.00043
  58        2PY         0.00000   0.00000  -0.00032  -0.00184  -0.00012
  59        2PZ         0.00000   0.00000   0.00000   0.00000   0.00000
  60 20  H  1S          0.00000   0.00002  -0.00187  -0.00182  -0.00023
                          46        47        48        49        50
  46        2PZ         0.78660
  47 15  H  1S          0.00000   0.59548
  48 16  C  1S          0.00000   0.00018   2.06711
  49        2S          0.00000  -0.01096  -0.05059   0.81915
  50        2PX         0.00000  -0.00183   0.00000   0.00000   0.61480
  51        2PY         0.00000  -0.01505   0.00000   0.00000   0.00000
  52        2PZ         0.17898   0.00000   0.00000   0.00000   0.00000
  53 17  H  1S          0.00000   0.00204  -0.00692   0.13642   0.00740
  54 18  H  1S          0.00000  -0.00509  -0.00698   0.13961   0.23113
  55 19  C  1S          0.00000   0.00002   0.00000   0.00000   0.00000
  56        2S          0.00000  -0.00194   0.00000   0.00007   0.00015
  57        2PX         0.00000  -0.00216   0.00000   0.00014   0.00017
  58        2PY         0.00000   0.00011   0.00000   0.00004   0.00008
  59        2PZ        -0.00083   0.00000   0.00000   0.00000   0.00000
  60 20  H  1S          0.00000   0.00103   0.00000   0.00001   0.00002
                          51        52        53        54        55
  51        2PY         0.62030
  52        2PZ         0.00000   0.82964
  53 17  H  1S          0.24906   0.00000   0.58674
  54 18  H  1S          0.02450   0.00000  -0.02373   0.58396
  55 19  C  1S          0.00000   0.00000   0.00000   0.00000   2.06693
  56        2S          0.00005   0.00000   0.00000   0.00000  -0.05107
  57        2PX         0.00009   0.00000   0.00000  -0.00001   0.00000
  58        2PY         0.00001   0.00000   0.00001   0.00000   0.00000
  59        2PZ         0.00000  -0.00012   0.00000   0.00000   0.00000
  60 20  H  1S          0.00000   0.00000   0.00000   0.00000  -0.00694
                          56        57        58        59        60
  56        2S          0.83247
  57        2PX         0.00000   0.60280
  58        2PY         0.00000   0.00000   0.61602
  59        2PZ         0.00000   0.00000   0.00000   0.79897
  60 20  H  1S          0.13971   0.02963   0.22553   0.00000   0.58888
     Gross orbital populations:
                           1
   1 1   C  1S          1.99066
   2        2S          1.14605
   3        2PX         0.92978
   4        2PY         0.94471
   5        2PZ         0.99332
   6 2   C  1S          1.99077
   7        2S          1.15783
   8        2PX         0.96205
   9        2PY         0.96547
  10        2PZ         1.00103
  11 3   C  1S          1.99080
  12        2S          1.16018
  13        2PX         0.95066
  14        2PY         0.97360
  15        2PZ         1.00137
  16 4   C  1S          1.99066
  17        2S          1.14605
  18        2PX         0.92978
  19        2PY         0.94470
  20        2PZ         0.99333
  21 5   C  1S          1.99077
  22        2S          1.15783
  23        2PX         0.96205
  24        2PY         0.96547
  25        2PZ         1.00103
  26 6   H  1S          0.92078
  27 7   H  1S          0.92230
  28 8   H  1S          0.92078
  29 9   C  1S          1.99088
  30        2S          1.16279
  31        2PX         0.93570
  32        2PY         0.98895
  33        2PZ         0.99805
  34 10  C  1S          1.99097
  35        2S          1.17796
  36        2PX         0.98795
  37        2PY         0.99172
  38        2PZ         1.00622
  39 11  H  1S          0.92367
  40 12  H  1S          0.92312
  41 13  H  1S          0.92065
  42 14  C  1S          1.99088
  43        2S          1.16280
  44        2PX         0.93569
  45        2PY         0.98895
  46        2PZ         0.99806
  47 15  H  1S          0.92312
  48 16  C  1S          1.99097
  49        2S          1.17797
  50        2PX         0.98795
  51        2PY         0.99171
  52        2PZ         1.00621
  53 17  H  1S          0.92367
  54 18  H  1S          0.92066
  55 19  C  1S          1.99080
  56        2S          1.16018
  57        2PX         0.95066
  58        2PY         0.97360
  59        2PZ         1.00138
  60 20  H  1S          0.92230
          Condensed to atoms (all electrons):
 Mulliken atomic charges:
              1
     1  C   -0.004510
     2  C   -0.077146
     3  C   -0.076612
     4  C   -0.004513
     5  C   -0.077146
     6  H    0.079221
     7  H    0.077697
     8  H    0.079222
     9  C   -0.076378
    10  C   -0.154825
    11  H    0.076330
    12  H    0.076876
    13  H    0.079347
    14  C   -0.076379
    15  H    0.076879
    16  C   -0.154817
    17  H    0.076328
    18  H    0.079343
    19  C   -0.076615
    20  H    0.077699
 Sum of Mulliken atomic charges =   0.00000
 Mulliken charges with hydrogens summed into heavy atoms:
              1
     1  C   -0.004510
     2  C    0.002075
     3  C    0.001085
     4  C   -0.004513
     5  C    0.002076
     9  C    0.000498
    10  C    0.000851
    14  C    0.000500
    16  C    0.000854
    19  C    0.001084
 Sum of Mulliken charges with hydrogens summed into heavy atoms =   0.00000
 Orbital energies and kinetic energies (alpha):
                                 1                 2
   1         O               -10.020216         15.582573
   2         O               -10.020169         15.584080
   3         O               -10.008114         15.591092
   4         O               -10.008112         15.591122
   5         O               -10.006792         15.571084
   6         O               -10.006787         15.568830
   7         O               -10.006058         15.606104
   8         O               -10.005920         15.612956
   9         O                -9.992329         15.591272
  10         O                -9.992329         15.591272
  11         O                -0.809501          1.390116
  12         O                -0.753986          1.449048
  13         O                -0.717964          1.461316
  14         O                -0.699783          1.499710
  15         O                -0.667508          1.556838
  16         O                -0.588696          1.334429
  17         O                -0.558932          1.348882
  18         O                -0.531665          1.322552
  19         O                -0.510165          1.167665
  20         O                -0.457442          1.024722
  21         O                -0.439358          1.071873
  22         O                -0.410614          1.266549
  23         O                -0.397951          1.148584
  24         O                -0.396064          1.143497
  25         O                -0.373976          1.158130
  26         O                -0.351149          1.352455
  27         O                -0.347292          1.154104
  28         O                -0.324505          1.063813
  29         O                -0.311248          1.192907
  30         O                -0.292801          1.406830
  31         O                -0.287450          1.322918
  32         O                -0.263550          1.181511
  33         O                -0.212444          1.284667
  34         O                -0.195053          1.322549
  35         O                -0.153079          1.407584
  36         V                 0.037405          1.701103
  37         V                 0.090361          1.818321
  38         V                 0.110609          1.833565
  39         V                 0.182211          2.013306
  40         V                 0.272521          2.211499
  41         V                 0.332240          2.264637
  42         V                 0.340730          2.045976
  43         V                 0.379402          2.596144
  44         V                 0.381455          2.165577
  45         V                 0.410983          2.780592
  46         V                 0.411966          2.766804
  47         V                 0.426735          2.318979
  48         V                 0.439640          3.171862
  49         V                 0.452756          2.757241
  50         V                 0.478244          2.948665
  51         V                 0.526247          2.915869
  52         V                 0.545795          2.898381
  53         V                 0.575992          2.717798
  54         V                 0.599417          3.193088
  55         V                 0.625016          3.001902
  56         V                 0.639664          2.962940
  57         V                 0.682854          3.184887
  58         V                 0.717220          3.430679
  59         V                 0.779533          3.437147
  60         V                 0.794573          3.512056
 Total kinetic energy from orbitals= 3.758472683986D+02

 Test job not archived.
 1\1\GINC-COMPUTE-2-0\SP\RB3LYP\STO-3G\C10H10\ADAM\31-Jan-2014\0\\#t b3
 lyp/sto-3g guess=read geom=allcheck pop=full iop(3/33=1,3/36=-1)\\DVB 
 scan dihedral\\0,1\C,0,0.1821211638,-1.4140344915,0.1684150775\C,0,-0.
 5116857701,-0.8952094604,-0.9581717777\C,0,-0.6882465879,0.4863173188,
 -1.1204946225\C,0,-0.1821513121,1.4140088725,-0.1683311093\C,0,0.51152
 88443,0.8951529375,0.9583504479\H,0,-0.9156569514,-1.5821600763,-1.712
 9311071\H,0,-1.2278093805,0.8652667393,-1.9993098947\H,0,0.9155069551,
 1.5821428051,1.713065894\C,0,-0.3985699679,2.8791220486,-0.3902134106\
 C,0,0.01233008,3.8800702199,0.4075105154\H,0,0.5687569452,3.7062200694
 ,1.3355743782\H,0,-0.9534631577,3.123266115,-1.3085938526\H,0,-0.19557
 4845,4.9271478725,0.1582907052\C,0,0.398680965,-2.8791473082,0.3902021
 838\H,0,0.9536938742,-3.1234054735,1.3084889363\C,0,-0.0122999075,-3.8
 799815424,-0.4076198204\H,0,-0.5688261894,-3.7059996944,-1.3356186536\
 H,0,0.1957689273,-4.9270965165,-0.158666039\C,0,0.6881836712,-0.486336
 0101,1.1206195516\H,0,1.2277126433,-0.8653444252,1.9994325979\\Version
 =IA32L-G09RevA.02\State=1-A\HF=-382.3082597\RMSD=1.157e-09\PG=C01 [X(C
 10H10)]\\@


 ONLY A FOOL KNOWS EVERYTHING.

               -- THE CHEMIST ANALYST, SEPTEMBER 1946
 Job cpu time:  0 days  0 hours  0 minutes  6.2 seconds.
 File lengths (MBytes):  RWF=      5 Int=      0 D2E=      0 Chk=      3 Scr=      1
 Normal termination of Gaussian 09 at Fri Jan 31 16:51:20 2014.
