 Entering Link 1 = C:\Programmi\G03W\l1.exe PID=       352.
  
 Copyright (c) 1988,1990,1992,1993,1995,1998,2003, Gaussian, Inc.
                  All Rights Reserved.
  
 This is the Gaussian(R) 03 program.  It is based on the
 the Gaussian(R) 98 system (copyright 1998, Gaussian, Inc.),
 the Gaussian(R) 94 system (copyright 1995, Gaussian, Inc.),
 the Gaussian 92(TM) system (copyright 1992, Gaussian, Inc.),
 the Gaussian 90(TM) system (copyright 1990, Gaussian, Inc.),
 the Gaussian 88(TM) system (copyright 1988, Gaussian, Inc.),
 the Gaussian 86(TM) system (copyright 1986, Carnegie Mellon
 University), and the Gaussian 82(TM) system (copyright 1983,
 Carnegie Mellon University). Gaussian is a federally registered
 trademark of Gaussian, Inc.
  
 This software contains proprietary and confidential information,
 including trade secrets, belonging to Gaussian, Inc.
  
 This software is provided under written license and may be
 used, copied, transmitted, or stored only in accord with that
 written license.
  
 The following legend is applicable only to US Government
 contracts under DFARS:
  
                    RESTRICTED RIGHTS LEGEND
  
 Use, duplication or disclosure by the US Government is subject
 to restrictions as set forth in subparagraph (c)(1)(ii) of the
 Rights in Technical Data and Computer Software clause at DFARS
 252.227-7013.
  
 Gaussian, Inc.
 Carnegie Office Park, Building 6, Pittsburgh, PA 15106 USA
  
 The following legend is applicable only to US Government
 contracts under FAR:
  
                    RESTRICTED RIGHTS LEGEND
  
 Use, reproduction and disclosure by the US Government is subject
 to restrictions as set forth in subparagraph (c) of the
 Commercial Computer Software - Restricted Rights clause at FAR
 52.227-19.
  
 Gaussian, Inc.
 Carnegie Office Park, Building 6, Pittsburgh, PA 15106 USA
  
  
 ---------------------------------------------------------------
 Warning -- This program may not be used in any manner that
 competes with the business of Gaussian, Inc. or will provide
 assistance to any competitor of Gaussian, Inc.  The licensee
 of this program is prohibited from giving any competitor of
 Gaussian, Inc. access to this program.  By using this program,
 the user acknowledges that Gaussian, Inc. is engaged in the
 business of creating and licensing software in the field of
 computational chemistry and represents and warrants to the
 licensee that it is not a competitor of Gaussian, Inc. and that
 it will not use this program in any manner prohibited above.
 ---------------------------------------------------------------
  

 Cite this work as:
 Gaussian 03, Revision B.05,
 M. J. Frisch, G. W. Trucks, H. B. Schlegel, G. E. Scuseria, 
 M. A. Robb, J. R. Cheeseman, J. A. Montgomery, Jr., T. Vreven, 
 K. N. Kudin, J. C. Burant, J. M. Millam, S. S. Iyengar, J. Tomasi, 
 V. Barone, B. Mennucci, M. Cossi, G. Scalmani, N. Rega, 
 G. A. Petersson, H. Nakatsuji, M. Hada, M. Ehara, K. Toyota, 
 R. Fukuda, J. Hasegawa, M. Ishida, T. Nakajima, Y. Honda, O. Kitao, 
 H. Nakai, M. Klene, X. Li, J. E. Knox, H. P. Hratchian, J. B. Cross, 
 C. Adamo, J. Jaramillo, R. Gomperts, R. E. Stratmann, O. Yazyev, 
 A. J. Austin, R. Cammi, C. Pomelli, J. W. Ochterski, P. Y. Ayala, 
 K. Morokuma, G. A. Voth, P. Salvador, J. J. Dannenberg, 
 V. G. Zakrzewski, S. Dapprich, A. D. Daniels, M. C. Strain, 
 O. Farkas, D. K. Malick, A. D. Rabuck, K. Raghavachari, 
 J. B. Foresman, J. V. Ortiz, Q. Cui, A. G. Baboul, S. Clifford, 
 J. Cioslowski, B. B. Stefanov, G. Liu, A. Liashenko, P. Piskorz, 
 I. Komaromi, R. L. Martin, D. J. Fox, T. Keith, M. A. Al-Laham, 
 C. Y. Peng, A. Nanayakkara, M. Challacombe, P. M. W. Gill, 
 B. Johnson, W. Chen, M. W. Wong, C. Gonzalez, and J. A. Pople, 
 Gaussian, Inc., Pittsburgh PA, 2003.
 
 **********************************************
 Gaussian 03:  x86-Win32-G03RevB.05  8-Nov-2003
                  16-Feb-2007 
 **********************************************
 %chk=opt_td
 %mem=92MW
 %nproc=1
 Will use up to    1 processors via shared memory.
 Default route:  MaxDisk=2000MB
 ----------------------------------------------
 # td=(nstates=10) b3lyp/TZVP geom=connectivity
 ----------------------------------------------
 1/38=1,57=2/1;
 2/17=6,18=5,40=1/2;
 3/5=19,7=101,11=2,16=1,25=1,30=1,74=-5/1,2,8,3;
 4//1;
 5/5=2,38=5/2;
 8/6=1,10=1,27=262144000/1;
 9/27=262144000,41=10,42=1/14;
 6/7=2,8=2,9=2,10=2/1;
 99/5=1,9=1/99;
 ------
 opt_td
 ------
 Symbolic Z-matrix:
 Charge =  0 Multiplicity = 1
 H
 C                    1    B1
 C                    2    B2       1    A1
 C                    2    B3       1    A2       3    D1       0
 C                    2    B4       1    A3       4    D2       0
 C                    3    B5       2    A4       1    D3       0
 C                    3    B6       2    A5       1    D4       0
 H                    5    B7       2    A6       1    D5       0
 H                    6    B8       3    A7       2    D6       0
 H                    7    B9       3    A8       2    D7       0
 H                    3    B10      2    A9       1    D8       0
 C                    4    B11      2    A10      1    D9       0
 C                    12   B12      4    A11      2    D10      0
 C                    13   B13      12   A12      4    D11      0
 H                    14   B14      13   A13      12   D12      0
 H                    14   B15      13   A14      12   D13      0
 H                    14   B16      13   A15      12   D14      0
 C                    12   B17      4    A16      2    D15      0
 H                    18   B18      12   A17      4    D16      0
 H                    18   B19      12   A18      4    D17      0
 H                    18   B20      12   A19      4    D18      0
 C                    13   B21      12   A20      4    D19      0
 H                    22   B22      13   A21      12   D20      0
 H                    22   B23      13   A22      12   D21      0
 H                    22   B24      13   A23      12   D22      0
 H                    12   B25      4    A24      2    D23      0
 C                    13   B26      12   A25      4    D24      0
 H                    27   B27      13   A26      12   D25      0
 H                    27   B28      13   A27      12   D26      0
 H                    27   B29      13   A28      12   D27      0
       Variables:
  B1                    1.08593                  
  B2                    2.7825                   
  B3                    1.40409                  
  B4                    1.39575                  
  B5                    1.39523                  
  B6                    1.39564                  
  B7                    1.0872                   
  B8                    1.08678                  
  B9                    1.08785                  
  B10                   1.08714                  
  B11                   1.52748                  
  B12                   1.57842                  
  B13                   1.54385                  
  B14                   1.0975                   
  B15                   1.09498                  
  B16                   1.09668                  
  B17                   1.54283                  
  B18                   1.0952                   
  B19                   1.09529                  
  B20                   1.09391                  
  B21                   1.54246                  
  B22                   1.09755                  
  B23                   1.09675                  
  B24                   1.09431                  
  B25                   1.0998                   
  B26                   1.54107                  
  B27                   1.09473                  
  B28                   1.0969                   
  B29                   1.09632                  
  A1                  178.59047                  
  A2                  119.83017                  
  A3                  118.9354                   
  A4                   60.48077                  
  A5                   59.61789                  
  A6                  119.58895                  
  A7                  120.39026                  
  A8                  119.3747                   
  A9                  179.22419                  
  A10                 122.35044                  
  A11                 114.13371                  
  A12                 109.34336                  
  A13                 111.35802                  
  A14                 112.3011                   
  A15                 110.18388                  
  A16                 110.94669                  
  A17                 110.02705                  
  A18                 112.55358                  
  A19                 111.45533                  
  A20                 109.36469                  
  A21                 111.23409                  
  A22                 110.34904                  
  A23                 111.84221                  
  A24                 105.98592                  
  A25                 112.74806                  
  A26                 111.73682                  
  A27                 109.93229                  
  A28                 112.09857                  
  D1                 -144.01423                  
  D2                  179.46456                  
  D3                   36.01692                  
  D4                 -144.11886                  
  D5                    0.52431                  
  D6                 -179.6846                   
  D7                  179.42611                  
  D8                 -111.8464                   
  D9                    0.08433                  
  D10                 -82.60079                  
  D11                -175.42281                  
  D12                  52.50606                  
  D13                 -68.74906                  
  D14                 171.765                    
  D15                  47.74615                  
  D16                  49.60059                  
  D17                 -70.07668                  
  D18                 168.95078                  
  D19                 -57.46928                  
  D20                 -58.4818                   
  D21                -177.75764                  
  D22                  62.17703                  
  D23                 162.74008                  
  D24                  63.4594                   
  D25                 -62.66034                  
  D26                 178.04636                  
  D27                  58.93486                  
 
                          Input orientation:                          
 ---------------------------------------------------------------------
 Center     Atomic     Atomic              Coordinates (Angstroms)
 Number     Number      Type              X           Y           Z
 ---------------------------------------------------------------------
    1          1             0        0.000000    0.000000    0.000000
    2          6             0        0.000000    0.000000    1.085929
    3          6             0        0.068445    0.000000    3.867584
    4          6             0       -0.985603   -0.715708    1.784366
    5          6             0        0.995065    0.708473    1.761224
    6          6             0        1.033266    0.713929    3.156184
    7          6             0       -0.924130   -0.705660    3.185927
    8          1             0        1.745373    1.253301    1.193592
    9          1             0        1.810039    1.262682    3.682100
   10          1             0       -1.666291   -1.264156    3.752234
   11          1             0        0.089708   -0.013663    4.954427
   12          6             0       -2.077616   -1.511035    1.071513
   13          6             0       -3.309044   -0.641070    0.604442
   14          6             0       -4.390356   -1.565686    0.005012
   15          1             0       -4.645114   -2.381508    0.693519
   16          1             0       -4.076570   -2.010506   -0.945069
   17          1             0       -5.308356   -0.998006   -0.189209
   18          6             0       -1.478332   -2.395665   -0.041415
   19          1             0       -0.632358   -2.970096    0.350773
   20          1             0       -1.110021   -1.810302   -0.890744
   21          1             0       -2.213837   -3.108488   -0.425555
   22          6             0       -3.921498    0.075457    1.825379
   23          1             0       -4.242069   -0.644481    2.589271
   24          1             0       -4.803708    0.653804    1.525244
   25          1             0       -3.210964    0.764914    2.291540
   26          1             0       -2.491382   -2.198662    1.823525
   27          6             0       -2.925421    0.419023   -0.446243
   28          1             0       -2.211976    1.146651   -0.046259
   29          1             0       -3.818321    0.971855   -0.762952
   30          1             0       -2.487112   -0.030692   -1.344883
 ---------------------------------------------------------------------
                    Distance matrix (angstroms):
                    1          2          3          4          5
     1  H    0.000000
     2  C    1.085929   0.000000
     3  C    3.868189   2.782497   0.000000
     4  C    2.160466   1.404089   2.441936   0.000000
     5  C    2.143362   1.395748   2.407761   2.439646   0.000000
     6  C    3.396886   2.421424   1.395229   2.828707   1.395494
     7  C    3.391475   2.400410   1.395642   1.402945   2.777204
     8  H    2.457997   2.151437   3.396039   3.418221   1.087200
     9  H    4.292839   3.407450   2.159148   3.915487   2.158957
    10  H    4.295798   3.388776   2.149583   2.153285   3.864998
    11  H    4.955258   3.869562   1.087137   3.420300   3.396718
    12  C    2.783497   2.569032   3.834947   1.527481   3.852699
    13  C    3.424339   3.404787   4.739884   2.606947   4.656691
    14  C    4.661183   4.784870   6.103421   3.934579   6.104003
    15  H    5.265893   5.234754   6.161486   4.166156   6.519172
    16  H    4.642598   4.978505   6.662200   4.322082   6.359116
    17  H    5.404670   5.549832   6.809080   4.760345   6.815378
    18  C    2.815385   3.032421   4.838595   2.529528   4.359229
    19  H    3.056859   3.124388   4.656239   2.694854   4.262599
    20  H    2.302774   2.901134   5.225674   2.893066   4.220018
    21  H    3.839905   4.104675   5.770836   3.481049   5.445020
    22  C    4.326182   3.991319   4.482850   3.040906   4.957562
    23  H    5.011470   4.546487   4.542022   3.355222   5.472086
    24  H    5.082267   4.867861   5.445355   4.064559   5.803831
    25  H    4.018276   3.514098   3.718001   2.720607   4.239706
    26  H    3.790296   3.403696   3.945251   2.113777   4.539893
    27  C    2.988779   3.328846   5.267629   3.166405   4.508537
    28  H    2.491944   2.736694   4.672611   2.885058   3.707305
    29  H    4.013250   4.352291   6.123178   4.166652   5.441464
    30  H    2.827610   3.477860   5.805310   3.537792   4.724386
                    6          7          8          9         10
     6  C    0.000000
     7  C    2.418164   0.000000
     8  H    2.156337   3.864347   0.000000
     9  H    1.086781   3.405325   2.489366   0.000000
    10  H    3.399369   1.087853   4.952140   4.298221   0.000000
    11  H    2.157166   2.152747   4.300035   2.491467   2.468307
    12  C    4.355905   2.539667   4.719290   5.442659   2.723307
    13  C    5.215657   3.515118   5.429813   6.269072   3.604923
    14  C    6.673996   4.782530   6.856135   7.743742   4.642534
    15  H    6.920293   4.781870   7.368869   7.992543   4.413343
    16  H    7.096003   5.357763   7.008661   8.171696   5.332085
    17  H    7.371469   5.540618   7.532304   8.412448   5.373122
    18  C    5.118822   3.684969   5.023193   6.169396   3.963258
    19  H    4.921045   3.640179   4.919454   5.914343   3.943246
    20  H    5.229059   4.227770   4.677969   6.235454   4.707968
    21  H    6.163068   4.525454   6.109188   7.222987   4.599488
    22  C    5.169950   3.383113   5.822362   6.140638   3.254734
    23  H    5.476845   3.371714   6.434202   6.438909   2.893287
    24  H    6.060846   4.433637   6.584820   6.983152   4.299005
    25  H    4.331709   2.862189   5.099930   5.233727   2.938838
    26  H    4.762595   2.557630   5.501177   5.825583   2.296518
    27  C    5.360565   4.296828   5.020098   6.338735   4.695285
    28  H    4.579792   3.941653   4.148399   5.485502   4.531922
    29  H    6.242120   5.175330   5.904402   7.177848   5.478857
    30  H    5.762563   4.840117   5.099649   6.738611   5.308086
                   11         12         13         14         15
    11  H    0.000000
    12  C    4.692168   0.000000
    13  C    5.555855   1.578420   0.000000
    14  C    6.853938   2.547387   1.543848   0.000000
    15  H    6.795629   2.737270   2.195937   1.097501   0.000000
    16  H    7.493284   2.883035   2.205773   1.094980   1.773656
    17  H    7.520972   3.505752   2.180489   1.096679   1.770078
    18  C    5.752488   1.542829   2.616724   3.028351   3.250975
    19  H    5.518651   2.176487   3.557156   4.026720   4.070151
    20  H    6.231636   2.208224   2.904891   3.409225   3.915744
    21  H    6.620307   2.193541   2.889381   2.702381   2.773434
    22  C    5.088090   2.546601   1.542465   2.495379   2.800251
    23  H    4.975559   2.781971   2.193192   2.747545   2.602611
    24  H    6.012515   3.510553   2.181421   2.721783   3.151196
    25  H    4.311796   2.820087   2.198343   3.471437   3.809256
    26  H    4.608557   1.099797   2.140287   2.704395   2.439039
    27  C    6.200440   2.597591   1.541072   2.507735   3.478415
    28  H    5.625917   2.886306   2.196115   3.479187   4.349177
    29  H    6.995167   3.544017   2.175007   2.712214   3.748324
    30  H    6.805997   2.863227   2.201818   2.792985   3.786607
                   16         17         18         19         20
    16  H    0.000000
    17  H    1.764590   0.000000
    18  C    2.777729   4.079752   0.000000
    19  H    3.802975   5.103497   1.095196   0.000000
    20  H    2.973793   4.333358   1.095291   1.764837   0.000000
    21  H    2.223788   3.753138   1.093914   1.767177   1.766380
    22  C    3.471408   2.671004   3.944671   4.718931   4.340256
    23  H    3.792753   2.996982   4.198261   4.842456   4.824870
    24  H    3.705364   2.433617   4.776171   5.649089   5.054913
    25  H    4.350618   3.696087   4.293479   4.936203   4.601374
    26  H    3.195831   3.664426   2.131451   2.494009   3.070218
    27  C    2.734334   2.784316   3.190677   4.168873   2.909149
    28  H    3.775210   3.769291   3.617494   4.427238   3.266655
    29  H    2.999056   2.535691   4.163695   5.189386   3.884793
    30  H    2.570193   3.198546   2.882666   3.867229   2.295568
                   21         22         23         24         25
    21  H    0.000000
    22  C    4.256797   0.000000
    23  H    4.390243   1.097547   0.000000
    24  H    4.966678   1.096750   1.770068   0.000000
    25  H    4.835299   1.094311   1.771501   1.770985   0.000000
    26  H    2.441961   2.686421   2.463078   3.684072   3.085389
    27  C    3.598626   2.504091   3.475478   2.733102   2.774281
    28  H    4.272011   2.751900   3.778287   3.070765   2.570799
    29  H    4.397431   2.741100   3.745598   2.511569   3.121158
    30  H    3.223766   3.481278   4.351343   3.751371   3.792167
                   26         27         28         29         30
    26  H    0.000000
    27  C    3.491777   0.000000
    28  H    3.842562   1.094730   0.000000
    29  H    4.301489   1.096904   1.767639   0.000000
    30  H    3.839130   1.096318   1.774334   1.765181   0.000000
 Stoichiometry    C12H18
 Framework group  C1[X(C12H18)]
 Deg. of freedom    84
 Full point group                 C1      NOp   1
 Largest Abelian subgroup         C1      NOp   1
 Largest concise Abelian subgroup C1      NOp   1
                         Standard orientation:                         
 ---------------------------------------------------------------------
 Center     Atomic     Atomic              Coordinates (Angstroms)
 Number     Number      Type              X           Y           Z
 ---------------------------------------------------------------------
    1          1             0       -0.736370   -1.895712    0.846125
    2          6             0       -1.299332   -1.049615    0.463457
    3          6             0       -2.797229    1.078409   -0.521484
    4          6             0       -0.674020   -0.119827   -0.382678
    5          6             0       -2.642676   -0.916319    0.818100
    6          6             0       -3.398410    0.150003    0.328991
    7          6             0       -1.453339    0.939435   -0.871432
    8          1             0       -3.100072   -1.652139    1.474882
    9          1             0       -4.445316    0.252012    0.602258
   10          1             0       -0.998403    1.666105   -1.541065
   11          1             0       -3.374516    1.909572   -0.918692
   12          6             0        0.790131   -0.248599   -0.798463
   13          6             0        1.814268    0.313427    0.262989
   14          6             0        3.243988    0.234334   -0.314169
   15          1             0        3.303779    0.711631   -1.300638
   16          1             0        3.594387   -0.798041   -0.416165
   17          1             0        3.948338    0.752917    0.347396
   18          6             0        1.104613   -1.682478   -1.273239
   19          1             0        0.358128   -2.007169   -2.005899
   20          1             0        1.094548   -2.408287   -0.453018
   21          1             0        2.086355   -1.739020   -1.752440
   22          6             0        1.497575    1.796698    0.543721
   23          1             0        1.547434    2.394652   -0.375286
   24          1             0        2.224901    2.214899    1.250096
   25          1             0        0.499668    1.925599    0.973933
   26          1             0        0.913915    0.401733   -1.676700
   27          6             0        1.774555   -0.458537    1.596180
   28          1             0        0.798808   -0.373259    2.085137
   29          1             0        2.525728   -0.053536    2.285319
   30          1             0        1.997941   -1.523548    1.462902
 ---------------------------------------------------------------------
 Rotational constants (GHZ):      1.7233832      0.5951301      0.5630853
 Standard basis: TZVP (5D, 7F)
 There are   336 symmetry adapted basis functions of A   symmetry.
 Integral buffers will be    262144 words long.
 Raffenetti 2 integral format.
 Two-electron integral symmetry is turned on.
   336 basis functions,   564 primitive gaussians,   348 cartesian basis functions
    45 alpha electrons       45 beta electrons
       nuclear repulsion energy       712.5531400264 Hartrees.
 NAtoms=   30 NActive=   30 NUniq=   30 SFac= 1.00D+00 NAtFMM=   60 Big=F
 One-electron integrals computed using PRISM.
 NBasis=   336 RedAO= T  NBF=   336
 NBsUse=   336 1.00D-06 NBFU=   336
 Harris functional with IExCor=  402 diagonalized for initial guess.
 ExpMin= 9.52D-02 ExpMax= 1.36D+04 ExpMxC= 4.63D+02 IAcc=2 IRadAn=         4 AccDes= 0.00D+00
 HarFok:  IExCor= 402 AccDes= 0.00D+00 IRadAn=         4 IDoV=1
 ScaDFX=  1.000000  1.000000  1.000000  1.000000
 Initial guess orbital symmetries:
       Occupied  (A) (A) (A) (A) (A) (A) (A) (A) (A) (A) (A) (A)
                 (A) (A) (A) (A) (A) (A) (A) (A) (A) (A) (A) (A)
                 (A) (A) (A) (A) (A) (A) (A) (A) (A) (A) (A) (A)
                 (A) (A) (A) (A) (A) (A) (A) (A) (A)
       Virtual   (A) (A) (A) (A) (A) (A) (A) (A) (A) (A) (A) (A)
                 (A) (A) (A) (A) (A) (A) (A) (A) (A) (A) (A) (A)
                 (A) (A) (A) (A) (A) (A) (A) (A) (A) (A) (A) (A)
                 (A) (A) (A) (A) (A) (A) (A) (A) (A) (A) (A) (A)
                 (A) (A) (A) (A) (A) (A) (A) (A) (A) (A) (A) (A)
                 (A) (A) (A) (A) (A) (A) (A) (A) (A) (A) (A) (A)
                 (A) (A) (A) (A) (A) (A) (A) (A) (A) (A) (A) (A)
                 (A) (A) (A) (A) (A) (A) (A) (A) (A) (A) (A) (A)
                 (A) (A) (A) (A) (A) (A) (A) (A) (A) (A) (A) (A)
                 (A) (A) (A) (A) (A) (A) (A) (A) (A) (A) (A) (A)
                 (A) (A) (A) (A) (A) (A) (A) (A) (A) (A) (A) (A)
                 (A) (A) (A) (A) (A) (A) (A) (A) (A) (A) (A) (A)
                 (A) (A) (A) (A) (A) (A) (A) (A) (A) (A) (A) (A)
                 (A) (A) (A) (A) (A) (A) (A) (A) (A) (A) (A) (A)
                 (A) (A) (A) (A) (A) (A) (A) (A) (A) (A) (A) (A)
                 (A) (A) (A) (A) (A) (A) (A) (A) (A) (A) (A) (A)
                 (A) (A) (A) (A) (A) (A) (A) (A) (A) (A) (A) (A)
                 (A) (A) (A) (A) (A) (A) (A) (A) (A) (A) (A) (A)
                 (A) (A) (A) (A) (A) (A) (A) (A) (A) (A) (A) (A)
                 (A) (A) (A) (A) (A) (A) (A) (A) (A) (A) (A) (A)
                 (A) (A) (A) (A) (A) (A) (A) (A) (A) (A) (A) (A)
                 (A) (A) (A) (A) (A) (A) (A) (A) (A) (A) (A) (A)
                 (A) (A) (A) (A) (A) (A) (A) (A) (A) (A) (A) (A)
                 (A) (A) (A) (A) (A) (A) (A) (A) (A) (A) (A) (A)
                 (A) (A) (A)
 The electronic state of the initial guess is 1-A.
 Requested convergence on RMS density matrix=1.00D-08 within 128 cycles.
 Requested convergence on MAX density matrix=1.00D-06.
 Requested convergence on             energy=1.00D-06.
 No special actions if energy rises.
 Integral accuracy reduced to 1.0D-05 until final iterations.
 Initial convergence to 1.0D-05 achieved.  Increase integral accuracy.
 SCF Done:  E(RB+HF-LYP) =  -468.284606714     A.U. after   19 cycles
             Convg  =    0.8225D-08             -V/T =  2.0059
             S**2   =   0.0000
 ExpMin= 9.52D-02 ExpMax= 1.36D+04 ExpMxC= 4.63D+02 IAcc=3 IRadAn=         5 AccDes= 0.00D+00
 HarFok:  IExCor= 205 AccDes= 0.00D+00 IRadAn=         5 IDoV=1
 ScaDFX=  1.000000  1.000000  1.000000  1.000000
 Range of M.O.s used for correlation:    13   336
 NBasis=   336 NAE=    45 NBE=    45 NFC=    12 NFV=     0
 NROrb=    324 NOA=    33 NOB=    33 NVA=   291 NVB=   291

 **** Warning!!: The largest alpha MO coefficient is  0.82588512D+02

 Orbital symmetries:
       Occupied  (A) (A) (A) (A) (A) (A) (A) (A) (A) (A) (A) (A)
                 (A) (A) (A) (A) (A) (A) (A) (A) (A) (A) (A) (A)
                 (A) (A) (A) (A) (A) (A) (A) (A) (A) (A) (A) (A)
                 (A) (A) (A) (A) (A) (A) (A) (A) (A)
       Virtual   (A) (A) (A) (A) (A) (A) (A) (A) (A) (A) (A) (A)
                 (A) (A) (A) (A) (A) (A) (A) (A) (A) (A) (A) (A)
                 (A) (A) (A) (A) (A) (A) (A) (A) (A) (A) (A) (A)
                 (A) (A) (A) (A) (A) (A) (A) (A) (A) (A) (A) (A)
                 (A) (A) (A) (A) (A) (A) (A) (A) (A) (A) (A) (A)
                 (A) (A) (A) (A) (A) (A) (A) (A) (A) (A) (A) (A)
                 (A) (A) (A) (A) (A) (A) (A) (A) (A) (A) (A) (A)
                 (A) (A) (A) (A) (A) (A) (A) (A) (A) (A) (A) (A)
                 (A) (A) (A) (A) (A) (A) (A) (A) (A) (A) (A) (A)
                 (A) (A) (A) (A) (A) (A) (A) (A) (A) (A) (A) (A)
                 (A) (A) (A) (A) (A) (A) (A) (A) (A) (A) (A) (A)
                 (A) (A) (A) (A) (A) (A) (A) (A) (A) (A) (A) (A)
                 (A) (A) (A) (A) (A) (A) (A) (A) (A) (A) (A) (A)
                 (A) (A) (A) (A) (A) (A) (A) (A) (A) (A) (A) (A)
                 (A) (A) (A) (A) (A) (A) (A) (A) (A) (A) (A) (A)
                 (A) (A) (A) (A) (A) (A) (A) (A) (A) (A) (A) (A)
                 (A) (A) (A) (A) (A) (A) (A) (A) (A) (A) (A) (A)
                 (A) (A) (A) (A) (A) (A) (A) (A) (A) (A) (A) (A)
                 (A) (A) (A) (A) (A) (A) (A) (A) (A) (A) (A) (A)
                 (A) (A) (A) (A) (A) (A) (A) (A) (A) (A) (A) (A)
                 (A) (A) (A) (A) (A) (A) (A) (A) (A) (A) (A) (A)
                 (A) (A) (A) (A) (A) (A) (A) (A) (A) (A) (A) (A)
                 (A) (A) (A) (A) (A) (A) (A) (A) (A) (A) (A) (A)
                 (A) (A) (A) (A) (A) (A) (A) (A) (A) (A) (A) (A)
                 (A) (A) (A)
    40 initial guesses have been made.
 Convergence on wavefunction:    0.001000000000000
 Iteration     1 Dimension    40 NMult    40
 CISAX will form  40 AO SS matrices at one time.
 New state      3 was old state      5
 New state      4 was old state      6
 New state      5 was old state      7
 New state      6 was old state      9
 New state      7 was old state      8
 New state      8 was old state     10
 New state      9 was old state      4
 New state     10 was old state      3
 Iteration     2 Dimension    60 NMult    60
 New state      4 was old state      9
 New state      5 was old state      4
 New state      6 was old state      4
 New state      7 was old state      5
 New state      8 was old state      6
 New state      9 was old state      7
 New state     10 was old state      8
 Iteration     3 Dimension    80 NMult    80
 Iteration     4 Dimension   100 NMult   100
 Iteration     5 Dimension   116 NMult   116
 Iteration     6 Dimension   124 NMult   124
 ***********************************************************************
 Excited states from <AA,BB:AA,BB> singles matrix:
 ***********************************************************************
 
 Ground to excited state Transition electric dipole moments (Au):
       state          X           Y           Z          Osc.
         1         0.0174      0.0666     -0.0396      0.0008
         2         0.5056     -0.0110     -0.0587      0.0375
         3        -0.3353      0.5931     -0.3838      0.1002
         4         0.9683      0.8202     -0.7682      0.3653
         5        -1.8830      0.5524      0.0065      0.6404
         6         0.2975     -0.0455     -0.0364      0.0157
         7        -0.0432     -0.0285      0.1150      0.0028
         8        -0.0439      0.2272      0.1147      0.0117
         9         0.0472      0.1034      0.0268      0.0024
        10        -0.0257      0.0171     -0.0948      0.0018
 Ground to excited state transition velocity dipole Moments (Au):
       state          X           Y           Z          Osc.
         1        -0.0036     -0.0121      0.0072      0.0007
         2        -0.1099      0.0020      0.0128      0.0376
         3         0.0819     -0.1444      0.0959      0.0996
         4        -0.2390     -0.2045      0.1893      0.3609
         5         0.4651     -0.1373     -0.0014      0.6284
         6        -0.0748      0.0108      0.0098      0.0151
         7         0.0112      0.0075     -0.0299      0.0027
         8         0.0108     -0.0600     -0.0306      0.0118
         9        -0.0118     -0.0280     -0.0079      0.0025
        10         0.0082     -0.0059      0.0264      0.0020
 Ground to excited state transition magnetic dipole Moments (Au):
       state          X           Y           Z
         1         0.0317      0.1435      0.2061
         2         0.0496      0.2229     -0.0035
         3        -0.0500      0.7088      0.9658
         4         0.0745      1.1212      1.2724
         5        -0.0938     -0.1352      0.9107
         6        -0.4201      0.1586      0.0574
         7        -0.0115     -0.1472     -0.1355
         8         0.0167      0.1227      0.0297
         9         0.0465     -0.3725      0.3259
        10        -0.0906      0.0630     -0.0967
 <0|del|b> * <b|rxdel|0>  (Au), Rotatory Strengths (R) in
 cgs (10**-40 erg-esu-cm/Gauss)
       state          X           Y           Z     R(velocity)
         1        -0.0001     -0.0017      0.0015     -0.4441
         2        -0.0055      0.0005      0.0000     -5.4809
         3        -0.0041     -0.1024      0.0926    -13.3003
         4        -0.0178     -0.2293      0.2409     -5.8274
         5        -0.0436      0.0186     -0.0013    -24.9242
         6         0.0314      0.0017      0.0006     30.9801
         7        -0.0001     -0.0011      0.0041      2.5330
         8         0.0002     -0.0074     -0.0009     -7.2438
         9        -0.0005      0.0104     -0.0026      6.4252
        10        -0.0007     -0.0004     -0.0026     -3.1762
 <0|r|b> * <b|rxdel|0>  (Au), Rotatory Strengths (R) in
 cgs (10**-40 erg-esu-cm/Gauss)
       state          X           Y           Z     R(length)
         1         0.0006      0.0096     -0.0082     -0.4568
         2         0.0251     -0.0025      0.0002     -5.3846
         3         0.0168      0.4204     -0.3707    -15.6580
         4         0.0721      0.9196     -0.9775     -3.3553
         5         0.1767     -0.0747      0.0059    -25.4416
         6        -0.1250     -0.0072     -0.0021     31.6564
         7         0.0005      0.0042     -0.0156      2.5686
         8        -0.0007      0.0279      0.0034     -7.2025
         9         0.0022     -0.0385      0.0087      6.5030
        10         0.0023      0.0011      0.0092     -2.9645
  <0|del|b> * <b|r|0>  (Au)
       state          X           Y           Z       Osc.(frdel)
         1        -0.0001     -0.0008     -0.0003      0.0008
         2        -0.0556      0.0000     -0.0008      0.0376
         3        -0.0275     -0.0856     -0.0368      0.0999
         4        -0.2315     -0.1677     -0.1455      0.3631
         5        -0.8757     -0.0758      0.0000      0.6344
         6        -0.0223     -0.0005     -0.0004      0.0154
         7        -0.0005     -0.0002     -0.0034      0.0028
         8        -0.0005     -0.0136     -0.0035      0.0118
         9        -0.0006     -0.0029     -0.0002      0.0024
        10        -0.0002     -0.0001     -0.0025      0.0019
 Ground to excited state transition densities written to RWF  633

 Excitation energies and oscillator strengths:
 
 Excited State   1:   Singlet-A      5.2862 eV  234.54 nm  f=0.0008
      44 -> 46        -0.25597
      44 -> 47        -0.39988
      45 -> 46         0.45704
      45 -> 47        -0.28281
 This state for optimization and/or second-order correction.
 Copying the excited state density for this state as the 1-particle RhoCI density.
 
 Excited State   2:   Singlet-A      5.9083 eV  209.85 nm  f=0.0375
      44 -> 46         0.33679
      44 -> 47        -0.20170
      45 -> 46         0.29334
      45 -> 47         0.45680
 
 Excited State   3:   Singlet-A      6.6914 eV  185.29 nm  f=0.1002
      44 -> 46         0.18636
      44 -> 47         0.19064
      45 -> 46         0.16932
      45 -> 47        -0.15232
      45 -> 48         0.56307
 
 Excited State   4:   Singlet-A      6.7755 eV  182.99 nm  f=0.3653
      42 -> 46         0.12168
      44 -> 47         0.41848
      45 -> 46         0.31905
      45 -> 48        -0.31051
 
 Excited State   5:   Singlet-A      6.7883 eV  182.64 nm  f=0.6404
      42 -> 47        -0.11411
      44 -> 46         0.43242
      45 -> 47        -0.31262
      45 -> 48        -0.25749
 
 Excited State   6:   Singlet-A      6.9807 eV  177.61 nm  f=0.0157
      44 -> 48         0.67252
      44 -> 49         0.14865
 
 Excited State   7:   Singlet-A      7.1504 eV  173.40 nm  f=0.0028
      39 -> 46         0.14383
      42 -> 46        -0.11242
      43 -> 46         0.59814
      43 -> 47        -0.29145
 
 Excited State   8:   Singlet-A      7.1687 eV  172.95 nm  f=0.0117
      39 -> 47         0.14662
      42 -> 47        -0.11602
      43 -> 46         0.28415
      43 -> 47         0.59420
 
 Excited State   9:   Singlet-A      7.2800 eV  170.31 nm  f=0.0024
      45 -> 48        -0.11301
      45 -> 49         0.64789
      45 -> 50        -0.21298
 
 Excited State  10:   Singlet-A      7.4058 eV  167.42 nm  f=0.0018
      40 -> 46         0.15261
      40 -> 47         0.13005
      41 -> 46         0.15395
      41 -> 47         0.11645
      42 -> 46        -0.16267
      42 -> 47        -0.15838
      45 -> 49         0.19455
      45 -> 50         0.56255

 **********************************************************************

            Population analysis using the SCF density.

 **********************************************************************

 Orbital symmetries:
       Occupied  (A) (A) (A) (A) (A) (A) (A) (A) (A) (A) (A) (A)
                 (A) (A) (A) (A) (A) (A) (A) (A) (A) (A) (A) (A)
                 (A) (A) (A) (A) (A) (A) (A) (A) (A) (A) (A) (A)
                 (A) (A) (A) (A) (A) (A) (A) (A) (A)
       Virtual   (A) (A) (A) (A) (A) (A) (A) (A) (A) (A) (A) (A)
                 (A) (A) (A) (A) (A) (A) (A) (A) (A) (A) (A) (A)
                 (A) (A) (A) (A) (A) (A) (A) (A) (A) (A) (A) (A)
                 (A) (A) (A) (A) (A) (A) (A) (A) (A) (A) (A) (A)
                 (A) (A) (A) (A) (A) (A) (A) (A) (A) (A) (A) (A)
                 (A) (A) (A) (A) (A) (A) (A) (A) (A) (A) (A) (A)
                 (A) (A) (A) (A) (A) (A) (A) (A) (A) (A) (A) (A)
                 (A) (A) (A) (A) (A) (A) (A) (A) (A) (A) (A) (A)
                 (A) (A) (A) (A) (A) (A) (A) (A) (A) (A) (A) (A)
                 (A) (A) (A) (A) (A) (A) (A) (A) (A) (A) (A) (A)
                 (A) (A) (A) (A) (A) (A) (A) (A) (A) (A) (A) (A)
                 (A) (A) (A) (A) (A) (A) (A) (A) (A) (A) (A) (A)
                 (A) (A) (A) (A) (A) (A) (A) (A) (A) (A) (A) (A)
                 (A) (A) (A) (A) (A) (A) (A) (A) (A) (A) (A) (A)
                 (A) (A) (A) (A) (A) (A) (A) (A) (A) (A) (A) (A)
                 (A) (A) (A) (A) (A) (A) (A) (A) (A) (A) (A) (A)
                 (A) (A) (A) (A) (A) (A) (A) (A) (A) (A) (A) (A)
                 (A) (A) (A) (A) (A) (A) (A) (A) (A) (A) (A) (A)
                 (A) (A) (A) (A) (A) (A) (A) (A) (A) (A) (A) (A)
                 (A) (A) (A) (A) (A) (A) (A) (A) (A) (A) (A) (A)
                 (A) (A) (A) (A) (A) (A) (A) (A) (A) (A) (A) (A)
                 (A) (A) (A) (A) (A) (A) (A) (A) (A) (A) (A) (A)
                 (A) (A) (A) (A) (A) (A) (A) (A) (A) (A) (A) (A)
                 (A) (A) (A) (A) (A) (A) (A) (A) (A) (A) (A) (A)
                 (A) (A) (A)
 The electronic state is 1-A.
 Alpha  occ. eigenvalues --  -10.18770 -10.18210 -10.18182 -10.17594 -10.17571
 Alpha  occ. eigenvalues --  -10.17434 -10.17347 -10.17330 -10.16139 -10.15914
 Alpha  occ. eigenvalues --  -10.15664 -10.15525  -0.86143  -0.82601  -0.76688
 Alpha  occ. eigenvalues --   -0.74612  -0.72206  -0.68447  -0.68225  -0.63701
 Alpha  occ. eigenvalues --   -0.60459  -0.58589  -0.53570  -0.50661  -0.46912
 Alpha  occ. eigenvalues --   -0.46884  -0.44960  -0.44000  -0.43733  -0.42734
 Alpha  occ. eigenvalues --   -0.41921  -0.39721  -0.38850  -0.38109  -0.37849
 Alpha  occ. eigenvalues --   -0.36550  -0.36357  -0.35885  -0.34770  -0.33743
 Alpha  occ. eigenvalues --   -0.31990  -0.31955  -0.31055  -0.25491  -0.24626
 Alpha virt. eigenvalues --   -0.01276  -0.01160   0.02726   0.05258   0.05461
 Alpha virt. eigenvalues --    0.06656   0.07731   0.08380   0.08797   0.09214
 Alpha virt. eigenvalues --    0.10011   0.10313   0.11441   0.11979   0.12618
 Alpha virt. eigenvalues --    0.13223   0.14148   0.14421   0.14858   0.15533
 Alpha virt. eigenvalues --    0.15946   0.16354   0.17047   0.17560   0.17920
 Alpha virt. eigenvalues --    0.18791   0.19739   0.21520   0.21965   0.22483
 Alpha virt. eigenvalues --    0.23389   0.23792   0.24618   0.25091   0.25681
 Alpha virt. eigenvalues --    0.26480   0.27735   0.28299   0.29064   0.30149
 Alpha virt. eigenvalues --    0.30990   0.31494   0.32113   0.32909   0.34245
 Alpha virt. eigenvalues --    0.35150   0.35376   0.35766   0.36691   0.37362
 Alpha virt. eigenvalues --    0.38027   0.38318   0.40251   0.41340   0.41707
 Alpha virt. eigenvalues --    0.41893   0.42394   0.42758   0.43624   0.44146
 Alpha virt. eigenvalues --    0.44530   0.44954   0.45321   0.45981   0.46512
 Alpha virt. eigenvalues --    0.46953   0.47083   0.47227   0.47956   0.49010
 Alpha virt. eigenvalues --    0.49614   0.50208   0.50626   0.51100   0.51583
 Alpha virt. eigenvalues --    0.51725   0.52355   0.52597   0.52968   0.54837
 Alpha virt. eigenvalues --    0.56166   0.56868   0.57584   0.61122   0.61790
 Alpha virt. eigenvalues --    0.62660   0.65879   0.67421   0.68146   0.69899
 Alpha virt. eigenvalues --    0.70150   0.73316   0.73495   0.75730   0.77773
 Alpha virt. eigenvalues --    0.78490   0.81427   0.82440   0.89992   1.09512
 Alpha virt. eigenvalues --    1.14950   1.18166   1.20237   1.22984   1.23617
 Alpha virt. eigenvalues --    1.24449   1.25743   1.25965   1.26487   1.27225
 Alpha virt. eigenvalues --    1.27495   1.28438   1.30493   1.31071   1.31313
 Alpha virt. eigenvalues --    1.32188   1.32454   1.32688   1.33816   1.34122
 Alpha virt. eigenvalues --    1.35089   1.35869   1.36072   1.38962   1.39789
 Alpha virt. eigenvalues --    1.41485   1.41956   1.42731   1.44170   1.44402
 Alpha virt. eigenvalues --    1.44815   1.45046   1.45982   1.46173   1.46502
 Alpha virt. eigenvalues --    1.48057   1.48962   1.49761   1.50693   1.51997
 Alpha virt. eigenvalues --    1.52514   1.53406   1.54103   1.54869   1.55192
 Alpha virt. eigenvalues --    1.56255   1.57999   1.59092   1.59708   1.61932
 Alpha virt. eigenvalues --    1.63759   1.65352   1.66073   1.66803   1.67862
 Alpha virt. eigenvalues --    1.68736   1.70010   1.74348   1.75542   1.76588
 Alpha virt. eigenvalues --    1.76908   1.77501   1.78130   1.78348   1.78976
 Alpha virt. eigenvalues --    1.79703   1.80111   1.80877   1.81943   1.82802
 Alpha virt. eigenvalues --    1.83283   1.83927   1.85412   1.86175   1.86380
 Alpha virt. eigenvalues --    1.86547   1.87686   1.88443   1.89966   1.90816
 Alpha virt. eigenvalues --    1.91483   1.93196   1.93808   1.94098   1.95416
 Alpha virt. eigenvalues --    1.97448   1.97789   2.01746   2.02538   2.03892
 Alpha virt. eigenvalues --    2.05158   2.06797   2.07754   2.09620   2.10637
 Alpha virt. eigenvalues --    2.17083   2.17823   2.18714   2.20775   2.21538
 Alpha virt. eigenvalues --    2.25676   2.28376   2.28996   2.30587   2.32211
 Alpha virt. eigenvalues --    2.32629   2.33777   2.34599   2.35606   2.36003
 Alpha virt. eigenvalues --    2.36759   2.37331   2.38619   2.40794   2.42984
 Alpha virt. eigenvalues --    2.45563   2.47320   2.48072   2.49000   2.49979
 Alpha virt. eigenvalues --    2.50611   2.52522   2.53419   2.54343   2.56732
 Alpha virt. eigenvalues --    2.60685   2.61318   2.62901   2.63633   2.64346
 Alpha virt. eigenvalues --    2.65583   2.66401   2.67530   2.68540   2.68948
 Alpha virt. eigenvalues --    2.69699   2.71502   2.72367   2.73127   2.73788
 Alpha virt. eigenvalues --    2.74930   2.76148   2.78306   2.79003   2.81594
 Alpha virt. eigenvalues --    2.84712   2.87293   2.90811   2.92697   2.98612
 Alpha virt. eigenvalues --    3.01987   3.04348   3.07024   3.10245   3.12037
 Alpha virt. eigenvalues --    3.12912   3.15170   3.17704   3.19272   3.19897
 Alpha virt. eigenvalues --    3.23685   3.23909   3.30019   3.32203   3.32593
 Alpha virt. eigenvalues --    3.33301   3.34634   3.39254   3.39804   3.40290
 Alpha virt. eigenvalues --    3.41934   3.44184   3.45490   3.45705   3.48611
 Alpha virt. eigenvalues --    3.50259   3.52223   3.56739   3.79798  21.36643
 Alpha virt. eigenvalues --   21.86984  21.89760  22.07703  22.10578  22.11751
 Alpha virt. eigenvalues --   22.13693  22.15888  22.18113  22.23144  22.27342
 Alpha virt. eigenvalues --   22.28526
          Condensed to atoms (all electrons):
              1          2          3          4          5          6
     1  H    0.549706   0.410720  -0.000605  -0.055673  -0.034615   0.009925
     2  C    0.410720   5.172367  -0.116803   0.397997   0.416770  -0.029585
     3  C   -0.000605  -0.116803   5.002571  -0.024885  -0.010837   0.465142
     4  C   -0.055673   0.397997  -0.024885   5.510484  -0.017424  -0.070475
     5  C   -0.034615   0.416770  -0.010837  -0.017424   4.996682   0.468434
     6  C    0.009925  -0.029585   0.465142  -0.070475   0.468434   4.991248
     7  C    0.008228  -0.010137   0.432467   0.458869  -0.104245  -0.033700
     8  H   -0.005141  -0.041653   0.011146   0.012620   0.402260  -0.050433
     9  H   -0.000323   0.016272  -0.051919  -0.002821  -0.051512   0.409762
    10  H   -0.000287   0.017311  -0.048922  -0.057528  -0.002950   0.013213
    11  H    0.000053  -0.000432   0.407924   0.016213   0.012351  -0.054656
    12  C    0.001667  -0.050974   0.019210  -0.006764   0.010791   0.003472
    13  C   -0.005725  -0.007152  -0.000843  -0.053659   0.000631   0.000231
    14  C    0.000004  -0.001677   0.000200   0.039718   0.000296  -0.000062
    15  H   -0.000004  -0.000038   0.000007  -0.002170  -0.000017   0.000005
    16  H    0.000004   0.000264  -0.000008  -0.001485   0.000003   0.000001
    17  H   -0.000001   0.000063  -0.000004  -0.001446  -0.000005   0.000001
    18  C   -0.001948  -0.008809  -0.002413  -0.044887   0.002108  -0.000164
    19  H    0.000484  -0.003294  -0.000508   0.009870  -0.000904   0.000044
    20  H    0.000535   0.005339   0.000089  -0.035269   0.000349   0.000044
    21  H    0.000006   0.001362   0.000025   0.014467   0.000006   0.000003
    22  C    0.000322   0.000232   0.000440   0.020560   0.001070  -0.001014
    23  H   -0.000011   0.000028  -0.000212  -0.012759  -0.000154   0.000164
    24  H   -0.000012   0.000114  -0.000007   0.000182  -0.000054   0.000013
    25  H    0.000077  -0.000048   0.001760   0.008899   0.001352  -0.000724
    26  H   -0.000054   0.006283   0.001351  -0.123665  -0.001257   0.000382
    27  C   -0.000114  -0.007102   0.000458  -0.024124  -0.001041  -0.000149
    28  H   -0.001645  -0.004676   0.000526   0.005570   0.003426  -0.000512
    29  H    0.000109   0.000808  -0.000026  -0.000179   0.000101   0.000000
    30  H    0.000030  -0.000429   0.000001  -0.002575  -0.000123   0.000000
              7          8          9         10         11         12
     1  H    0.008228  -0.005141  -0.000323  -0.000287   0.000053   0.001667
     2  C   -0.010137  -0.041653   0.016272   0.017311  -0.000432  -0.050974
     3  C    0.432467   0.011146  -0.051919  -0.048922   0.407924   0.019210
     4  C    0.458869   0.012620  -0.002821  -0.057528   0.016213  -0.006764
     5  C   -0.104245   0.402260  -0.051512  -0.002950   0.012351   0.010791
     6  C   -0.033700  -0.050433   0.409762   0.013213  -0.054656   0.003472
     7  C    5.079385   0.000415   0.015343   0.413128  -0.047490  -0.057414
     8  H    0.000415   0.572016  -0.005905   0.000051  -0.000348  -0.000835
     9  H    0.015343  -0.005905   0.568787  -0.000286  -0.006104  -0.000056
    10  H    0.413128   0.000051  -0.000286   0.574318  -0.005980  -0.010652
    11  H   -0.047490  -0.000348  -0.006104  -0.005980   0.575317  -0.001164
    12  C   -0.057414  -0.000835  -0.000056  -0.010652  -0.001164   5.804143
    13  C   -0.016691  -0.000041   0.000004  -0.003262  -0.000011   0.157454
    14  C    0.000301  -0.000001   0.000000  -0.000128  -0.000001  -0.134646
    15  H    0.000591   0.000000   0.000000  -0.000012   0.000000  -0.004220
    16  H   -0.000064   0.000000   0.000000   0.000007   0.000000  -0.014131
    17  H   -0.000084   0.000000   0.000000   0.000002   0.000000   0.019407
    18  C   -0.002616   0.000014  -0.000001   0.000815   0.000039   0.243685
    19  H    0.003141   0.000016  -0.000001   0.000223   0.000000  -0.061178
    20  H   -0.000016  -0.000004   0.000000  -0.000041  -0.000002  -0.012850
    21  H   -0.000059  -0.000001   0.000000  -0.000055  -0.000001  -0.050087
    22  C   -0.009795   0.000012  -0.000006   0.001184   0.000034  -0.138543
    23  H    0.004666   0.000000   0.000000   0.000873  -0.000032   0.002969
    24  H    0.000215   0.000000   0.000000  -0.000018   0.000001   0.019032
    25  H   -0.006622   0.000012  -0.000008   0.000102   0.000038  -0.018609
    26  H    0.013413   0.000015   0.000002   0.003760  -0.000074   0.504072
    27  C    0.008837   0.000034   0.000005   0.000130  -0.000005  -0.064329
    28  H    0.000571   0.000063  -0.000005  -0.000014   0.000002  -0.019965
    29  H   -0.000265   0.000000   0.000000  -0.000006   0.000000   0.016721
    30  H   -0.000632  -0.000005   0.000000  -0.000006   0.000000  -0.000316
             13         14         15         16         17         18
     1  H   -0.005725   0.000004  -0.000004   0.000004  -0.000001  -0.001948
     2  C   -0.007152  -0.001677  -0.000038   0.000264   0.000063  -0.008809
     3  C   -0.000843   0.000200   0.000007  -0.000008  -0.000004  -0.002413
     4  C   -0.053659   0.039718  -0.002170  -0.001485  -0.001446  -0.044887
     5  C    0.000631   0.000296  -0.000017   0.000003  -0.000005   0.002108
     6  C    0.000231  -0.000062   0.000005   0.000001   0.000001  -0.000164
     7  C   -0.016691   0.000301   0.000591  -0.000064  -0.000084  -0.002616
     8  H   -0.000041  -0.000001   0.000000   0.000000   0.000000   0.000014
     9  H    0.000004   0.000000   0.000000   0.000000   0.000000  -0.000001
    10  H   -0.003262  -0.000128  -0.000012   0.000007   0.000002   0.000815
    11  H   -0.000011  -0.000001   0.000000   0.000000   0.000000   0.000039
    12  C    0.157454  -0.134646  -0.004220  -0.014131   0.019407   0.243685
    13  C    5.403064   0.296918  -0.036933  -0.033921  -0.042648  -0.078783
    14  C    0.296918   5.204100   0.391072   0.406179   0.406010   0.005560
    15  H   -0.036933   0.391072   0.574626  -0.027711  -0.024727  -0.004420
    16  H   -0.033921   0.406179  -0.027711   0.560340  -0.025379   0.001975
    17  H   -0.042648   0.406010  -0.024727  -0.025379   0.557824  -0.000268
    18  C   -0.078783   0.005560  -0.004420   0.001975  -0.000268   5.101680
    19  H    0.014029  -0.000504  -0.000115   0.000229   0.000028   0.415594
    20  H   -0.009890  -0.002972   0.000480   0.000141  -0.000110   0.402239
    21  H   -0.005512   0.003095  -0.000259  -0.002710   0.000306   0.409348
    22  C    0.296609  -0.102582  -0.012946   0.016469  -0.011753   0.022502
    23  H   -0.044028  -0.007611   0.004220  -0.000322   0.000582  -0.000021
    24  H   -0.035791  -0.011727   0.000420   0.000022   0.004738  -0.001067
    25  H   -0.036063   0.014825  -0.000290  -0.000525   0.000010  -0.000499
    26  H   -0.041815  -0.010373   0.006713   0.000039  -0.000208  -0.043498
    27  C    0.288182  -0.113926   0.018842  -0.010955  -0.010153  -0.014375
    28  H   -0.026805   0.015545  -0.000569  -0.000218  -0.000235  -0.000119
    29  H   -0.033316  -0.008046  -0.000311   0.000354   0.003855  -0.000398
    30  H   -0.053476  -0.009418  -0.000298   0.003293   0.000428  -0.000363
             19         20         21         22         23         24
     1  H    0.000484   0.000535   0.000006   0.000322  -0.000011  -0.000012
     2  C   -0.003294   0.005339   0.001362   0.000232   0.000028   0.000114
     3  C   -0.000508   0.000089   0.000025   0.000440  -0.000212  -0.000007
     4  C    0.009870  -0.035269   0.014467   0.020560  -0.012759   0.000182
     5  C   -0.000904   0.000349   0.000006   0.001070  -0.000154  -0.000054
     6  C    0.000044   0.000044   0.000003  -0.001014   0.000164   0.000013
     7  C    0.003141  -0.000016  -0.000059  -0.009795   0.004666   0.000215
     8  H    0.000016  -0.000004  -0.000001   0.000012   0.000000   0.000000
     9  H   -0.000001   0.000000   0.000000  -0.000006   0.000000   0.000000
    10  H    0.000223  -0.000041  -0.000055   0.001184   0.000873  -0.000018
    11  H    0.000000  -0.000002  -0.000001   0.000034  -0.000032   0.000001
    12  C   -0.061178  -0.012850  -0.050087  -0.138543   0.002969   0.019032
    13  C    0.014029  -0.009890  -0.005512   0.296609  -0.044028  -0.035791
    14  C   -0.000504  -0.002972   0.003095  -0.102582  -0.007611  -0.011727
    15  H   -0.000115   0.000480  -0.000259  -0.012946   0.004220   0.000420
    16  H    0.000229   0.000141  -0.002710   0.016469  -0.000322   0.000022
    17  H    0.000028  -0.000110   0.000306  -0.011753   0.000582   0.004738
    18  C    0.415594   0.402239   0.409348   0.022502  -0.000021  -0.001067
    19  H    0.542932  -0.027173  -0.023442  -0.000499  -0.000029   0.000025
    20  H   -0.027173   0.577964  -0.028439  -0.001405   0.000037   0.000011
    21  H   -0.023442  -0.028439   0.554887  -0.000508   0.000067  -0.000007
    22  C   -0.000499  -0.001405  -0.000508   5.246031   0.391746   0.394288
    23  H   -0.000029   0.000037   0.000067   0.391746   0.579509  -0.025555
    24  H    0.000025   0.000011  -0.000007   0.394288  -0.025555   0.566995
    25  H   -0.000017   0.000078   0.000013   0.406535  -0.025627  -0.023195
    26  H   -0.004066   0.007837  -0.005132  -0.016222   0.003879  -0.000288
    27  C   -0.000324   0.006149  -0.001767  -0.113411   0.017691  -0.011255
    28  H   -0.000018   0.000109  -0.000066  -0.005381  -0.000352   0.000129
    29  H    0.000035  -0.000297  -0.000097  -0.010977  -0.000239   0.004262
    30  H   -0.000040   0.000468   0.000459   0.016602  -0.000659  -0.000140
             25         26         27         28         29         30
     1  H    0.000077  -0.000054  -0.000114  -0.001645   0.000109   0.000030
     2  C   -0.000048   0.006283  -0.007102  -0.004676   0.000808  -0.000429
     3  C    0.001760   0.001351   0.000458   0.000526  -0.000026   0.000001
     4  C    0.008899  -0.123665  -0.024124   0.005570  -0.000179  -0.002575
     5  C    0.001352  -0.001257  -0.001041   0.003426   0.000101  -0.000123
     6  C   -0.000724   0.000382  -0.000149  -0.000512   0.000000   0.000000
     7  C   -0.006622   0.013413   0.008837   0.000571  -0.000265  -0.000632
     8  H    0.000012   0.000015   0.000034   0.000063   0.000000  -0.000005
     9  H   -0.000008   0.000002   0.000005  -0.000005   0.000000   0.000000
    10  H    0.000102   0.003760   0.000130  -0.000014  -0.000006  -0.000006
    11  H    0.000038  -0.000074  -0.000005   0.000002   0.000000   0.000000
    12  C   -0.018609   0.504072  -0.064329  -0.019965   0.016721  -0.000316
    13  C   -0.036063  -0.041815   0.288182  -0.026805  -0.033316  -0.053476
    14  C    0.014825  -0.010373  -0.113926   0.015545  -0.008046  -0.009418
    15  H   -0.000290   0.006713   0.018842  -0.000569  -0.000311  -0.000298
    16  H   -0.000525   0.000039  -0.010955  -0.000218   0.000354   0.003293
    17  H    0.000010  -0.000208  -0.010153  -0.000235   0.003855   0.000428
    18  C   -0.000499  -0.043498  -0.014375  -0.000119  -0.000398  -0.000363
    19  H   -0.000017  -0.004066  -0.000324  -0.000018   0.000035  -0.000040
    20  H    0.000078   0.007837   0.006149   0.000109  -0.000297   0.000468
    21  H    0.000013  -0.005132  -0.001767  -0.000066  -0.000097   0.000459
    22  C    0.406535  -0.016222  -0.113411  -0.005381  -0.010977   0.016602
    23  H   -0.025627   0.003879   0.017691  -0.000352  -0.000239  -0.000659
    24  H   -0.023195  -0.000288  -0.011255   0.000129   0.004262  -0.000140
    25  H    0.533157   0.001385  -0.007033   0.003267   0.000347  -0.000312
    26  H    0.001385   0.537263   0.013643  -0.000537  -0.000459   0.000079
    27  C   -0.007033   0.013643   5.258650   0.397139   0.392829   0.407253
    28  H    0.003267  -0.000537   0.397139   0.541209  -0.022695  -0.026586
    29  H    0.000347  -0.000459   0.392829  -0.022695   0.560851  -0.024712
    30  H   -0.000312   0.000079   0.407253  -0.026586  -0.024712   0.570356
 Mulliken atomic charges:
              1
     1  H    0.124287
     2  C   -0.163121
     3  C   -0.085323
     4  C    0.042338
     5  C   -0.091493
     6  C   -0.120608
     7  C   -0.149739
     8  H    0.105691
     9  H    0.108773
    10  H    0.105027
    11  H    0.104326
    12  C   -0.155891
    13  C    0.109243
    14  C   -0.380148
    15  H    0.118066
    16  H    0.128108
    17  H    0.123766
    18  C   -0.400909
    19  H    0.135462
    20  H    0.116599
    21  H    0.134099
    22  C   -0.389595
    23  H    0.111177
    24  H    0.118669
    25  H    0.147715
    26  H    0.147534
    27  C   -0.429775
    28  H    0.142845
    29  H    0.121753
    30  H    0.121123
 Sum of Mulliken charges=   0.00000
 Atomic charges with hydrogens summed into heavy atoms:
              1
     1  H    0.000000
     2  C   -0.038835
     3  C    0.019003
     4  C    0.042338
     5  C    0.014199
     6  C   -0.011835
     7  C   -0.044712
     8  H    0.000000
     9  H    0.000000
    10  H    0.000000
    11  H    0.000000
    12  C   -0.008357
    13  C    0.109243
    14  C   -0.010209
    15  H    0.000000
    16  H    0.000000
    17  H    0.000000
    18  C   -0.014749
    19  H    0.000000
    20  H    0.000000
    21  H    0.000000
    22  C   -0.012033
    23  H    0.000000
    24  H    0.000000
    25  H    0.000000
    26  H    0.000000
    27  C   -0.044054
    28  H    0.000000
    29  H    0.000000
    30  H    0.000000
 Sum of Mulliken charges=   0.00000
 Electronic spatial extent (au):  <R**2>=  2318.2323
 Charge=     0.0000 electrons
 Dipole moment (field-independent basis, Debye):
    X=     0.2895    Y=    -0.0155    Z=    -0.0548  Tot=     0.2951
 Quadrupole moment (field-independent basis, Debye-Ang):
   XX=   -74.4917   YY=   -75.6733   ZZ=   -77.4429
   XY=    -0.9254   XZ=    -1.3975   YZ=    -3.0198
 Traceless Quadrupole moment (field-independent basis, Debye-Ang):
   XX=     1.3776   YY=     0.1960   ZZ=    -1.5736
   XY=    -0.9254   XZ=    -1.3975   YZ=    -3.0198
 Octapole moment (field-independent basis, Debye-Ang**2):
  XXX=   -16.7328  YYY=    -2.0398  ZZZ=    -2.3261  XYY=    -2.0662
  XXY=     4.9758  XXZ=     7.7673  XZZ=     3.6261  YZZ=     1.1405
  YYZ=    -0.4383  XYZ=     7.4227
 Hexadecapole moment (field-independent basis, Debye-Ang**3):
 XXXX= -2129.5456 YYYY=  -632.5335 ZZZZ=  -487.5804 XXXY=   -20.1938
 XXXZ=   -22.1954 YYYX=    -7.8023 YYYZ=   -18.3088 ZZZX=    -4.4278
 ZZZY=    -3.4889 XXYY=  -462.1948 XXZZ=  -449.7595 YYZZ=  -177.8672
 XXYZ=   -15.1322 YYXZ=     1.3921 ZZXY=     7.6112
 N-N= 7.125531400264D+02 E-N=-2.509138891434D+03  KE= 4.655257871869D+02
 1|1|UNPC-UNK|SP|RTD-B3LYP-FC|TZVP|C12H18|PCUSER|16-Feb-2007|0||# TD=(N
 STATES=10) B3LYP/TZVP GEOM=CONNECTIVITY||opt_td||0,1|H|C,1,1.0859287|C
 ,2,2.78249714,1,178.59047419|C,2,1.40408877,1,119.83016597,3,-144.0142
 2811,0|C,2,1.39574804,1,118.93539672,4,179.46456494,0|C,3,1.39522902,2
 ,60.48077313,1,36.01692114,0|C,3,1.3956424,2,59.61789402,1,-144.118860
 13,0|H,5,1.08720043,2,119.58894807,1,0.52431108,0|H,6,1.08678096,3,120
 .3902644,2,-179.68460116,0|H,7,1.08785312,3,119.37470098,2,179.4261133
 9,0|H,3,1.08713679,2,179.2241903,1,-111.8463966,0|C,4,1.52748078,2,122
 .3504355,1,0.08433005,0|C,12,1.57842015,4,114.13371282,2,-82.60079227,
 0|C,13,1.5438479,12,109.34336359,4,-175.42281475,0|H,14,1.09750101,13,
 111.35802247,12,52.50605788,0|H,14,1.09497981,13,112.30109855,12,-68.7
 4906418,0|H,14,1.09667931,13,110.18388259,12,171.76499849,0|C,12,1.542
 82862,4,110.9466936,2,47.74615375,0|H,18,1.09519623,12,110.02704547,4,
 49.60059406,0|H,18,1.09529106,12,112.55357543,4,-70.07667931,0|H,18,1.
 09391405,12,111.45533003,4,168.95077539,0|C,13,1.54246484,12,109.36469
 395,4,-57.46928248,0|H,22,1.09754671,13,111.23409366,12,-58.48180317,0
 |H,22,1.09675012,13,110.34904422,12,-177.75763525,0|H,22,1.09431084,13
 ,111.84221026,12,62.17702817,0|H,12,1.09979744,4,105.98591918,2,162.74
 007529,0|C,13,1.54107228,12,112.7480612,4,63.45939643,0|H,27,1.0947298
 7,13,111.73681992,12,-62.66034231,0|H,27,1.09690439,13,109.93229233,12
 ,178.04636021,0|H,27,1.09631782,13,112.09857319,12,58.93485613,0||Vers
 ion=x86-Win32-G03RevB.05|State=1-A|HF=-468.2846067|RMSD=8.225e-009|PG=
 C01 [X(C12H18)]||@


 BE CAREFUL NOT TO BECOME TOO GOOD OF A SONGBIRD OR 
 THEY'LL THROW YOU INTO A CAGE.

                                    -- SNOOPY TO WOODSTOCK
 Job cpu time:  0 days  4 hours 40 minutes 12.0 seconds.
 File lengths (MBytes):  RWF=    265 Int=      0 D2E=      0 Chk=     37 Scr=      1
 Normal termination of Gaussian 03 at Fri Feb 16 23:32:11 2007.
