 Entering Gaussian System, Link 0=g09
 Initial command:
 /home1/bin/gauss09A/g09/l1.exe /state/partition1/93475.1.smp.q/Gau-11056.inp -scrdir=/state/partition1/93475.1.smp.q/
 Entering Link 1 = /home1/bin/gauss09A/g09/l1.exe PID=     11057.
  
 Copyright (c) 1988,1990,1992,1993,1995,1998,2003,2009, Gaussian, Inc.
                  All Rights Reserved.
  
 This is part of the Gaussian(R) 09 program.  It is based on
 the Gaussian(R) 03 system (copyright 2003, Gaussian, Inc.),
 the Gaussian(R) 98 system (copyright 1998, Gaussian, Inc.),
 the Gaussian(R) 94 system (copyright 1995, Gaussian, Inc.),
 the Gaussian 92(TM) system (copyright 1992, Gaussian, Inc.),
 the Gaussian 90(TM) system (copyright 1990, Gaussian, Inc.),
 the Gaussian 88(TM) system (copyright 1988, Gaussian, Inc.),
 the Gaussian 86(TM) system (copyright 1986, Carnegie Mellon
 University), and the Gaussian 82(TM) system (copyright 1983,
 Carnegie Mellon University). Gaussian is a federally registered
 trademark of Gaussian, Inc.
  
 This software contains proprietary and confidential information,
 including trade secrets, belonging to Gaussian, Inc.
  
 This software is provided under written license and may be
 used, copied, transmitted, or stored only in accord with that
 written license.
  
 The following legend is applicable only to US Government
 contracts under FAR:
  
                    RESTRICTED RIGHTS LEGEND
  
 Use, reproduction and disclosure by the US Government is
 subject to restrictions as set forth in subparagraphs (a)
 and (c) of the Commercial Computer Software - Restricted
 Rights clause in FAR 52.227-19.
  
 Gaussian, Inc.
 340 Quinnipiac St., Bldg. 40, Wallingford CT 06492
  
  
 ---------------------------------------------------------------
 Warning -- This program may not be used in any manner that
 competes with the business of Gaussian, Inc. or will provide
 assistance to any competitor of Gaussian, Inc.  The licensee
 of this program is prohibited from giving any competitor of
 Gaussian, Inc. access to this program.  By using this program,
 the user acknowledges that Gaussian, Inc. is engaged in the
 business of creating and licensing software in the field of
 computational chemistry and represents and warrants to the
 licensee that it is not a competitor of Gaussian, Inc. and that
 it will not use this program in any manner prohibited above.
 ---------------------------------------------------------------
  

 Cite this work as:
 Gaussian 09, Revision A.02,
 M. J. Frisch, G. W. Trucks, H. B. Schlegel, G. E. Scuseria, 
 M. A. Robb, J. R. Cheeseman, G. Scalmani, V. Barone, B. Mennucci, 
 G. A. Petersson, H. Nakatsuji, M. Caricato, X. Li, H. P. Hratchian, 
 A. F. Izmaylov, J. Bloino, G. Zheng, J. L. Sonnenberg, M. Hada, 
 M. Ehara, K. Toyota, R. Fukuda, J. Hasegawa, M. Ishida, T. Nakajima, 
 Y. Honda, O. Kitao, H. Nakai, T. Vreven, J. A. Montgomery, Jr., 
 J. E. Peralta, F. Ogliaro, M. Bearpark, J. J. Heyd, E. Brothers, 
 K. N. Kudin, V. N. Staroverov, R. Kobayashi, J. Normand, 
 K. Raghavachari, A. Rendell, J. C. Burant, S. S. Iyengar, J. Tomasi, 
 M. Cossi, N. Rega, J. M. Millam, M. Klene, J. E. Knox, J. B. Cross, 
 V. Bakken, C. Adamo, J. Jaramillo, R. Gomperts, R. E. Stratmann, 
 O. Yazyev, A. J. Austin, R. Cammi, C. Pomelli, J. W. Ochterski, 
 R. L. Martin, K. Morokuma, V. G. Zakrzewski, G. A. Voth, 
 P. Salvador, J. J. Dannenberg, S. Dapprich, A. D. Daniels, 
 O. Farkas, J. B. Foresman, J. V. Ortiz, J. Cioslowski, 
 and D. J. Fox, Gaussian, Inc., Wallingford CT, 2009.
 
 ******************************************
 Gaussian 09:  EM64L-G09RevA.02 11-Jun-2009
                28-Aug-2010 
 ******************************************
 %chk=Ru2bpyen2_H2_freq3.chk
 %mem=1000MB
 %NProc=4
 Will use up to    4 processors via shared memory.
 ----------------------------------------------------------------------
 #p gfinput iop(6/7=3) #B3LYP/Gen pseudo=read #Freq SCF=Tight Integral=
 UltraFine
 ----------------------------------------------------------------------
 1/10=4,30=1,38=1/1,3;
 2/12=2,17=6,18=5,40=1/2;
 3/5=7,11=2,16=1,17=8,24=10,25=1,30=1,71=2,74=-5,75=-5/1,2,3;
 4//1;
 5/5=2,32=2,38=5,98=1/2;
 8/6=4,10=90,11=11/1;
 11/6=1,8=1,9=11,15=111,16=1/1,2,10;
 10/6=1/2;
 6/7=3,8=2,9=2,10=2,18=1,28=1/1;
 7/8=1,10=1,25=1/1,2,3,16;
 1/10=4,30=1/3;
 99//99;
 Leave Link    1 at Sat Aug 28 13:24:23 2010, MaxMem=  131072000 cpu:       0.2
 (Enter /home1/bin/gauss09A/g09/l101.exe)
 ----------------------
 [Ru(bpy)(en*)2]2+ freq
 ----------------------
 Symbolic Z-matrix:
 Charge =  2 Multiplicity = 1
 Ru                    0.        0.        0. 
 N                    -1.6324   -1.354     0.12805 
 N                    -1.68137   1.29377  -0.09707 
 N                     0.08322   0.02895  -2.17963 
 N                     1.55633  -1.50034  -0.4738 
 N                     1.57893   1.49742   0.43853 
 N                     0.08322   0.02895   2.17337 
 C                     1.26466  -0.68562  -4.24841 
 C                    -0.11975  -2.308    -2.95325 
 C                     0.84277  -1.11414  -2.83063 
 C                     2.75508  -2.76081  -2.25046 
 C                     2.0744   -1.42341  -1.90626 
 C                     3.13716  -0.31111  -1.97354 
 C                    -4.01984   2.75314  -0.61324 
 C                    -4.07511   1.38663  -0.35714 
 C                    -3.91674  -2.90029   0.64165 
 C                    -4.02091  -1.53628   0.38834 
 C                    -2.77321   3.37859  -0.62599 
 C                    -2.86956  -0.78045   0.13609 
 C                    -2.89673   0.67397  -0.10458 
 C                    -2.64799  -3.47946   0.65368 
 C                    -1.54632  -2.6715    0.39774 
 C                    -1.64169   2.61371  -0.36735 
 C                     1.6511    1.92846   1.90422 
 C                     0.63897   3.06448   2.1261 
 C                     1.31763   0.6672    2.77922 
 C                     3.06242   2.47892   2.17954 
 C                     2.45476  -0.3702    2.76625 
 C                     1.01712   1.02442   4.24749 
 H                     0.37648  -0.51873  -4.86715 
 H                     1.85769  -1.46186  -4.74078 
 H                    -1.01862  -2.00879  -3.50466 
 H                     0.3416   -3.11884  -3.52134 
 H                     1.85243   0.23781  -4.25078 
 H                     3.08997  -2.78209  -3.29161 
 H                    -0.44398  -2.70468  -1.98875 
 H                     2.09232  -3.61779  -2.09465 
 H                     3.6827   -0.35915  -2.91862 
 H                    -4.92812   3.31275  -0.81185 
 H                    -5.03004   0.87551  -0.37424 
 H                     3.6426   -2.90446  -1.62414 
 H                    -4.80385  -3.49304   0.83954 
 H                    -4.99363  -1.05992   0.40651 
 H                     2.71788   0.69644  -1.8919 
 H                    -2.67147   4.43814  -0.83454 
 H                    -2.50647  -4.53458   0.86148 
 H                     3.88288  -0.44347  -1.17985 
 H                    -0.54921  -3.0968    0.41906 
 H                    -0.65957   3.0685   -0.37464 
 H                     0.81855   3.87759   1.41285 
 H                    -0.40138   2.74611   2.022 
 H                     2.85924  -0.5598    1.76829 
 H                     3.23639   3.3822    1.58464 
 H                     3.84933   1.7587    1.93368 
 H                     2.10984  -1.3243    3.18115 
 H                     0.76272   3.49507   3.12215 
 H                     3.2851   -0.03567   3.39227 
 H                     3.18249   2.759     3.23019 
 H                     0.12159   1.64455   4.3513 
 H                     0.8602    0.10952   4.82934 
 H                     1.85248   1.55954   4.70855 
 H                    -0.7363    0.54528   2.49909 
 H                    -0.02164  -0.90273   2.5799 
 H                     2.48424   1.09419   0.19592 
 H                     2.37274  -1.51532   0.13981 
 H                     1.53488   2.35285  -0.11898 
 H                     1.14737  -2.42783  -0.35463 
 H                     0.49864   0.90909  -2.48975 
 H                    -0.85962   0.03872  -2.57349 
 
 NAtoms=     69 NQM=     69 NQMF=      0 NMic=      0 NMicF=      0 NTot=     69.
                    Isotopes and Nuclear Properties:
 (Nuclear quadrupole moments (NQMom) in fm**2, nuclear magnetic moments (NMagM)
  in nuclear magnetons)

  Atom         1           2           3           4           5           6           7           8           9          10
 IAtWgt=         102          14          14          14          14          14          14          12          12          12
 AtmWgt= 101.9037000  14.0030740  14.0030740  14.0030740  14.0030740  14.0030740  14.0030740  12.0000000  12.0000000  12.0000000
 NucSpn=           0           2           2           2           2           2           2           0           0           0
 AtZEff=   0.0000000   0.0000000   0.0000000   0.0000000   0.0000000   0.0000000   0.0000000   0.0000000   0.0000000   0.0000000
 NQMom=    0.0000000   2.0440000   2.0440000   2.0440000   2.0440000   2.0440000   2.0440000   0.0000000   0.0000000   0.0000000
 NMagM=    0.0000000   0.4037610   0.4037610   0.4037610   0.4037610   0.4037610   0.4037610   0.0000000   0.0000000   0.0000000

  Atom        11          12          13          14          15          16          17          18          19          20
 IAtWgt=          12          12          12          12          12          12          12          12          12          12
 AtmWgt=  12.0000000  12.0000000  12.0000000  12.0000000  12.0000000  12.0000000  12.0000000  12.0000000  12.0000000  12.0000000
 NucSpn=           0           0           0           0           0           0           0           0           0           0
 AtZEff=   0.0000000   0.0000000   0.0000000   0.0000000   0.0000000   0.0000000   0.0000000   0.0000000   0.0000000   0.0000000
 NQMom=    0.0000000   0.0000000   0.0000000   0.0000000   0.0000000   0.0000000   0.0000000   0.0000000   0.0000000   0.0000000
 NMagM=    0.0000000   0.0000000   0.0000000   0.0000000   0.0000000   0.0000000   0.0000000   0.0000000   0.0000000   0.0000000

  Atom        21          22          23          24          25          26          27          28          29          30
 IAtWgt=          12          12          12          12          12          12          12          12          12           1
 AtmWgt=  12.0000000  12.0000000  12.0000000  12.0000000  12.0000000  12.0000000  12.0000000  12.0000000  12.0000000   1.0078250
 NucSpn=           0           0           0           0           0           0           0           0           0           1
 AtZEff=   0.0000000   0.0000000   0.0000000   0.0000000   0.0000000   0.0000000   0.0000000   0.0000000   0.0000000   0.0000000
 NQMom=    0.0000000   0.0000000   0.0000000   0.0000000   0.0000000   0.0000000   0.0000000   0.0000000   0.0000000   0.0000000
 NMagM=    0.0000000   0.0000000   0.0000000   0.0000000   0.0000000   0.0000000   0.0000000   0.0000000   0.0000000   2.7928460

  Atom        31          32          33          34          35          36          37          38          39          40
 IAtWgt=           1           1           1           1           1           1           1           1           1           1
 AtmWgt=   1.0078250   1.0078250   1.0078250   1.0078250   1.0078250   1.0078250   1.0078250   1.0078250   1.0078250   1.0078250
 NucSpn=           1           1           1           1           1           1           1           1           1           1
 AtZEff=   0.0000000   0.0000000   0.0000000   0.0000000   0.0000000   0.0000000   0.0000000   0.0000000   0.0000000   0.0000000
 NQMom=    0.0000000   0.0000000   0.0000000   0.0000000   0.0000000   0.0000000   0.0000000   0.0000000   0.0000000   0.0000000
 NMagM=    2.7928460   2.7928460   2.7928460   2.7928460   2.7928460   2.7928460   2.7928460   2.7928460   2.7928460   2.7928460

  Atom        41          42          43          44          45          46          47          48          49          50
 IAtWgt=           1           1           1           1           1           1           1           1           1           1
 AtmWgt=   1.0078250   1.0078250   1.0078250   1.0078250   1.0078250   1.0078250   1.0078250   1.0078250   1.0078250   1.0078250
 NucSpn=           1           1           1           1           1           1           1           1           1           1
 AtZEff=   0.0000000   0.0000000   0.0000000   0.0000000   0.0000000   0.0000000   0.0000000   0.0000000   0.0000000   0.0000000
 NQMom=    0.0000000   0.0000000   0.0000000   0.0000000   0.0000000   0.0000000   0.0000000   0.0000000   0.0000000   0.0000000
 NMagM=    2.7928460   2.7928460   2.7928460   2.7928460   2.7928460   2.7928460   2.7928460   2.7928460   2.7928460   2.7928460

  Atom        51          52          53          54          55          56          57          58          59          60
 IAtWgt=           1           1           1           1           1           1           1           1           1           1
 AtmWgt=   1.0078250   1.0078250   1.0078250   1.0078250   1.0078250   1.0078250   1.0078250   1.0078250   1.0078250   1.0078250
 NucSpn=           1           1           1           1           1           1           1           1           1           1
 AtZEff=   0.0000000   0.0000000   0.0000000   0.0000000   0.0000000   0.0000000   0.0000000   0.0000000   0.0000000   0.0000000
 NQMom=    0.0000000   0.0000000   0.0000000   0.0000000   0.0000000   0.0000000   0.0000000   0.0000000   0.0000000   0.0000000
 NMagM=    2.7928460   2.7928460   2.7928460   2.7928460   2.7928460   2.7928460   2.7928460   2.7928460   2.7928460   2.7928460

  Atom        61          62          63          64          65          66          67          68          69
 IAtWgt=           1           1           1           1           1           1           1           1           1
 AtmWgt=   1.0078250   1.0078250   1.0078250   1.0078250   1.0078250   1.0078250   1.0078250   1.0078250   1.0078250
 NucSpn=           1           1           1           1           1           1           1           1           1
 AtZEff=   0.0000000   0.0000000   0.0000000   0.0000000   0.0000000   0.0000000   0.0000000   0.0000000   0.0000000
 NQMom=    0.0000000   0.0000000   0.0000000   0.0000000   0.0000000   0.0000000   0.0000000   0.0000000   0.0000000
 NMagM=    2.7928460   2.7928460   2.7928460   2.7928460   2.7928460   2.7928460   2.7928460   2.7928460   2.7928460
 Leave Link  101 at Sat Aug 28 13:24:23 2010, MaxMem=  131072000 cpu:       0.5
 (Enter /home1/bin/gauss09A/g09/l103.exe)

 GradGradGradGradGradGradGradGradGradGradGradGradGradGradGradGradGradGrad
 Berny optimization.
 Initialization pass.
 Trust Radius=3.00D-01 FncErr=1.00D-07 GrdErr=1.00D-07
 Number of steps in this run=   2 maximum allowed number of steps=   2.
 GradGradGradGradGradGradGradGradGradGradGradGradGradGradGradGradGradGrad

 Leave Link  103 at Sat Aug 28 13:24:23 2010, MaxMem=  131072000 cpu:       0.1
 (Enter /home1/bin/gauss09A/g09/l202.exe)
 Stoichiometry    C22H40N6Ru(2+)
 Framework group  C1[X(C22H40N6Ru)]
 Deg. of freedom   201
 Full point group                 C1      NOp   1
 Largest Abelian subgroup         C1      NOp   1
 Largest concise Abelian subgroup C1      NOp   1
                         Standard orientation:                         
 ---------------------------------------------------------------------
 Center     Atomic      Atomic             Coordinates (Angstroms)
 Number     Number       Type             X           Y           Z
 ---------------------------------------------------------------------
      1         44           0       -0.134847    0.050019   -0.005789
      2          7           0        1.678860    0.148555    1.096571
      3          7           0        1.104016   -1.337494   -1.030628
      4          7           0        0.426899    1.559560   -1.476938
      5          7           0       -1.036077    1.906207    0.794224
      6          7           0       -2.104450   -0.545864   -0.838366
      7          7           0       -0.862750   -1.425153    1.417350
      8          6           0        0.139074    3.880687   -2.322982
      9          6           0        1.448635    3.440923   -0.245048
     10          6           0        0.217962    3.004831   -1.058714
     11          6           0       -1.284810    4.368084    0.550095
     12          6           0       -1.107862    3.045259   -0.217539
     13          6           0       -2.353269    2.828775   -1.096909
     14          6           0        3.028134   -2.797731   -2.455448
     15          6           0        3.357396   -2.158429   -1.264285
     16          6           0        4.027487   -0.156202    2.601257
     17          6           0        3.844610   -0.858658    1.414390
     18          6           0        1.723789   -2.681136   -2.935582
     19          6           0        2.664999   -0.695183    0.677972
     20          6           0        2.384153   -1.431345   -0.568297
     21          6           0        3.007821    0.689652    3.037284
     22          6           0        1.861454    0.804180    2.259655
     23          6           0        0.805361   -1.944698   -2.196379
     24          6           0       -2.716793   -1.786337   -0.186052
     25          6           0       -2.146709   -3.032484   -0.883405
     26          6           0       -2.342451   -1.745361    1.339003
     27          6           0       -4.238427   -1.756512   -0.419231
     28          6           0       -3.114904   -0.653626    2.101147
     29          6           0       -2.593837   -3.089128    2.049513
     30          1           0        1.095558    3.853085   -2.855834
     31          1           0       -0.058911    4.927023   -2.072696
     32          1           0        2.360688    3.281933   -0.831929
     33          1           0        1.403099    4.508521   -0.018791
     34          1           0       -0.639963    3.548333   -3.016411
     35          1           0       -1.278676    5.226841   -0.127472
     36          1           0        1.563786    2.894820    0.693702
     37          1           0       -0.499528    4.525021    1.296182
     38          1           0       -2.562296    3.720976   -1.691371
     39          1           0        3.776793   -3.361762   -3.002220
     40          1           0        4.372797   -2.209715   -0.890445
     41          1           0       -2.248958    4.376000    1.070631
     42          1           0        4.938019   -0.278221    3.178770
     43          1           0        4.609866   -1.545727    1.074168
     44          1           0       -2.253293    1.990845   -1.793685
     45          1           0        1.417316   -3.146807   -3.866021
     46          1           0        3.089754    1.248895    3.963038
     47          1           0       -3.239584    2.659192   -0.473011
     48          1           0        1.048838    1.442513    2.587907
     49          1           0       -0.213203   -1.831495   -2.544459
     50          1           0       -2.311309   -2.970567   -1.965623
     51          1           0       -1.076990   -3.175760   -0.711074
     52          1           0       -3.141891    0.305969    1.577769
     53          1           0       -4.456314   -1.833160   -1.490089
     54          1           0       -4.702192   -0.837169   -0.047584
     55          1           0       -2.673369   -0.489745    3.090898
     56          1           0       -2.667211   -3.930358   -0.543202
     57          1           0       -4.150392   -0.960788    2.264523
     58          1           0       -4.732696   -2.601120    0.069709
     59          1           0       -1.962187   -3.892554    1.658569
     60          1           0       -2.384744   -2.989705    3.120312
     61          1           0       -3.637079   -3.404019    1.953364
     62          1           0       -0.339801   -2.287258    1.251210
     63          1           0       -0.645220   -1.174749    2.383925
     64          1           0       -2.760209    0.223784   -0.701753
     65          1           0       -1.964457    1.816062    1.210458
     66          1           0       -2.120596   -0.704686   -1.847837
     67          1           0       -0.454959    2.231357    1.567701
     68          1           0       -0.091307    1.396873   -2.342033
     69          1           0        1.407744    1.452445   -1.742714
 ---------------------------------------------------------------------
 Rotational constants (GHZ):      0.1657098      0.1580319      0.1215200
 Leave Link  202 at Sat Aug 28 13:24:23 2010, MaxMem=  131072000 cpu:       0.0
 (Enter /home1/bin/gauss09A/g09/l301.exe)
 General basis read from cards:  (5D, 7F)
 Centers:   1
 LanL2DZ
 ****
 Centers:   2  3  4  5  6  7
 6-311G(d)
 ****
 Centers:   8  9 10 11 12 13 14 15 16 17 18 19 20 21 22 23 24 25 26 27
 Centers:  28 29 30 31 32 33 34 35 36 37 38 39 40 41 42 43 44 45 46 47
 Centers:  48 49 50 51 52 53 54 55 56 57 58 59 60 61 62 63 64 65 66 67
 Centers:  68 69
 6-31G(d)
 ****
 Ernie: Thresh=  0.10000D-02 Tol=  0.10000D-05 Strict=F.
 Ernie:  1 primitive shells out of 492 were deleted.
 AO basis set in the form of general basis input (Overlap normalization):
      1 0
 S   3 1.00       0.000000000000
      0.1508000000D+01 -0.1754110411D+00
      0.5129000000D+00 -0.4465363900D+00
      0.1362000000D+00  0.1295841966D+01
 S   3 1.00       0.000000000000
      0.2565000000D+01 -0.1043105923D+01
      0.1508000000D+01  0.1331478902D+01
      0.5129000000D+00  0.5613064585D+00
 S   1 1.00       0.000000000000
      0.4170000000D-01  0.1000000000D+01
 P   3 1.00       0.000000000000
      0.4859000000D+01 -0.9457549473D-01
      0.1219000000D+01  0.7434797586D+00
      0.4413000000D+00  0.3668143796D+00
 P   2 1.00       0.000000000000
      0.5725000000D+00 -0.8808640317D-01
      0.8300000000D-01  0.1028397037D+01
 P   1 1.00       0.000000000000
      0.2500000000D-01  0.1000000000D+01
 D   3 1.00       0.000000000000
      0.4195000000D+01  0.4857290090D-01
      0.1377000000D+01  0.5105223094D+00
      0.4828000000D+00  0.5730028106D+00
 D   1 1.00       0.000000000000
      0.1501000000D+00  0.1000000000D+01
 ****
      2 0
 S   6 1.00       0.000000000000
      0.6293480000D+04  0.1969788147D-02
      0.9490440000D+03  0.1496128592D-01
      0.2187760000D+03  0.7350053084D-01
      0.6369160000D+02  0.2489367658D+00
      0.1882820000D+02  0.6024594331D+00
      0.2720230000D+01  0.2562017589D+00
 SP   3 1.00       0.000000000000
      0.3063310000D+02  0.1119060795D+00  0.3831191864D-01
      0.7026140000D+01  0.9216666549D+00  0.2374031155D+00
      0.2112050000D+01 -0.2569191826D-02  0.8175923978D+00
 SP   1 1.00       0.000000000000
      0.6840090000D+00  0.1000000000D+01  0.1000000000D+01
 SP   1 1.00       0.000000000000
      0.2008780000D+00  0.1000000000D+01  0.1000000000D+01
 D   1 1.00       0.000000000000
      0.9130000000D+00  0.1000000000D+01
 ****
      3 0
 S   6 1.00       0.000000000000
      0.6293480000D+04  0.1969788147D-02
      0.9490440000D+03  0.1496128592D-01
      0.2187760000D+03  0.7350053084D-01
      0.6369160000D+02  0.2489367658D+00
      0.1882820000D+02  0.6024594331D+00
      0.2720230000D+01  0.2562017589D+00
 SP   3 1.00       0.000000000000
      0.3063310000D+02  0.1119060795D+00  0.3831191864D-01
      0.7026140000D+01  0.9216666549D+00  0.2374031155D+00
      0.2112050000D+01 -0.2569191826D-02  0.8175923978D+00
 SP   1 1.00       0.000000000000
      0.6840090000D+00  0.1000000000D+01  0.1000000000D+01
 SP   1 1.00       0.000000000000
      0.2008780000D+00  0.1000000000D+01  0.1000000000D+01
 D   1 1.00       0.000000000000
      0.9130000000D+00  0.1000000000D+01
 ****
      4 0
 S   6 1.00       0.000000000000
      0.6293480000D+04  0.1969788147D-02
      0.9490440000D+03  0.1496128592D-01
      0.2187760000D+03  0.7350053084D-01
      0.6369160000D+02  0.2489367658D+00
      0.1882820000D+02  0.6024594331D+00
      0.2720230000D+01  0.2562017589D+00
 SP   3 1.00       0.000000000000
      0.3063310000D+02  0.1119060795D+00  0.3831191864D-01
      0.7026140000D+01  0.9216666549D+00  0.2374031155D+00
      0.2112050000D+01 -0.2569191826D-02  0.8175923978D+00
 SP   1 1.00       0.000000000000
      0.6840090000D+00  0.1000000000D+01  0.1000000000D+01
 SP   1 1.00       0.000000000000
      0.2008780000D+00  0.1000000000D+01  0.1000000000D+01
 D   1 1.00       0.000000000000
      0.9130000000D+00  0.1000000000D+01
 ****
      5 0
 S   6 1.00       0.000000000000
      0.6293480000D+04  0.1969788147D-02
      0.9490440000D+03  0.1496128592D-01
      0.2187760000D+03  0.7350053084D-01
      0.6369160000D+02  0.2489367658D+00
      0.1882820000D+02  0.6024594331D+00
      0.2720230000D+01  0.2562017589D+00
 SP   3 1.00       0.000000000000
      0.3063310000D+02  0.1119060795D+00  0.3831191864D-01
      0.7026140000D+01  0.9216666549D+00  0.2374031155D+00
      0.2112050000D+01 -0.2569191826D-02  0.8175923978D+00
 SP   1 1.00       0.000000000000
      0.6840090000D+00  0.1000000000D+01  0.1000000000D+01
 SP   1 1.00       0.000000000000
      0.2008780000D+00  0.1000000000D+01  0.1000000000D+01
 D   1 1.00       0.000000000000
      0.9130000000D+00  0.1000000000D+01
 ****
      6 0
 S   6 1.00       0.000000000000
      0.6293480000D+04  0.1969788147D-02
      0.9490440000D+03  0.1496128592D-01
      0.2187760000D+03  0.7350053084D-01
      0.6369160000D+02  0.2489367658D+00
      0.1882820000D+02  0.6024594331D+00
      0.2720230000D+01  0.2562017589D+00
 SP   3 1.00       0.000000000000
      0.3063310000D+02  0.1119060795D+00  0.3831191864D-01
      0.7026140000D+01  0.9216666549D+00  0.2374031155D+00
      0.2112050000D+01 -0.2569191826D-02  0.8175923978D+00
 SP   1 1.00       0.000000000000
      0.6840090000D+00  0.1000000000D+01  0.1000000000D+01
 SP   1 1.00       0.000000000000
      0.2008780000D+00  0.1000000000D+01  0.1000000000D+01
 D   1 1.00       0.000000000000
      0.9130000000D+00  0.1000000000D+01
 ****
      7 0
 S   6 1.00       0.000000000000
      0.6293480000D+04  0.1969788147D-02
      0.9490440000D+03  0.1496128592D-01
      0.2187760000D+03  0.7350053084D-01
      0.6369160000D+02  0.2489367658D+00
      0.1882820000D+02  0.6024594331D+00
      0.2720230000D+01  0.2562017589D+00
 SP   3 1.00       0.000000000000
      0.3063310000D+02  0.1119060795D+00  0.3831191864D-01
      0.7026140000D+01  0.9216666549D+00  0.2374031155D+00
      0.2112050000D+01 -0.2569191826D-02  0.8175923978D+00
 SP   1 1.00       0.000000000000
      0.6840090000D+00  0.1000000000D+01  0.1000000000D+01
 SP   1 1.00       0.000000000000
      0.2008780000D+00  0.1000000000D+01  0.1000000000D+01
 D   1 1.00       0.000000000000
      0.9130000000D+00  0.1000000000D+01
 ****
      8 0
 S   6 1.00       0.000000000000
      0.3047524880D+04  0.1834737132D-02
      0.4573695180D+03  0.1403732281D-01
      0.1039486850D+03  0.6884262226D-01
      0.2921015530D+02  0.2321844432D+00
      0.9286662960D+01  0.4679413484D+00
      0.3163926960D+01  0.3623119853D+00
 SP   3 1.00       0.000000000000
      0.7868272350D+01 -0.1193324198D+00  0.6899906659D-01
      0.1881288540D+01 -0.1608541517D+00  0.3164239610D+00
      0.5442492580D+00  0.1143456438D+01  0.7443082909D+00
 SP   1 1.00       0.000000000000
      0.1687144782D+00  0.1000000000D+01  0.1000000000D+01
 D   1 1.00       0.000000000000
      0.8000000000D+00  0.1000000000D+01
 ****
      9 0
 S   6 1.00       0.000000000000
      0.3047524880D+04  0.1834737132D-02
      0.4573695180D+03  0.1403732281D-01
      0.1039486850D+03  0.6884262226D-01
      0.2921015530D+02  0.2321844432D+00
      0.9286662960D+01  0.4679413484D+00
      0.3163926960D+01  0.3623119853D+00
 SP   3 1.00       0.000000000000
      0.7868272350D+01 -0.1193324198D+00  0.6899906659D-01
      0.1881288540D+01 -0.1608541517D+00  0.3164239610D+00
      0.5442492580D+00  0.1143456438D+01  0.7443082909D+00
 SP   1 1.00       0.000000000000
      0.1687144782D+00  0.1000000000D+01  0.1000000000D+01
 D   1 1.00       0.000000000000
      0.8000000000D+00  0.1000000000D+01
 ****
     10 0
 S   6 1.00       0.000000000000
      0.3047524880D+04  0.1834737132D-02
      0.4573695180D+03  0.1403732281D-01
      0.1039486850D+03  0.6884262226D-01
      0.2921015530D+02  0.2321844432D+00
      0.9286662960D+01  0.4679413484D+00
      0.3163926960D+01  0.3623119853D+00
 SP   3 1.00       0.000000000000
      0.7868272350D+01 -0.1193324198D+00  0.6899906659D-01
      0.1881288540D+01 -0.1608541517D+00  0.3164239610D+00
      0.5442492580D+00  0.1143456438D+01  0.7443082909D+00
 SP   1 1.00       0.000000000000
      0.1687144782D+00  0.1000000000D+01  0.1000000000D+01
 D   1 1.00       0.000000000000
      0.8000000000D+00  0.1000000000D+01
 ****
     11 0
 S   6 1.00       0.000000000000
      0.3047524880D+04  0.1834737132D-02
      0.4573695180D+03  0.1403732281D-01
      0.1039486850D+03  0.6884262226D-01
      0.2921015530D+02  0.2321844432D+00
      0.9286662960D+01  0.4679413484D+00
      0.3163926960D+01  0.3623119853D+00
 SP   3 1.00       0.000000000000
      0.7868272350D+01 -0.1193324198D+00  0.6899906659D-01
      0.1881288540D+01 -0.1608541517D+00  0.3164239610D+00
      0.5442492580D+00  0.1143456438D+01  0.7443082909D+00
 SP   1 1.00       0.000000000000
      0.1687144782D+00  0.1000000000D+01  0.1000000000D+01
 D   1 1.00       0.000000000000
      0.8000000000D+00  0.1000000000D+01
 ****
     12 0
 S   6 1.00       0.000000000000
      0.3047524880D+04  0.1834737132D-02
      0.4573695180D+03  0.1403732281D-01
      0.1039486850D+03  0.6884262226D-01
      0.2921015530D+02  0.2321844432D+00
      0.9286662960D+01  0.4679413484D+00
      0.3163926960D+01  0.3623119853D+00
 SP   3 1.00       0.000000000000
      0.7868272350D+01 -0.1193324198D+00  0.6899906659D-01
      0.1881288540D+01 -0.1608541517D+00  0.3164239610D+00
      0.5442492580D+00  0.1143456438D+01  0.7443082909D+00
 SP   1 1.00       0.000000000000
      0.1687144782D+00  0.1000000000D+01  0.1000000000D+01
 D   1 1.00       0.000000000000
      0.8000000000D+00  0.1000000000D+01
 ****
     13 0
 S   6 1.00       0.000000000000
      0.3047524880D+04  0.1834737132D-02
      0.4573695180D+03  0.1403732281D-01
      0.1039486850D+03  0.6884262226D-01
      0.2921015530D+02  0.2321844432D+00
      0.9286662960D+01  0.4679413484D+00
      0.3163926960D+01  0.3623119853D+00
 SP   3 1.00       0.000000000000
      0.7868272350D+01 -0.1193324198D+00  0.6899906659D-01
      0.1881288540D+01 -0.1608541517D+00  0.3164239610D+00
      0.5442492580D+00  0.1143456438D+01  0.7443082909D+00
 SP   1 1.00       0.000000000000
      0.1687144782D+00  0.1000000000D+01  0.1000000000D+01
 D   1 1.00       0.000000000000
      0.8000000000D+00  0.1000000000D+01
 ****
     14 0
 S   6 1.00       0.000000000000
      0.3047524880D+04  0.1834737132D-02
      0.4573695180D+03  0.1403732281D-01
      0.1039486850D+03  0.6884262226D-01
      0.2921015530D+02  0.2321844432D+00
      0.9286662960D+01  0.4679413484D+00
      0.3163926960D+01  0.3623119853D+00
 SP   3 1.00       0.000000000000
      0.7868272350D+01 -0.1193324198D+00  0.6899906659D-01
      0.1881288540D+01 -0.1608541517D+00  0.3164239610D+00
      0.5442492580D+00  0.1143456438D+01  0.7443082909D+00
 SP   1 1.00       0.000000000000
      0.1687144782D+00  0.1000000000D+01  0.1000000000D+01
 D   1 1.00       0.000000000000
      0.8000000000D+00  0.1000000000D+01
 ****
     15 0
 S   6 1.00       0.000000000000
      0.3047524880D+04  0.1834737132D-02
      0.4573695180D+03  0.1403732281D-01
      0.1039486850D+03  0.6884262226D-01
      0.2921015530D+02  0.2321844432D+00
      0.9286662960D+01  0.4679413484D+00
      0.3163926960D+01  0.3623119853D+00
 SP   3 1.00       0.000000000000
      0.7868272350D+01 -0.1193324198D+00  0.6899906659D-01
      0.1881288540D+01 -0.1608541517D+00  0.3164239610D+00
      0.5442492580D+00  0.1143456438D+01  0.7443082909D+00
 SP   1 1.00       0.000000000000
      0.1687144782D+00  0.1000000000D+01  0.1000000000D+01
 D   1 1.00       0.000000000000
      0.8000000000D+00  0.1000000000D+01
 ****
     16 0
 S   6 1.00       0.000000000000
      0.3047524880D+04  0.1834737132D-02
      0.4573695180D+03  0.1403732281D-01
      0.1039486850D+03  0.6884262226D-01
      0.2921015530D+02  0.2321844432D+00
      0.9286662960D+01  0.4679413484D+00
      0.3163926960D+01  0.3623119853D+00
 SP   3 1.00       0.000000000000
      0.7868272350D+01 -0.1193324198D+00  0.6899906659D-01
      0.1881288540D+01 -0.1608541517D+00  0.3164239610D+00
      0.5442492580D+00  0.1143456438D+01  0.7443082909D+00
 SP   1 1.00       0.000000000000
      0.1687144782D+00  0.1000000000D+01  0.1000000000D+01
 D   1 1.00       0.000000000000
      0.8000000000D+00  0.1000000000D+01
 ****
     17 0
 S   6 1.00       0.000000000000
      0.3047524880D+04  0.1834737132D-02
      0.4573695180D+03  0.1403732281D-01
      0.1039486850D+03  0.6884262226D-01
      0.2921015530D+02  0.2321844432D+00
      0.9286662960D+01  0.4679413484D+00
      0.3163926960D+01  0.3623119853D+00
 SP   3 1.00       0.000000000000
      0.7868272350D+01 -0.1193324198D+00  0.6899906659D-01
      0.1881288540D+01 -0.1608541517D+00  0.3164239610D+00
      0.5442492580D+00  0.1143456438D+01  0.7443082909D+00
 SP   1 1.00       0.000000000000
      0.1687144782D+00  0.1000000000D+01  0.1000000000D+01
 D   1 1.00       0.000000000000
      0.8000000000D+00  0.1000000000D+01
 ****
     18 0
 S   6 1.00       0.000000000000
      0.3047524880D+04  0.1834737132D-02
      0.4573695180D+03  0.1403732281D-01
      0.1039486850D+03  0.6884262226D-01
      0.2921015530D+02  0.2321844432D+00
      0.9286662960D+01  0.4679413484D+00
      0.3163926960D+01  0.3623119853D+00
 SP   3 1.00       0.000000000000
      0.7868272350D+01 -0.1193324198D+00  0.6899906659D-01
      0.1881288540D+01 -0.1608541517D+00  0.3164239610D+00
      0.5442492580D+00  0.1143456438D+01  0.7443082909D+00
 SP   1 1.00       0.000000000000
      0.1687144782D+00  0.1000000000D+01  0.1000000000D+01
 D   1 1.00       0.000000000000
      0.8000000000D+00  0.1000000000D+01
 ****
     19 0
 S   6 1.00       0.000000000000
      0.3047524880D+04  0.1834737132D-02
      0.4573695180D+03  0.1403732281D-01
      0.1039486850D+03  0.6884262226D-01
      0.2921015530D+02  0.2321844432D+00
      0.9286662960D+01  0.4679413484D+00
      0.3163926960D+01  0.3623119853D+00
 SP   3 1.00       0.000000000000
      0.7868272350D+01 -0.1193324198D+00  0.6899906659D-01
      0.1881288540D+01 -0.1608541517D+00  0.3164239610D+00
      0.5442492580D+00  0.1143456438D+01  0.7443082909D+00
 SP   1 1.00       0.000000000000
      0.1687144782D+00  0.1000000000D+01  0.1000000000D+01
 D   1 1.00       0.000000000000
      0.8000000000D+00  0.1000000000D+01
 ****
     20 0
 S   6 1.00       0.000000000000
      0.3047524880D+04  0.1834737132D-02
      0.4573695180D+03  0.1403732281D-01
      0.1039486850D+03  0.6884262226D-01
      0.2921015530D+02  0.2321844432D+00
      0.9286662960D+01  0.4679413484D+00
      0.3163926960D+01  0.3623119853D+00
 SP   3 1.00       0.000000000000
      0.7868272350D+01 -0.1193324198D+00  0.6899906659D-01
      0.1881288540D+01 -0.1608541517D+00  0.3164239610D+00
      0.5442492580D+00  0.1143456438D+01  0.7443082909D+00
 SP   1 1.00       0.000000000000
      0.1687144782D+00  0.1000000000D+01  0.1000000000D+01
 D   1 1.00       0.000000000000
      0.8000000000D+00  0.1000000000D+01
 ****
     21 0
 S   6 1.00       0.000000000000
      0.3047524880D+04  0.1834737132D-02
      0.4573695180D+03  0.1403732281D-01
      0.1039486850D+03  0.6884262226D-01
      0.2921015530D+02  0.2321844432D+00
      0.9286662960D+01  0.4679413484D+00
      0.3163926960D+01  0.3623119853D+00
 SP   3 1.00       0.000000000000
      0.7868272350D+01 -0.1193324198D+00  0.6899906659D-01
      0.1881288540D+01 -0.1608541517D+00  0.3164239610D+00
      0.5442492580D+00  0.1143456438D+01  0.7443082909D+00
 SP   1 1.00       0.000000000000
      0.1687144782D+00  0.1000000000D+01  0.1000000000D+01
 D   1 1.00       0.000000000000
      0.8000000000D+00  0.1000000000D+01
 ****
     22 0
 S   6 1.00       0.000000000000
      0.3047524880D+04  0.1834737132D-02
      0.4573695180D+03  0.1403732281D-01
      0.1039486850D+03  0.6884262226D-01
      0.2921015530D+02  0.2321844432D+00
      0.9286662960D+01  0.4679413484D+00
      0.3163926960D+01  0.3623119853D+00
 SP   3 1.00       0.000000000000
      0.7868272350D+01 -0.1193324198D+00  0.6899906659D-01
      0.1881288540D+01 -0.1608541517D+00  0.3164239610D+00
      0.5442492580D+00  0.1143456438D+01  0.7443082909D+00
 SP   1 1.00       0.000000000000
      0.1687144782D+00  0.1000000000D+01  0.1000000000D+01
 D   1 1.00       0.000000000000
      0.8000000000D+00  0.1000000000D+01
 ****
     23 0
 S   6 1.00       0.000000000000
      0.3047524880D+04  0.1834737132D-02
      0.4573695180D+03  0.1403732281D-01
      0.1039486850D+03  0.6884262226D-01
      0.2921015530D+02  0.2321844432D+00
      0.9286662960D+01  0.4679413484D+00
      0.3163926960D+01  0.3623119853D+00
 SP   3 1.00       0.000000000000
      0.7868272350D+01 -0.1193324198D+00  0.6899906659D-01
      0.1881288540D+01 -0.1608541517D+00  0.3164239610D+00
      0.5442492580D+00  0.1143456438D+01  0.7443082909D+00
 SP   1 1.00       0.000000000000
      0.1687144782D+00  0.1000000000D+01  0.1000000000D+01
 D   1 1.00       0.000000000000
      0.8000000000D+00  0.1000000000D+01
 ****
     24 0
 S   6 1.00       0.000000000000
      0.3047524880D+04  0.1834737132D-02
      0.4573695180D+03  0.1403732281D-01
      0.1039486850D+03  0.6884262226D-01
      0.2921015530D+02  0.2321844432D+00
      0.9286662960D+01  0.4679413484D+00
      0.3163926960D+01  0.3623119853D+00
 SP   3 1.00       0.000000000000
      0.7868272350D+01 -0.1193324198D+00  0.6899906659D-01
      0.1881288540D+01 -0.1608541517D+00  0.3164239610D+00
      0.5442492580D+00  0.1143456438D+01  0.7443082909D+00
 SP   1 1.00       0.000000000000
      0.1687144782D+00  0.1000000000D+01  0.1000000000D+01
 D   1 1.00       0.000000000000
      0.8000000000D+00  0.1000000000D+01
 ****
     25 0
 S   6 1.00       0.000000000000
      0.3047524880D+04  0.1834737132D-02
      0.4573695180D+03  0.1403732281D-01
      0.1039486850D+03  0.6884262226D-01
      0.2921015530D+02  0.2321844432D+00
      0.9286662960D+01  0.4679413484D+00
      0.3163926960D+01  0.3623119853D+00
 SP   3 1.00       0.000000000000
      0.7868272350D+01 -0.1193324198D+00  0.6899906659D-01
      0.1881288540D+01 -0.1608541517D+00  0.3164239610D+00
      0.5442492580D+00  0.1143456438D+01  0.7443082909D+00
 SP   1 1.00       0.000000000000
      0.1687144782D+00  0.1000000000D+01  0.1000000000D+01
 D   1 1.00       0.000000000000
      0.8000000000D+00  0.1000000000D+01
 ****
     26 0
 S   6 1.00       0.000000000000
      0.3047524880D+04  0.1834737132D-02
      0.4573695180D+03  0.1403732281D-01
      0.1039486850D+03  0.6884262226D-01
      0.2921015530D+02  0.2321844432D+00
      0.9286662960D+01  0.4679413484D+00
      0.3163926960D+01  0.3623119853D+00
 SP   3 1.00       0.000000000000
      0.7868272350D+01 -0.1193324198D+00  0.6899906659D-01
      0.1881288540D+01 -0.1608541517D+00  0.3164239610D+00
      0.5442492580D+00  0.1143456438D+01  0.7443082909D+00
 SP   1 1.00       0.000000000000
      0.1687144782D+00  0.1000000000D+01  0.1000000000D+01
 D   1 1.00       0.000000000000
      0.8000000000D+00  0.1000000000D+01
 ****
     27 0
 S   6 1.00       0.000000000000
      0.3047524880D+04  0.1834737132D-02
      0.4573695180D+03  0.1403732281D-01
      0.1039486850D+03  0.6884262226D-01
      0.2921015530D+02  0.2321844432D+00
      0.9286662960D+01  0.4679413484D+00
      0.3163926960D+01  0.3623119853D+00
 SP   3 1.00       0.000000000000
      0.7868272350D+01 -0.1193324198D+00  0.6899906659D-01
      0.1881288540D+01 -0.1608541517D+00  0.3164239610D+00
      0.5442492580D+00  0.1143456438D+01  0.7443082909D+00
 SP   1 1.00       0.000000000000
      0.1687144782D+00  0.1000000000D+01  0.1000000000D+01
 D   1 1.00       0.000000000000
      0.8000000000D+00  0.1000000000D+01
 ****
     28 0
 S   6 1.00       0.000000000000
      0.3047524880D+04  0.1834737132D-02
      0.4573695180D+03  0.1403732281D-01
      0.1039486850D+03  0.6884262226D-01
      0.2921015530D+02  0.2321844432D+00
      0.9286662960D+01  0.4679413484D+00
      0.3163926960D+01  0.3623119853D+00
 SP   3 1.00       0.000000000000
      0.7868272350D+01 -0.1193324198D+00  0.6899906659D-01
      0.1881288540D+01 -0.1608541517D+00  0.3164239610D+00
      0.5442492580D+00  0.1143456438D+01  0.7443082909D+00
 SP   1 1.00       0.000000000000
      0.1687144782D+00  0.1000000000D+01  0.1000000000D+01
 D   1 1.00       0.000000000000
      0.8000000000D+00  0.1000000000D+01
 ****
     29 0
 S   6 1.00       0.000000000000
      0.3047524880D+04  0.1834737132D-02
      0.4573695180D+03  0.1403732281D-01
      0.1039486850D+03  0.6884262226D-01
      0.2921015530D+02  0.2321844432D+00
      0.9286662960D+01  0.4679413484D+00
      0.3163926960D+01  0.3623119853D+00
 SP   3 1.00       0.000000000000
      0.7868272350D+01 -0.1193324198D+00  0.6899906659D-01
      0.1881288540D+01 -0.1608541517D+00  0.3164239610D+00
      0.5442492580D+00  0.1143456438D+01  0.7443082909D+00
 SP   1 1.00       0.000000000000
      0.1687144782D+00  0.1000000000D+01  0.1000000000D+01
 D   1 1.00       0.000000000000
      0.8000000000D+00  0.1000000000D+01
 ****
     30 0
 S   3 1.00       0.000000000000
      0.1873113696D+02  0.3349460434D-01
      0.2825394365D+01  0.2347269535D+00
      0.6401216923D+00  0.8137573261D+00
 S   1 1.00       0.000000000000
      0.1612777588D+00  0.1000000000D+01
 ****
     31 0
 S   3 1.00       0.000000000000
      0.1873113696D+02  0.3349460434D-01
      0.2825394365D+01  0.2347269535D+00
      0.6401216923D+00  0.8137573261D+00
 S   1 1.00       0.000000000000
      0.1612777588D+00  0.1000000000D+01
 ****
     32 0
 S   3 1.00       0.000000000000
      0.1873113696D+02  0.3349460434D-01
      0.2825394365D+01  0.2347269535D+00
      0.6401216923D+00  0.8137573261D+00
 S   1 1.00       0.000000000000
      0.1612777588D+00  0.1000000000D+01
 ****
     33 0
 S   3 1.00       0.000000000000
      0.1873113696D+02  0.3349460434D-01
      0.2825394365D+01  0.2347269535D+00
      0.6401216923D+00  0.8137573261D+00
 S   1 1.00       0.000000000000
      0.1612777588D+00  0.1000000000D+01
 ****
     34 0
 S   3 1.00       0.000000000000
      0.1873113696D+02  0.3349460434D-01
      0.2825394365D+01  0.2347269535D+00
      0.6401216923D+00  0.8137573261D+00
 S   1 1.00       0.000000000000
      0.1612777588D+00  0.1000000000D+01
 ****
     35 0
 S   3 1.00       0.000000000000
      0.1873113696D+02  0.3349460434D-01
      0.2825394365D+01  0.2347269535D+00
      0.6401216923D+00  0.8137573261D+00
 S   1 1.00       0.000000000000
      0.1612777588D+00  0.1000000000D+01
 ****
     36 0
 S   3 1.00       0.000000000000
      0.1873113696D+02  0.3349460434D-01
      0.2825394365D+01  0.2347269535D+00
      0.6401216923D+00  0.8137573261D+00
 S   1 1.00       0.000000000000
      0.1612777588D+00  0.1000000000D+01
 ****
     37 0
 S   3 1.00       0.000000000000
      0.1873113696D+02  0.3349460434D-01
      0.2825394365D+01  0.2347269535D+00
      0.6401216923D+00  0.8137573261D+00
 S   1 1.00       0.000000000000
      0.1612777588D+00  0.1000000000D+01
 ****
     38 0
 S   3 1.00       0.000000000000
      0.1873113696D+02  0.3349460434D-01
      0.2825394365D+01  0.2347269535D+00
      0.6401216923D+00  0.8137573261D+00
 S   1 1.00       0.000000000000
      0.1612777588D+00  0.1000000000D+01
 ****
     39 0
 S   3 1.00       0.000000000000
      0.1873113696D+02  0.3349460434D-01
      0.2825394365D+01  0.2347269535D+00
      0.6401216923D+00  0.8137573261D+00
 S   1 1.00       0.000000000000
      0.1612777588D+00  0.1000000000D+01
 ****
     40 0
 S   3 1.00       0.000000000000
      0.1873113696D+02  0.3349460434D-01
      0.2825394365D+01  0.2347269535D+00
      0.6401216923D+00  0.8137573261D+00
 S   1 1.00       0.000000000000
      0.1612777588D+00  0.1000000000D+01
 ****
     41 0
 S   3 1.00       0.000000000000
      0.1873113696D+02  0.3349460434D-01
      0.2825394365D+01  0.2347269535D+00
      0.6401216923D+00  0.8137573261D+00
 S   1 1.00       0.000000000000
      0.1612777588D+00  0.1000000000D+01
 ****
     42 0
 S   3 1.00       0.000000000000
      0.1873113696D+02  0.3349460434D-01
      0.2825394365D+01  0.2347269535D+00
      0.6401216923D+00  0.8137573261D+00
 S   1 1.00       0.000000000000
      0.1612777588D+00  0.1000000000D+01
 ****
     43 0
 S   3 1.00       0.000000000000
      0.1873113696D+02  0.3349460434D-01
      0.2825394365D+01  0.2347269535D+00
      0.6401216923D+00  0.8137573261D+00
 S   1 1.00       0.000000000000
      0.1612777588D+00  0.1000000000D+01
 ****
     44 0
 S   3 1.00       0.000000000000
      0.1873113696D+02  0.3349460434D-01
      0.2825394365D+01  0.2347269535D+00
      0.6401216923D+00  0.8137573261D+00
 S   1 1.00       0.000000000000
      0.1612777588D+00  0.1000000000D+01
 ****
     45 0
 S   3 1.00       0.000000000000
      0.1873113696D+02  0.3349460434D-01
      0.2825394365D+01  0.2347269535D+00
      0.6401216923D+00  0.8137573261D+00
 S   1 1.00       0.000000000000
      0.1612777588D+00  0.1000000000D+01
 ****
     46 0
 S   3 1.00       0.000000000000
      0.1873113696D+02  0.3349460434D-01
      0.2825394365D+01  0.2347269535D+00
      0.6401216923D+00  0.8137573261D+00
 S   1 1.00       0.000000000000
      0.1612777588D+00  0.1000000000D+01
 ****
     47 0
 S   3 1.00       0.000000000000
      0.1873113696D+02  0.3349460434D-01
      0.2825394365D+01  0.2347269535D+00
      0.6401216923D+00  0.8137573261D+00
 S   1 1.00       0.000000000000
      0.1612777588D+00  0.1000000000D+01
 ****
     48 0
 S   3 1.00       0.000000000000
      0.1873113696D+02  0.3349460434D-01
      0.2825394365D+01  0.2347269535D+00
      0.6401216923D+00  0.8137573261D+00
 S   1 1.00       0.000000000000
      0.1612777588D+00  0.1000000000D+01
 ****
     49 0
 S   3 1.00       0.000000000000
      0.1873113696D+02  0.3349460434D-01
      0.2825394365D+01  0.2347269535D+00
      0.6401216923D+00  0.8137573261D+00
 S   1 1.00       0.000000000000
      0.1612777588D+00  0.1000000000D+01
 ****
     50 0
 S   3 1.00       0.000000000000
      0.1873113696D+02  0.3349460434D-01
      0.2825394365D+01  0.2347269535D+00
      0.6401216923D+00  0.8137573261D+00
 S   1 1.00       0.000000000000
      0.1612777588D+00  0.1000000000D+01
 ****
     51 0
 S   3 1.00       0.000000000000
      0.1873113696D+02  0.3349460434D-01
      0.2825394365D+01  0.2347269535D+00
      0.6401216923D+00  0.8137573261D+00
 S   1 1.00       0.000000000000
      0.1612777588D+00  0.1000000000D+01
 ****
     52 0
 S   3 1.00       0.000000000000
      0.1873113696D+02  0.3349460434D-01
      0.2825394365D+01  0.2347269535D+00
      0.6401216923D+00  0.8137573261D+00
 S   1 1.00       0.000000000000
      0.1612777588D+00  0.1000000000D+01
 ****
     53 0
 S   3 1.00       0.000000000000
      0.1873113696D+02  0.3349460434D-01
      0.2825394365D+01  0.2347269535D+00
      0.6401216923D+00  0.8137573261D+00
 S   1 1.00       0.000000000000
      0.1612777588D+00  0.1000000000D+01
 ****
     54 0
 S   3 1.00       0.000000000000
      0.1873113696D+02  0.3349460434D-01
      0.2825394365D+01  0.2347269535D+00
      0.6401216923D+00  0.8137573261D+00
 S   1 1.00       0.000000000000
      0.1612777588D+00  0.1000000000D+01
 ****
     55 0
 S   3 1.00       0.000000000000
      0.1873113696D+02  0.3349460434D-01
      0.2825394365D+01  0.2347269535D+00
      0.6401216923D+00  0.8137573261D+00
 S   1 1.00       0.000000000000
      0.1612777588D+00  0.1000000000D+01
 ****
     56 0
 S   3 1.00       0.000000000000
      0.1873113696D+02  0.3349460434D-01
      0.2825394365D+01  0.2347269535D+00
      0.6401216923D+00  0.8137573261D+00
 S   1 1.00       0.000000000000
      0.1612777588D+00  0.1000000000D+01
 ****
     57 0
 S   3 1.00       0.000000000000
      0.1873113696D+02  0.3349460434D-01
      0.2825394365D+01  0.2347269535D+00
      0.6401216923D+00  0.8137573261D+00
 S   1 1.00       0.000000000000
      0.1612777588D+00  0.1000000000D+01
 ****
     58 0
 S   3 1.00       0.000000000000
      0.1873113696D+02  0.3349460434D-01
      0.2825394365D+01  0.2347269535D+00
      0.6401216923D+00  0.8137573261D+00
 S   1 1.00       0.000000000000
      0.1612777588D+00  0.1000000000D+01
 ****
     59 0
 S   3 1.00       0.000000000000
      0.1873113696D+02  0.3349460434D-01
      0.2825394365D+01  0.2347269535D+00
      0.6401216923D+00  0.8137573261D+00
 S   1 1.00       0.000000000000
      0.1612777588D+00  0.1000000000D+01
 ****
     60 0
 S   3 1.00       0.000000000000
      0.1873113696D+02  0.3349460434D-01
      0.2825394365D+01  0.2347269535D+00
      0.6401216923D+00  0.8137573261D+00
 S   1 1.00       0.000000000000
      0.1612777588D+00  0.1000000000D+01
 ****
     61 0
 S   3 1.00       0.000000000000
      0.1873113696D+02  0.3349460434D-01
      0.2825394365D+01  0.2347269535D+00
      0.6401216923D+00  0.8137573261D+00
 S   1 1.00       0.000000000000
      0.1612777588D+00  0.1000000000D+01
 ****
     62 0
 S   3 1.00       0.000000000000
      0.1873113696D+02  0.3349460434D-01
      0.2825394365D+01  0.2347269535D+00
      0.6401216923D+00  0.8137573261D+00
 S   1 1.00       0.000000000000
      0.1612777588D+00  0.1000000000D+01
 ****
     63 0
 S   3 1.00       0.000000000000
      0.1873113696D+02  0.3349460434D-01
      0.2825394365D+01  0.2347269535D+00
      0.6401216923D+00  0.8137573261D+00
 S   1 1.00       0.000000000000
      0.1612777588D+00  0.1000000000D+01
 ****
     64 0
 S   3 1.00       0.000000000000
      0.1873113696D+02  0.3349460434D-01
      0.2825394365D+01  0.2347269535D+00
      0.6401216923D+00  0.8137573261D+00
 S   1 1.00       0.000000000000
      0.1612777588D+00  0.1000000000D+01
 ****
     65 0
 S   3 1.00       0.000000000000
      0.1873113696D+02  0.3349460434D-01
      0.2825394365D+01  0.2347269535D+00
      0.6401216923D+00  0.8137573261D+00
 S   1 1.00       0.000000000000
      0.1612777588D+00  0.1000000000D+01
 ****
     66 0
 S   3 1.00       0.000000000000
      0.1873113696D+02  0.3349460434D-01
      0.2825394365D+01  0.2347269535D+00
      0.6401216923D+00  0.8137573261D+00
 S   1 1.00       0.000000000000
      0.1612777588D+00  0.1000000000D+01
 ****
     67 0
 S   3 1.00       0.000000000000
      0.1873113696D+02  0.3349460434D-01
      0.2825394365D+01  0.2347269535D+00
      0.6401216923D+00  0.8137573261D+00
 S   1 1.00       0.000000000000
      0.1612777588D+00  0.1000000000D+01
 ****
     68 0
 S   3 1.00       0.000000000000
      0.1873113696D+02  0.3349460434D-01
      0.2825394365D+01  0.2347269535D+00
      0.6401216923D+00  0.8137573261D+00
 S   1 1.00       0.000000000000
      0.1612777588D+00  0.1000000000D+01
 ****
     69 0
 S   3 1.00       0.000000000000
      0.1873113696D+02  0.3349460434D-01
      0.2825394365D+01  0.2347269535D+00
      0.6401216923D+00  0.8137573261D+00
 S   1 1.00       0.000000000000
      0.1612777588D+00  0.1000000000D+01
 ****

 ======================================================================================================
                                       Pseudopotential Parameters
 ======================================================================================================
  Center     Atomic      Valence      Angular      Power
  Number     Number     Electrons     Momentum     of R      Exponent        Coefficient   SO-Coeffient
 ======================================================================================================
    1         44           16
                                      F and up 
                                                     0      554.3796303       -0.05152700    0.00000000
                                                     1      155.1066871      -20.18165360    0.00000000
                                                     2       48.4976263     -105.99669150    0.00000000
                                                     2       14.7701594      -42.21667880    0.00000000
                                                     2        5.2077363       -3.76750240    0.00000000
                                      S - F
                                                     0       66.7118060        2.95783440    0.00000000
                                                     1       77.3503632       25.37487070    0.00000000
                                                     2       18.3571445      536.12623720    0.00000000
                                                     2       11.8404727     -651.20572210    0.00000000
                                                     2        8.1179479      381.38169430    0.00000000
                                      P - F
                                                     0       54.9937915        4.96515570    0.00000000
                                                     1       13.9399212       23.88615010    0.00000000
                                                     2       15.2118246      464.46313440    0.00000000
                                                     2       10.5460691     -714.44517880    0.00000000
                                                     2        7.5539486      377.55035940    0.00000000
                                      D - F
                                                     0       60.3444595        3.03529880    0.00000000
                                                     1       45.2100305       23.29017230    0.00000000
                                                     2       19.1190074      146.09266200    0.00000000
                                                     2        4.2712090       28.91297700    0.00000000
    2          7
                                   No pseudopotential on this center.
    3          7
                                   No pseudopotential on this center.
    4          7
                                   No pseudopotential on this center.
    5          7
                                   No pseudopotential on this center.
    6          7
                                   No pseudopotential on this center.
    7          7
                                   No pseudopotential on this center.
    8          6
                                   No pseudopotential on this center.
    9          6
                                   No pseudopotential on this center.
   10          6
                                   No pseudopotential on this center.
   11          6
                                   No pseudopotential on this center.
   12          6
                                   No pseudopotential on this center.
   13          6
                                   No pseudopotential on this center.
   14          6
                                   No pseudopotential on this center.
   15          6
                                   No pseudopotential on this center.
   16          6
                                   No pseudopotential on this center.
   17          6
                                   No pseudopotential on this center.
   18          6
                                   No pseudopotential on this center.
   19          6
                                   No pseudopotential on this center.
   20          6
                                   No pseudopotential on this center.
   21          6
                                   No pseudopotential on this center.
   22          6
                                   No pseudopotential on this center.
   23          6
                                   No pseudopotential on this center.
   24          6
                                   No pseudopotential on this center.
   25          6
                                   No pseudopotential on this center.
   26          6
                                   No pseudopotential on this center.
   27          6
                                   No pseudopotential on this center.
   28          6
                                   No pseudopotential on this center.
   29          6
                                   No pseudopotential on this center.
   30          1
                                   No pseudopotential on this center.
   31          1
                                   No pseudopotential on this center.
   32          1
                                   No pseudopotential on this center.
   33          1
                                   No pseudopotential on this center.
   34          1
                                   No pseudopotential on this center.
   35          1
                                   No pseudopotential on this center.
   36          1
                                   No pseudopotential on this center.
   37          1
                                   No pseudopotential on this center.
   38          1
                                   No pseudopotential on this center.
   39          1
                                   No pseudopotential on this center.
   40          1
                                   No pseudopotential on this center.
   41          1
                                   No pseudopotential on this center.
   42          1
                                   No pseudopotential on this center.
   43          1
                                   No pseudopotential on this center.
   44          1
                                   No pseudopotential on this center.
   45          1
                                   No pseudopotential on this center.
   46          1
                                   No pseudopotential on this center.
   47          1
                                   No pseudopotential on this center.
   48          1
                                   No pseudopotential on this center.
   49          1
                                   No pseudopotential on this center.
   50          1
                                   No pseudopotential on this center.
   51          1
                                   No pseudopotential on this center.
   52          1
                                   No pseudopotential on this center.
   53          1
                                   No pseudopotential on this center.
   54          1
                                   No pseudopotential on this center.
   55          1
                                   No pseudopotential on this center.
   56          1
                                   No pseudopotential on this center.
   57          1
                                   No pseudopotential on this center.
   58          1
                                   No pseudopotential on this center.
   59          1
                                   No pseudopotential on this center.
   60          1
                                   No pseudopotential on this center.
   61          1
                                   No pseudopotential on this center.
   62          1
                                   No pseudopotential on this center.
   63          1
                                   No pseudopotential on this center.
   64          1
                                   No pseudopotential on this center.
   65          1
                                   No pseudopotential on this center.
   66          1
                                   No pseudopotential on this center.
   67          1
                                   No pseudopotential on this center.
   68          1
                                   No pseudopotential on this center.
   69          1
                                   No pseudopotential on this center.
 ======================================================================================================
 There are   518 symmetry adapted basis functions of A   symmetry.
 Integral buffers will be    131072 words long.
 Raffenetti 2 integral format.
 Two-electron integral symmetry is turned on.
   518 basis functions,  1017 primitive gaussians,   548 cartesian basis functions
   114 alpha electrons      114 beta electrons
       nuclear repulsion energy      3489.9265998847 Hartrees.
 IExCor=  402 DFT=T Ex+Corr=B3LYP ExCW=0 ScaHFX=  0.200000
 ScaDFX=  0.800000  0.720000  1.000000  0.810000 ScalE2=  1.000000  1.000000
 IRadAn=      5 IRanWt=     -1 IRanGd=            0 ICorTp=0
 NAtoms=   69 NActive=   69 NUniq=   69 SFac= 7.50D-01 NAtFMM=   80 NAOKFM=F Big=T
 Leave Link  301 at Sat Aug 28 13:24:23 2010, MaxMem=  131072000 cpu:       0.3
 (Enter /home1/bin/gauss09A/g09/l302.exe)
 NPDir=0 NMtPBC=     1 NCelOv=     1 NCel=       1 NClECP=     1 NCelD=      1
         NCelK=      1 NCelE2=     1 NClLst=     1 CellRange=     0.0.
 One-electron integrals computed using PRISM.
   1 Symmetry operations used in ECPInt.
 ECPInt:  NShTT=   21321 NPrTT=  121423 LenC2=   18562 LenP2D=   59867.
 LDataN:  DoStor=T MaxTD1= 5 Len=  102
 NBasis=   518 RedAO= T  NBF=   518
 NBsUse=   518 1.00D-06 NBFU=   518
 Precomputing XC quadrature grid using
 IXCGrd= 2 IRadAn=           5 IRanWt=          -1 IRanGd=           0 AccXCQ= 1.00D-10.
 Defaulting to unpruned grid for atomic number  44.
 NRdTot=    5926 NPtTot=     1619196 NUsed=     1661588 NTot=     1661620
 NSgBfM=   546   546   546   546   546 NAtAll=    69    69.
 Leave Link  302 at Sat Aug 28 13:24:29 2010, MaxMem=  131072000 cpu:      21.8
 (Enter /home1/bin/gauss09A/g09/l303.exe)
 DipDrv:  MaxL=1.
 Leave Link  303 at Sat Aug 28 13:24:29 2010, MaxMem=  131072000 cpu:       0.8
 (Enter /home1/bin/gauss09A/g09/l401.exe)
 Harris functional with IExCor=  402 diagonalized for initial guess.
 ExpMin= 2.50D-02 ExpMax= 6.29D+03 ExpMxC= 9.49D+02 IAcc=3 IRadAn=         5 AccDes= 0.00D+00
 HarFok:  IExCor=  402 AccDes= 0.00D+00 IRadAn=         5 IDoV= 1
 ScaDFX=  1.000000  1.000000  1.000000  1.000000
 Defaulting to unpruned grid for atomic number  44.
 Defaulting to unpruned grid for atomic number  44.
 Defaulting to unpruned grid for atomic number  44.
 Defaulting to unpruned grid for atomic number  44.
 FoFCou: FMM=F IPFlag=           0 FMFlag=      100000 FMFlg1=           1
         NFxFlg=           0 DoJE=T BraDBF=F KetDBF=T FulRan=T
         Omega=  0.000000  0.000000  1.000000  0.000000  0.000000 ICntrl=     500 IOpCl=  0
         NMat0=    1 NMatS0=    1 NMatT0=    0 NMatD0=    1 NMtDS0=    0 NMtDT0=    0
         I1Cent=           4 NGrid=           0.
 Petite list used in FoFCou.
 Harris En= -1289.21339902849    
 Initial guess orbital symmetries:
       Occupied  (A) (A) (A) (A) (A) (A) (A) (A) (A) (A) (A) (A)
                 (A) (A) (A) (A) (A) (A) (A) (A) (A) (A) (A) (A)
                 (A) (A) (A) (A) (A) (A) (A) (A) (A) (A) (A) (A)
                 (A) (A) (A) (A) (A) (A) (A) (A) (A) (A) (A) (A)
                 (A) (A) (A) (A) (A) (A) (A) (A) (A) (A) (A) (A)
                 (A) (A) (A) (A) (A) (A) (A) (A) (A) (A) (A) (A)
                 (A) (A) (A) (A) (A) (A) (A) (A) (A) (A) (A) (A)
                 (A) (A) (A) (A) (A) (A) (A) (A) (A) (A) (A) (A)
                 (A) (A) (A) (A) (A) (A) (A) (A) (A) (A) (A) (A)
                 (A) (A) (A) (A) (A) (A)
       Virtual   (A) (A) (A) (A) (A) (A) (A) (A) (A) (A) (A) (A)
                 (A) (A) (A) (A) (A) (A) (A) (A) (A) (A) (A) (A)
                 (A) (A) (A) (A) (A) (A) (A) (A) (A) (A) (A) (A)
                 (A) (A) (A) (A) (A) (A) (A) (A) (A) (A) (A) (A)
                 (A) (A) (A) (A) (A) (A) (A) (A) (A) (A) (A) (A)
                 (A) (A) (A) (A) (A) (A) (A) (A) (A) (A) (A) (A)
                 (A) (A) (A) (A) (A) (A) (A) (A) (A) (A) (A) (A)
                 (A) (A) (A) (A) (A) (A) (A) (A) (A) (A) (A) (A)
                 (A) (A) (A) (A) (A) (A) (A) (A) (A) (A) (A) (A)
                 (A) (A) (A) (A) (A) (A) (A) (A) (A) (A) (A) (A)
                 (A) (A) (A) (A) (A) (A) (A) (A) (A) (A) (A) (A)
                 (A) (A) (A) (A) (A) (A) (A) (A) (A) (A) (A) (A)
                 (A) (A) (A) (A) (A) (A) (A) (A) (A) (A) (A) (A)
                 (A) (A) (A) (A) (A) (A) (A) (A) (A) (A) (A) (A)
                 (A) (A) (A) (A) (A) (A) (A) (A) (A) (A) (A) (A)
                 (A) (A) (A) (A) (A) (A) (A) (A) (A) (A) (A) (A)
                 (A) (A) (A) (A) (A) (A) (A) (A) (A) (A) (A) (A)
                 (A) (A) (A) (A) (A) (A) (A) (A) (A) (A) (A) (A)
                 (A) (A) (A) (A) (A) (A) (A) (A) (A) (A) (A) (A)
                 (A) (A) (A) (A) (A) (A) (A) (A) (A) (A) (A) (A)
                 (A) (A) (A) (A) (A) (A) (A) (A) (A) (A) (A) (A)
                 (A) (A) (A) (A) (A) (A) (A) (A) (A) (A) (A) (A)
                 (A) (A) (A) (A) (A) (A) (A) (A) (A) (A) (A) (A)
                 (A) (A) (A) (A) (A) (A) (A) (A) (A) (A) (A) (A)
                 (A) (A) (A) (A) (A) (A) (A) (A) (A) (A) (A) (A)
                 (A) (A) (A) (A) (A) (A) (A) (A) (A) (A) (A) (A)
                 (A) (A) (A) (A) (A) (A) (A) (A) (A) (A) (A) (A)
                 (A) (A) (A) (A) (A) (A) (A) (A) (A) (A) (A) (A)
                 (A) (A) (A) (A) (A) (A) (A) (A) (A) (A) (A) (A)
                 (A) (A) (A) (A) (A) (A) (A) (A) (A) (A) (A) (A)
                 (A) (A) (A) (A) (A) (A) (A) (A) (A) (A) (A) (A)
                 (A) (A) (A) (A) (A) (A) (A) (A) (A) (A) (A) (A)
                 (A) (A) (A) (A) (A) (A) (A) (A) (A) (A) (A) (A)
                 (A) (A) (A) (A) (A) (A) (A) (A)
 The electronic state of the initial guess is 1-A.
 Leave Link  401 at Sat Aug 28 13:25:07 2010, MaxMem=  131072000 cpu:     149.6
 (Enter /home1/bin/gauss09A/g09/l502.exe)
 Closed shell SCF:
 Requested convergence on RMS density matrix=1.00D-08 within 128 cycles.
 Requested convergence on MAX density matrix=1.00D-06.
 Requested convergence on             energy=1.00D-06.
 No special actions if energy rises.
 Using DIIS extrapolation, IDIIS=  1040.
 Integral symmetry usage will be decided dynamically.
      1660954 words used for storage of precomputed grid.
 IEnd=     2587450 IEndB=     2587450 NGot=   131072000 MDV=   128802043
 LenX=   128802043 LenY=   128501191
 Fock matrices will be formed incrementally for  20 cycles.

 Cycle   1  Pass 1  IDiag  1:
 FoFCou: FMM=T IPFlag=           0 FMFlag=      100000 FMFlg1=           1
         NFxFlg=           0 DoJE=F BraDBF=F KetDBF=F FulRan=T
         Omega=  0.000000  0.000000  1.000000  0.000000  0.000000 ICntrl=       0 IOpCl=  0
         NMat0=    1 NMatS0=    1 NMatT0=    0 NMatD0=    1 NMtDS0=    0 NMtDT0=    0
         I1Cent=           0 NGrid=           0.
 Symmetry not used in FoFCou.
 FMM levels:  10  Number of levels for PrismC:   9
 Defaulting to unpruned grid for atomic number  44.
 Defaulting to unpruned grid for atomic number  44.
 Defaulting to unpruned grid for atomic number  44.
 Defaulting to unpruned grid for atomic number  44.
 E= -1274.56838635651    
 DIIS: error= 7.95D-02 at cycle   1 NSaved=   1.
 NSaved= 1 IEnMin= 1 EnMin= -1274.56838635651     IErMin= 1 ErrMin= 7.95D-02
 ErrMax= 7.95D-02 EMaxC= 1.00D-01 BMatC= 5.42D+00 BMatP= 5.42D+00
 IDIUse=3 WtCom= 2.05D-01 WtEn= 7.95D-01
 Coeff-Com:  0.100D+01
 Coeff-En:   0.100D+01
 Coeff:      0.100D+01
 Gap=     0.028 Goal=   None    Shift=    0.000
 GapD=    0.028 DampG=0.250 DampE=0.250 DampFc=0.1250 IDamp=-1.
 Damping current iteration by 1.25D-01
 RMSDP=9.38D-02 MaxDP=8.85D+00              OVMax= 9.93D-01

 Cycle   2  Pass 1  IDiag  1:
 RMSU=  8.29D-03    CP:  1.04D+00
 E= -1277.18526319068     Delta-E=       -2.616876834172 Rises=F Damp=T
 DIIS: error= 5.12D-02 at cycle   2 NSaved=   2.
 NSaved= 2 IEnMin= 2 EnMin= -1277.18526319068     IErMin= 2 ErrMin= 5.12D-02
 ErrMax= 5.12D-02 EMaxC= 1.00D-01 BMatC= 1.96D+00 BMatP= 5.42D+00
 IDIUse=3 WtCom= 4.88D-01 WtEn= 5.12D-01
 Coeff-Com: -0.495D+00 0.149D+01
 Coeff-En:   0.104D+00 0.896D+00
 Coeff:     -0.188D+00 0.119D+01
 Gap=     0.263 Goal=   None    Shift=    0.000
 RMSDP=1.37D-02 MaxDP=9.81D-01 DE=-2.62D+00 OVMax= 9.38D-01

 Cycle   3  Pass 1  IDiag  1:
 RMSU=  9.54D-03    CP:  9.15D-01  8.54D-01
 E= -1263.60822978872     Delta-E=       13.577033401962 Rises=F Damp=F
 DIIS: error= 8.27D-02 at cycle   3 NSaved=   3.
 NSaved= 3 IEnMin= 2 EnMin= -1277.18526319068     IErMin= 2 ErrMin= 5.12D-02
 ErrMax= 8.27D-02 EMaxC= 1.00D-01 BMatC= 1.17D+01 BMatP= 1.96D+00
 IDIUse=2 WtCom= 0.00D+00 WtEn= 1.00D+00
 EnCoef did     7 forward-backward iterations
 Coeff-En:   0.112D+00 0.619D+00 0.269D+00
 Coeff:      0.112D+00 0.619D+00 0.269D+00
 Gap=     0.061 Goal=   None    Shift=    0.000
 RMSDP=2.89D-02 MaxDP=3.57D+00 DE= 1.36D+01 OVMax= 9.82D-01

 Cycle   4  Pass 1  IDiag  1:
 RMSU=  1.87D-02    CP:  8.95D-01  6.73D-01  1.45D-01
 E= -1238.15240246274     Delta-E=       25.455827325972 Rises=F Damp=F
 DIIS: error= 1.10D-01 at cycle   4 NSaved=   4.
 NSaved= 4 IEnMin= 2 EnMin= -1277.18526319068     IErMin= 2 ErrMin= 5.12D-02
 ErrMax= 1.10D-01 EMaxC= 1.00D-01 BMatC= 2.55D+01 BMatP= 1.96D+00
 IDIUse=2 WtCom= 0.00D+00 WtEn= 1.00D+00
 EnCoef did   100 forward-backward iterations
 Coeff-En:   0.534D+00 0.220D-01 0.250D+00 0.195D+00
 Coeff:      0.534D+00 0.220D-01 0.250D+00 0.195D+00
 Gap=    -0.234 Goal=   None    Shift=    0.000
 RMSDP=2.63D-02 MaxDP=3.54D+00 DE= 2.55D+01 OVMax= 9.90D-01

 Cycle   5  Pass 1  IDiag  1:
 RMSU=  4.25D-03    CP:  8.86D-01  1.38D-01  2.85D-01  6.12D-02
 E= -1277.61164349822     Delta-E=      -39.459241035480 Rises=F Damp=F
 DIIS: error= 3.89D-02 at cycle   5 NSaved=   5.
 NSaved= 5 IEnMin= 5 EnMin= -1277.61164349822     IErMin= 5 ErrMin= 3.89D-02
 ErrMax= 3.89D-02 EMaxC= 1.00D-01 BMatC= 3.89D+00 BMatP= 1.96D+00
 IDIUse=2 WtCom= 0.00D+00 WtEn= 1.00D+00
 EnCoef did   100 forward-backward iterations
 Coeff-En:   0.439D+00 0.739D-02 0.251D-02 0.000D+00 0.551D+00
 Coeff:      0.439D+00 0.739D-02 0.251D-02 0.000D+00 0.551D+00
 Gap=    -0.172 Goal=   None    Shift=    0.000
 RMSDP=5.79D-03 MaxDP=4.99D-01 DE=-3.95D+01 OVMax= 7.30D-01

 Cycle   6  Pass 1  IDiag  1:
 RMSU=  3.00D-03    CP:  8.91D-01 -4.60D-03  1.52D-01  4.00D-02  4.97D-01
 E= -1282.81858855588     Delta-E=       -5.206945057652 Rises=F Damp=F
 DIIS: error= 3.63D-02 at cycle   6 NSaved=   6.
 NSaved= 6 IEnMin= 6 EnMin= -1282.81858855588     IErMin= 6 ErrMin= 3.63D-02
 ErrMax= 3.63D-02 EMaxC= 1.00D-01 BMatC= 1.56D+00 BMatP= 1.96D+00
 IDIUse=3 WtCom= 6.37D-01 WtEn= 3.63D-01
 EnCoef did     6 forward-backward iterations
 Coeff-Com: -0.173D+00 0.602D+00 0.329D-01-0.231D-01 0.157D+00 0.404D+00
 Coeff-En:   0.220D+00 0.000D+00 0.000D+00 0.000D+00 0.311D+00 0.469D+00
 Coeff:     -0.304D-01 0.383D+00 0.210D-01-0.147D-01 0.213D+00 0.428D+00
 Gap=     0.202 Goal=   None    Shift=    0.000
 RMSDP=3.46D-03 MaxDP=1.36D-01 DE=-5.21D+00 OVMax= 5.45D-01

 Cycle   7  Pass 1  IDiag  1:
 RMSU=  1.94D-03    CP:  8.94D-01  7.15D-03  1.64D-01  3.76D-02  5.69D-01
                    CP:  5.14D-01
 E= -1284.08570351532     Delta-E=       -1.267114959442 Rises=F Damp=F
 DIIS: error= 3.86D-02 at cycle   7 NSaved=   7.
 NSaved= 7 IEnMin= 7 EnMin= -1284.08570351532     IErMin= 6 ErrMin= 3.63D-02
 ErrMax= 3.86D-02 EMaxC= 1.00D-01 BMatC= 3.98D-01 BMatP= 1.56D+00
 IDIUse=3 WtCom= 6.37D-01 WtEn= 3.63D-01
 Coeff-Com: -0.155D+00 0.396D+00-0.141D-02-0.555D-02 0.124D-01 0.270D+00
 Coeff-Com:  0.483D+00
 Coeff-En:   0.000D+00 0.000D+00 0.000D+00 0.000D+00 0.000D+00 0.206D+00
 Coeff-En:   0.794D+00
 Coeff:     -0.987D-01 0.252D+00-0.896D-03-0.353D-02 0.790D-02 0.247D+00
 Coeff:      0.596D+00
 Gap=     0.154 Goal=   None    Shift=    0.000
 RMSDP=1.90D-03 MaxDP=7.60D-02 DE=-1.27D+00 OVMax= 2.47D-01

 Cycle   8  Pass 1  IDiag  1:
 RMSU=  8.44D-04    CP:  8.95D-01 -3.18D-03  1.34D-01  3.94D-02  5.69D-01
                    CP:  6.61D-01  5.33D-01
 E= -1284.45245024262     Delta-E=       -0.366746727306 Rises=F Damp=F
 DIIS: error= 1.36D-02 at cycle   8 NSaved=   8.
 NSaved= 8 IEnMin= 8 EnMin= -1284.45245024262     IErMin= 8 ErrMin= 1.36D-02
 ErrMax= 1.36D-02 EMaxC= 1.00D-01 BMatC= 1.04D-01 BMatP= 3.98D-01
 IDIUse=3 WtCom= 8.64D-01 WtEn= 1.36D-01
 Coeff-Com: -0.470D-01 0.119D+00 0.103D-02 0.315D-03-0.162D-01 0.739D-01
 Coeff-Com:  0.344D+00 0.525D+00
 Coeff-En:   0.000D+00 0.000D+00 0.000D+00 0.000D+00 0.000D+00 0.000D+00
 Coeff-En:   0.197D+00 0.803D+00
 Coeff:     -0.406D-01 0.103D+00 0.894D-03 0.272D-03-0.140D-01 0.638D-01
 Coeff:      0.324D+00 0.562D+00
 Gap=     0.130 Goal=   None    Shift=    0.000
 RMSDP=8.27D-04 MaxDP=3.86D-02 DE=-3.67D-01 OVMax= 1.22D-01

 Cycle   9  Pass 1  IDiag  1:
 RMSU=  3.77D-04    CP:  8.94D-01 -4.26D-04  1.39D-01  3.94D-02  5.77D-01
                    CP:  6.22D-01  6.80D-01  6.24D-01
 E= -1284.53797046677     Delta-E=       -0.085520224151 Rises=F Damp=F
 DIIS: error= 7.65D-03 at cycle   9 NSaved=   9.
 NSaved= 9 IEnMin= 9 EnMin= -1284.53797046677     IErMin= 9 ErrMin= 7.65D-03
 ErrMax= 7.65D-03 EMaxC= 1.00D-01 BMatC= 2.10D-02 BMatP= 1.04D-01
 IDIUse=3 WtCom= 9.24D-01 WtEn= 7.65D-02
 Coeff-Com:  0.591D-02 0.223D-02 0.312D-03 0.704D-03-0.994D-02-0.229D-01
 Coeff-Com:  0.243D-01 0.321D+00 0.678D+00
 Coeff-En:   0.000D+00 0.000D+00 0.000D+00 0.000D+00 0.000D+00 0.000D+00
 Coeff-En:   0.000D+00 0.172D+00 0.828D+00
 Coeff:      0.546D-02 0.206D-02 0.288D-03 0.651D-03-0.918D-02-0.212D-01
 Coeff:      0.224D-01 0.310D+00 0.690D+00
 Gap=     0.135 Goal=   None    Shift=    0.000
 RMSDP=3.60D-04 MaxDP=1.61D-02 DE=-8.55D-02 OVMax= 5.56D-02

 Cycle  10  Pass 1  IDiag  1:
 RMSU=  1.81D-04    CP:  8.95D-01 -8.02D-04  1.34D-01  3.97D-02  5.77D-01
                    CP:  6.17D-01  6.65D-01  7.79D-01  7.19D-01
 E= -1284.55402947463     Delta-E=       -0.016059007859 Rises=F Damp=F
 DIIS: error= 3.16D-03 at cycle  10 NSaved=  10.
 NSaved=10 IEnMin=10 EnMin= -1284.55402947463     IErMin=10 ErrMin= 3.16D-03
 ErrMax= 3.16D-03 EMaxC= 1.00D-01 BMatC= 4.25D-03 BMatP= 2.10D-02
 IDIUse=3 WtCom= 9.68D-01 WtEn= 3.16D-02
 Coeff-Com:  0.102D-01-0.775D-02 0.618D-03-0.476D-03-0.356D-02-0.178D-01
 Coeff-Com: -0.233D-01 0.126D+00 0.434D+00 0.483D+00
 Coeff-En:   0.000D+00 0.000D+00 0.000D+00 0.000D+00 0.000D+00 0.000D+00
 Coeff-En:   0.000D+00 0.000D+00 0.170D+00 0.830D+00
 Coeff:      0.990D-02-0.751D-02 0.598D-03-0.461D-03-0.344D-02-0.173D-01
 Coeff:     -0.226D-01 0.122D+00 0.426D+00 0.494D+00
 Gap=     0.135 Goal=   None    Shift=    0.000
 RMSDP=1.56D-04 MaxDP=8.59D-03 DE=-1.61D-02 OVMax= 3.13D-02

 Cycle  11  Pass 1  IDiag  1:
 RMSU=  5.13D-05    CP:  8.94D-01 -3.46D-04  1.36D-01  3.95D-02  5.79D-01
                    CP:  6.18D-01  6.60D-01  7.68D-01  8.36D-01  5.37D-01
 E= -1284.55824522778     Delta-E=       -0.004215753143 Rises=F Damp=F
 DIIS: error= 7.22D-04 at cycle  11 NSaved=  11.
 NSaved=11 IEnMin=11 EnMin= -1284.55824522778     IErMin=11 ErrMin= 7.22D-04
 ErrMax= 7.22D-04 EMaxC= 1.00D-01 BMatC= 6.39D-04 BMatP= 4.25D-03
 IDIUse=3 WtCom= 9.93D-01 WtEn= 7.22D-03
 Coeff-Com:  0.881D-02-0.799D-02 0.666D-03-0.387D-03-0.360D-02-0.447D-02
 Coeff-Com: -0.166D-01 0.176D-01 0.132D+00 0.247D+00 0.627D+00
 Coeff-En:   0.000D+00 0.000D+00 0.000D+00 0.000D+00 0.000D+00 0.000D+00
 Coeff-En:   0.000D+00 0.000D+00 0.000D+00 0.000D+00 0.100D+01
 Coeff:      0.875D-02-0.793D-02 0.661D-03-0.384D-03-0.357D-02-0.444D-02
 Coeff:     -0.165D-01 0.174D-01 0.131D+00 0.246D+00 0.630D+00
 Gap=     0.132 Goal=   None    Shift=    0.000
 RMSDP=3.68D-05 MaxDP=2.13D-03 DE=-4.22D-03 OVMax= 5.61D-03

 Cycle  12  Pass 1  IDiag  1:
 RMSU=  2.09D-05    CP:  8.94D-01 -5.68D-04  1.35D-01  3.95D-02  5.78D-01
                    CP:  6.18D-01  6.62D-01  7.66D-01  8.23D-01  5.89D-01
                    CP:  8.10D-01
 E= -1284.55860211329     Delta-E=       -0.000356885510 Rises=F Damp=F
 DIIS: error= 6.15D-04 at cycle  12 NSaved=  12.
 NSaved=12 IEnMin=12 EnMin= -1284.55860211329     IErMin=12 ErrMin= 6.15D-04
 ErrMax= 6.15D-04 EMaxC= 1.00D-01 BMatC= 3.22D-04 BMatP= 6.39D-04
 IDIUse=3 WtCom= 9.94D-01 WtEn= 6.15D-03
 Coeff-Com:  0.672D-02-0.660D-02 0.717D-03-0.209D-03-0.355D-02 0.165D-02
 Coeff-Com: -0.846D-02-0.220D-01-0.196D-01 0.304D-01 0.320D+00 0.701D+00
 Coeff-En:   0.000D+00 0.000D+00 0.000D+00 0.000D+00 0.000D+00 0.000D+00
 Coeff-En:   0.000D+00 0.000D+00 0.000D+00 0.000D+00 0.000D+00 0.100D+01
 Coeff:      0.668D-02-0.656D-02 0.713D-03-0.208D-03-0.352D-02 0.164D-02
 Coeff:     -0.841D-02-0.219D-01-0.195D-01 0.302D-01 0.318D+00 0.703D+00
 Gap=     0.131 Goal=   None    Shift=    0.000
 RMSDP=2.33D-05 MaxDP=1.12D-03 DE=-3.57D-04 OVMax= 2.26D-03

 Cycle  13  Pass 1  IDiag  1:
 RMSU=  1.45D-05    CP:  8.95D-01 -8.43D-04  1.35D-01  3.94D-02  5.77D-01
                    CP:  6.19D-01  6.62D-01  7.63D-01  8.20D-01  5.91D-01
                    CP:  8.33D-01  9.02D-01
 E= -1284.55883304324     Delta-E=       -0.000230929948 Rises=F Damp=F
 DIIS: error= 4.16D-04 at cycle  13 NSaved=  13.
 NSaved=13 IEnMin=13 EnMin= -1284.55883304324     IErMin=13 ErrMin= 4.16D-04
 ErrMax= 4.16D-04 EMaxC= 1.00D-01 BMatC= 1.31D-04 BMatP= 3.22D-04
 IDIUse=3 WtCom= 9.96D-01 WtEn= 4.16D-03
 Coeff-Com:  0.203D-02-0.227D-02 0.473D-03-0.119D-03-0.138D-02 0.175D-02
 Coeff-Com:  0.154D-02-0.719D-02-0.501D-01-0.136D+00-0.402D+00 0.162D+00
 Coeff-Com:  0.143D+01
 Coeff-En:   0.000D+00 0.000D+00 0.000D+00 0.000D+00 0.000D+00 0.000D+00
 Coeff-En:   0.000D+00 0.000D+00 0.000D+00 0.000D+00 0.000D+00 0.000D+00
 Coeff-En:   0.100D+01
 Coeff:      0.203D-02-0.227D-02 0.471D-03-0.118D-03-0.138D-02 0.174D-02
 Coeff:      0.153D-02-0.716D-02-0.499D-01-0.135D+00-0.401D+00 0.161D+00
 Coeff:      0.143D+01
 Gap=     0.128 Goal=   None    Shift=    0.000
 RMSDP=2.82D-05 MaxDP=1.50D-03 DE=-2.31D-04 OVMax= 4.45D-03

 Cycle  14  Pass 1  IDiag  1:
 RMSU=  1.36D-05    CP:  8.95D-01 -1.12D-03  1.35D-01  3.93D-02  5.76D-01
                    CP:  6.21D-01  6.62D-01  7.61D-01  8.16D-01  5.55D-01
                    CP:  8.23D-01  1.24D+00  1.38D+00
 E= -1284.55896605196     Delta-E=       -0.000133008729 Rises=F Damp=F
 DIIS: error= 2.48D-04 at cycle  14 NSaved=  14.
 NSaved=14 IEnMin=14 EnMin= -1284.55896605196     IErMin=14 ErrMin= 2.48D-04
 ErrMax= 2.48D-04 EMaxC= 1.00D-01 BMatC= 3.49D-05 BMatP= 1.31D-04
 IDIUse=3 WtCom= 9.98D-01 WtEn= 2.48D-03
 Coeff-Com:  0.646D-03-0.968D-03 0.129D-03-0.372D-04-0.275D-03 0.478D-03
 Coeff-Com:  0.268D-02 0.596D-02-0.122D-01-0.807D-01-0.346D+00-0.139D+00
 Coeff-Com:  0.986D+00 0.583D+00
 Coeff-En:   0.000D+00 0.000D+00 0.000D+00 0.000D+00 0.000D+00 0.000D+00
 Coeff-En:   0.000D+00 0.000D+00 0.000D+00 0.000D+00 0.000D+00 0.000D+00
 Coeff-En:   0.000D+00 0.100D+01
 Coeff:      0.645D-03-0.966D-03 0.129D-03-0.371D-04-0.275D-03 0.477D-03
 Coeff:      0.267D-02 0.594D-02-0.121D-01-0.805D-01-0.345D+00-0.139D+00
 Coeff:      0.983D+00 0.585D+00
 Gap=     0.128 Goal=   None    Shift=    0.000
 RMSDP=1.50D-05 MaxDP=6.13D-04 DE=-1.33D-04 OVMax= 2.93D-03

 Cycle  15  Pass 1  IDiag  1:
 RMSU=  6.76D-06    CP:  8.95D-01 -1.27D-03  1.35D-01  3.92D-02  5.76D-01
                    CP:  6.22D-01  6.62D-01  7.58D-01  8.08D-01  5.44D-01
                    CP:  7.83D-01  1.32D+00  1.74D+00  8.55D-01
 E= -1284.55900390279     Delta-E=       -0.000037850823 Rises=F Damp=F
 DIIS: error= 4.86D-05 at cycle  15 NSaved=  15.
 NSaved=15 IEnMin=15 EnMin= -1284.55900390279     IErMin=15 ErrMin= 4.86D-05
 ErrMax= 4.86D-05 EMaxC= 1.00D-01 BMatC= 3.28D-06 BMatP= 3.49D-05
 IDIUse=1 WtCom= 1.00D+00 WtEn= 0.00D+00
 Coeff-Com:  0.245D-03-0.474D-03 0.132D-04-0.556D-05 0.902D-05-0.169D-03
 Coeff-Com:  0.123D-02 0.589D-02 0.689D-02-0.136D-01-0.108D+00-0.103D+00
 Coeff-Com:  0.290D+00 0.311D+00 0.611D+00
[...]
 0002223,0.00000869,0.00003585,0.00009060,-0.00009868,-0.00022285,0.000
 15003,0.00026326,0.00012496,0.00220136,-0.00130937,0.00069491,-0.00000
 634,-0.00003109,-0.00002764,0.15141712,0.35715640,-0.00191907,-0.00372
 380,0.00114321,-0.00019151,0.00062667,-0.00014052,0.00057322,0.0004372
 4,-0.00005380,-0.00016321,-0.00015756,-0.00029282,0.00544310,0.0332481
 9,-0.06054851,0.00025326,-0.00018454,0.00000027,-0.00011850,0.00003816
 ,-0.00004984,-0.00012330,-0.00027247,-0.00014920,0.00038946,0.00012479
 ,-0.00092052,0.00049696,0.00125899,-0.00010269,0.00068347,0.00186961,0
 .00139088,0.01798365,0.03285780,-0.00500938,0.00145739,-0.00086321,-0.
 00692731,-0.00001137,-0.00003101,0.00000334,0.00004345,0.00011025,-0.0
 0002591,0.00004196,-0.00026876,0.00011358,0.00000390,0.00017803,-0.000
 02886,0.00004925,0.00002880,0.00000501,-0.00008272,0.00001626,0.000044
 71,0.00001623,-0.00024893,0.00006947,-0.00074486,0.00045566,-0.0000333
 8,0.00179582,-0.00137836,-0.00013709,-0.00008507,0.00013832,-0.0000151
 0,0.00001073,0.00000757,0.00023940,-0.00001173,-0.00000055,-0.00007662
 ,-0.00010905,-0.00005559,-0.00010038,-0.00000961,0.00002772,-0.0000569
 3,-0.00017507,-0.00002804,0.00026661,0.00004182,0.00000234,0.00001256,
 -0.00006668,-0.00002004,-0.00005761,0.00003287,0.00003411,-0.00004854,
 -0.00014594,-0.00027098,0.00052326,-0.00006525,-0.00006081,-0.00004549
 ,-0.00002606,-0.00016034,0.00017059,-0.00063624,-0.00001655,0.00018065
 ,-0.00158886,-0.00070214,-0.00019372,-0.00005506,-0.00166068,-0.000349
 57,0.00132746,0.00153967,0.00016214,-0.00000035,0.00000433,0.00000198,
 0.00002488,-0.00001721,0.00001679,-0.00013483,-0.00033602,0.00003664,-
 0.00005415,0.00003828,-0.00001220,-0.00000838,0.00000732,0.00000424,-0
 .00022179,-0.00003582,0.00003028,0.00000142,-0.00000116,0.00000039,0.0
 0005395,0.00003517,-0.00000236,0.00000964,-0.00030864,0.00031948,0.000
 75802,0.00115131,0.00039872,-0.00001439,0.00001567,-0.00000038,-0.0000
 0008,0.00001991,-0.00000219,0.00000526,-0.00000278,0.00001185,0.000143
 72,-0.00013043,-0.00001380,0.00001153,0.00000761,-0.00000214,0.0000073
 6,0.00000132,0.00001067,0.00005432,0.00003428,-0.00033640,0.00001019,-
 0.00001682,-0.00000826,0.00004386,0.00009746,-0.00010131,-0.00001156,-
 0.00001665,-0.00000830,-0.00000099,-0.00000719,-0.00000758,0.00000084,
 0.00000248,-0.00002192,0.00000775,0.00000589,0.00001041,0.00005176,0.0
 0005359,0.00001441,0.00016886,-0.00024445,-0.00039540,0.00019222,0.000
 49755,-0.00003527,-0.01142300,-0.02553694,0.00389353,0.00007059,-0.000
 05850,-0.00006360,-0.01413776,-0.03816090,0.06727935,0.00142065,0.0015
 7649,0.00092393,0.00000918,0.00005198,0.00004485,0.00006960,-0.0002752
 6,0.00001237,-0.12237532,-0.11849130,0.03807540,-0.00038954,-0.0000644
 2,-0.00006347,-0.00008691,0.00020721,0.00050873,0.00003298,-0.00023924
 ,-0.00030252,0.00148050,0.00209329,-0.00003351,-0.00174718,0.00178756,
 0.00093598,0.00921272,0.01641627,-0.00542660,-0.00046370,-0.00019476,0
 .00001033,0.00075464,0.00131524,-0.00005302,-0.00060314,0.00100245,0.0
 0030514,-0.00012234,-0.00004122,0.00001050,0.00001420,0.00010630,0.000
 03374,0.00000481,-0.00001841,0.00000276,-0.00002479,0.00006240,-0.0000
 0493,0.00007944,0.00010693,-0.00008614,0.00014568,-0.00013367,-0.00015
 361,-0.00006976,-0.00024672,0.00006902,-0.00005378,0.00000208,0.000010
 33,0.00001510,0.00010457,-0.00003739,-0.00022533,0.00039669,-0.0000823
 2,-0.00000208,-0.00013629,-0.00024451,0.00004496,-0.00000769,0.0000544
 1,0.00017270,0.00013358,0.00002115,0.00000326,-0.00000294,0.00005132,-
 0.00000069,-0.00001460,-0.00005326,-0.00005704,-0.00005634,-0.00001148
 ,-0.00021930,-0.00049741,-0.00022290,-0.00029019,-0.00006179,-0.000054
 31,0.00031432,-0.00007451,0.00028643,0.00087066,0.00056325,0.00024001,
 -0.00041901,-0.00054279,0.00042300,0.00002399,0.00002674,0.00001813,-0
 .00015239,-0.00003572,-0.00004045,0.00003816,-0.00018265,-0.00000322,0
 .00004058,-0.00013903,0.00000247,-0.00000065,0.00001008,0.00001006,0.0
 0001084,-0.00000447,-0.00000213,-0.00009754,0.00007306,-0.00003677,-0.
 00000026,0.00000376,0.00000040,-0.00002112,-0.00001706,0.00000814,-0.0
 0164581,-0.00066378,-0.00069297,-0.00000401,0.00002565,0.00000806,-0.0
 0000629,-0.00000465,-0.00000182,0.00021434,-0.00053929,-0.00004126,0.0
 0000378,0.00000367,-0.00000151,0.00014207,0.00011418,0.00017410,0.0000
 1703,0.00000433,-0.00000423,-0.00003402,-0.00000784,0.00002264,-0.0000
 0780,0.00001841,0.00002637,0.00000267,-0.00001939,-0.00001153,-0.00001
 603,0.00001662,-0.00001798,-0.00000396,-0.00001037,0.00001590,-0.00003
 190,0.00002390,-0.00000050,-0.00000985,0.00000463,-0.00000045,0.000009
 59,0.00000960,0.00001694,-0.00000744,0.00001197,0.00001007,-0.00000119
 ,-0.00000097,0.00001776,-0.00000261,-0.00000310,-0.00002409,0.00000600
 ,-0.00000164,-0.00004820,0.00000667,-0.00002470,0.00002608,-0.00017477
 ,-0.00003631,-0.00039435,-0.00000796,0.00013114,-0.00009102,0.00015706
 ,-0.00037387,-0.00013188,0.00004259,-0.00007506,0.00011452,0.13052634,
 0.00171281,0.00370442,0.00094439,-0.00023082,-0.00033148,-0.00021200,-
 0.00049849,0.00027713,0.00028248,-0.12562050,-0.31267991,0.08522609,0.
 00012536,-0.00007755,-0.00003316,-0.00003051,0.00019655,0.00020857,-0.
 00033026,-0.00023414,-0.00049925,-0.00143288,0.00241539,0.00141924,0.0
 0472508,-0.00325589,-0.00261200,-0.01285179,-0.02520435,0.00698101,0.0
 0019254,0.00004807,0.00004904,-0.00003561,-0.00102132,0.00004548,0.000
 04070,-0.00045481,-0.00006158,0.00007601,0.00005892,-0.00001697,-0.000
 01354,-0.00010892,-0.00001529,0.00006184,-0.00000037,-0.00001790,-0.00
 000631,-0.00000184,0.00000903,-0.00016415,-0.00010508,0.00003647,-0.00
 004003,-0.00001300,0.00005083,0.00010047,0.00016149,-0.00003879,-0.000
 02348,-0.00002915,0.00001930,0.00001832,0.00003172,0.00003300,0.000452
 22,-0.00001926,0.00014511,-0.00000963,-0.00018022,0.00005447,0.0000183
 8,0.00002914,-0.00000900,0.00021405,0.00017069,-0.00011027,-0.00000795
 ,-0.00000187,-0.00001244,-0.00002576,-0.00001871,0.00001571,-0.0000944
 8,-0.00007222,-0.00000949,0.00003277,-0.00007191,-0.00041049,-0.000012
 95,0.00039495,0.00075706,0.00006943,0.00038481,0.00002862,-0.00108955,
 -0.00107803,0.00004649,0.00070802,0.00063114,-0.00113080,0.00001580,-0
 .00005329,0.00000004,0.00009018,0.00023396,0.00020168,-0.00004948,0.00
 013070,-0.00005822,-0.00000277,0.00008789,-0.00001919,-0.00001009,-0.0
 0000785,-0.00000516,-0.00000698,0.,0.00001228,0.00006306,-0.00000804,-
 0.00001351,-0.00000226,-0.00000448,-0.00000338,0.00000980,0.00000551,-
 0.00000268,0.00002374,0.00090959,0.00012568,0.00002664,-0.00002362,-0.
 00001001,0.00000064,0.00000506,-0.00000018,-0.00010147,0.00027827,-0.0
 0002368,-0.00001453,-0.00000931,-0.00002466,-0.00010962,-0.00014865,-0
 .00019045,-0.00001393,-0.00002971,0.00000374,-0.00000187,0.00000607,-0
 .00000872,0.00000769,0.00000575,-0.00000629,-0.00000665,-0.00000810,-0
 .00000077,0.00001068,-0.00000399,0.00000085,0.00000723,-0.00000998,0.0
 0000401,0.00000090,-0.00000483,0.00000935,-0.00000782,0.00000223,-0.00
 000507,0.00000408,0.00000382,0.00000201,0.00000670,0.00000369,0.000002
 99,-0.00000275,0.00000057,0.00001823,0.00000216,-0.00000536,-0.0000373
 1,-0.00001936,0.00002411,-0.00003563,-0.00000809,-0.00003918,0.0000305
 3,-0.00003748,0.00009900,0.00011620,-0.00001615,-0.00000936,0.00001270
 ,-0.00022901,-0.00033253,-0.00012472,-0.00002886,0.00001906,-0.0001175
 9,0.13374168,0.33508484,0.00699555,0.01263286,-0.00736140,-0.00004947,
 -0.00008803,-0.00048607,-0.00053939,0.00023650,0.00046336,0.05764618,0
 .11874988,-0.07066840,-0.00041170,-0.00009702,-0.00041840,-0.00038640,
 0.00003998,0.00202879,-0.00117219,-0.00208978,-0.00083887,-0.00128596,
 -0.00234081,0.00059445,0.00190896,-0.00318344,-0.00193231,-0.00671603,
 -0.01544633,0.00193316,-0.00023886,-0.00008297,0.00015595,0.00020297,0
 .00100977,-0.00001044,-0.00008275,0.00090497,0.00009796,0.00004726,-0.
 00002486,-0.00002486,-0.00010072,-0.00002551,-0.00003866,-0.00004851,0
 .00002794,-0.00000905,0.00003504,-0.00006488,0.00004785,-0.00011222,-0
 .00016451,0.00004273,-0.00021124,0.00014942,0.00004859,0.00017322,0.00
 007913,-0.00006361,0.00007511,0.00003972,0.00001429,-0.00006916,-0.000
 24481,0.00009138,0.00066633,-0.00019043,0.00005457,0.00025180,-0.00014
 985,-0.00079843,0.00005798,0.00002465,0.00010751,0.00057953,0.00029540
 ,-0.00034372,-0.00001393,0.00001224,0.00023362,-0.00002826,-0.00005780
 ,-0.00004367,-0.00025674,-0.00021468,-0.00003544,-0.00026013,-0.000297
 79,-0.00040822,-0.00002994,0.00057491,-0.00009819,0.00022101,0.0001380
 1,0.00011534,-0.00052808,-0.00108974,0.00026017,0.00126246,0.00038699,
 -0.00007473,0.00004650,-0.00002445,-0.00001335,0.00002657,0.00002152,0
 .00004731,0.00000591,-0.00004272,-0.00005250,0.00030808,-0.00032474,0.
 00000540,-0.00002068,-0.00000962,0.00001046,-0.00000635,-0.00000015,0.
 00000623,0.00001887,0.00002823,-0.00003704,0.00000171,-0.00000191,-0.0
 0000484,0.00001411,0.00001312,0.00000102,-0.00070807,-0.00062226,0.000
 34818,0.00001175,-0.00000510,0.00002658,0.00000872,0.00000446,-0.00000
 289,0.00014336,-0.00019679,-0.00011507,-0.00000567,-0.00000661,-0.0000
 2020,-0.00008597,-0.00030696,-0.00015538,-0.00001554,-0.00005771,-0.00
 000422,-0.00002316,0.00001875,-0.00001762,-0.00001503,0.00003566,0.000
 02157,-0.00002495,-0.00002776,-0.00001361,-0.00000831,0.00000537,-0.00
 001962,-0.00000017,-0.00002233,0.00002539,-0.00002834,0.00002505,0.000
 02480,-0.00002503,0.00001685,-0.00000074,0.00006172,0.00003750,0.00003
 145,0.00000271,0.00001819,0.00001158,-0.00000429,0.00000245,0.00004571
 ,0.00000664,-0.00000951,-0.00010403,-0.00004867,0.00002580,-0.00015543
 ,-0.00003161,0.00003398,0.00042837,-0.00032757,-0.00016306,-0.00035012
 ,-0.00001095,0.00015476,-0.00003723,-0.00078122,-0.00092582,-0.0009172
 5,0.00011585,-0.00009877,0.00001740,-0.04800017,-0.09239716,0.07415636
 ,0.00343473,0.00038740,-0.00062434,0.00047115,0.00017648,-0.00025392,0
 .00083593,-0.00032896,0.00020598,-0.35297874,-0.00421788,-0.11929213,0
 .00015383,-0.00020243,0.00034128,-0.00005794,-0.00001589,0.00014807,-0
 .00018913,0.00001560,0.00071116,-0.00008794,-0.00050768,-0.00028852,0.
 00238972,-0.00212352,-0.00076079,-0.01794897,0.00232637,-0.00769455,-0
 .00034807,-0.00033033,-0.00064102,-0.00043108,0.00196781,0.00258213,0.
 00038201,0.00015325,0.00007955,-0.00012907,-0.00003565,0.00007175,-0.0
 0023054,0.00017820,-0.00003754,-0.00011765,0.00009436,0.00000160,-0.00
 016060,-0.00008750,0.00002888,0.00008917,0.00003077,0.00003731,-0.0000
 9508,-0.00021756,-0.00008488,-0.00010912,-0.00003877,-0.00030792,0.000
 18317,0.00002219,0.00002600,-0.00006787,-0.00029338,0.00008757,0.00009
 132,0.00023540,-0.00020188,0.00001378,-0.00003387,-0.00001259,0.000016
 32,0.00000767,-0.00000783,-0.00010313,-0.00003600,0.00000143,-0.000001
 38,0.00001694,0.00000053,0.00000507,0.00001573,0.00000432,0.00004572,0
 .00001812,0.00000274,0.00011925,-0.00000414,0.00082665,0.00042456,-0.0
 0000914,0.00008832,0.00085886,0.00058837,-0.00010270,-0.00017844,-0.00
 074411,0.00022950,-0.00006414,0.00009781,0.00001233,-0.00004134,0.0000
 0442,0.00005309,0.00008260,0.00003313,0.00018049,-0.00000217,0.0000784
 3,-0.00002114,-0.00006205,0.00004556,-0.00001940,-0.00000579,-0.000003
 32,0.00000127,-0.00002526,0.00000205,0.00001332,-0.00001661,0.00027763
 ,0.00012054,-0.00000423,0.00000529,0.00000322,-0.00001971,-0.00000622,
 0.00002385,0.00002638,-0.00003743,-0.00001493,0.00000237,-0.00000430,-
 0.00001391,-0.00000242,-0.00000401,-0.00000640,0.00001114,-0.00005204,
 0.00000034,-0.00002842,0.00001736,-0.00002473,-0.00004338,-0.00003456,
 -0.00002227,0.00000644,0.00000583,-0.00000234,-0.00000636,-0.00001617,
 0.00001356,0.00000502,-0.00000057,-0.00000138,0.00000449,0.00000101,-0
 .00000260,-0.00000252,-0.00000098,-0.00000058,-0.00000372,-0.00000321,
 -0.00000250,-0.00000723,0.00000163,-0.00000085,0.00000495,-0.00000330,
 -0.00000039,0.00000154,-0.00000213,0.00000218,-0.00000016,-0.00000169,
 -0.00000496,-0.00000078,-0.00000150,-0.00000628,0.00000282,0.00000594,
 0.00001488,0.00007369,-0.00002792,0.00011465,0.00001477,0.00003278,0.0
 0006866,-0.00002170,-0.00000822,-0.00001150,0.00001803,-0.00001905,0.0
 0003002,-0.00001673,-0.00003215,-0.00002102,0.00000192,-0.00001660,-0.
 00003825,-0.01651141,0.00062887,-0.00818249,0.38035010,0.00115377,0.00
 042329,-0.00014193,0.00006675,0.00002461,-0.00039866,-0.00026602,0.000
 41141,0.00002087,0.00266733,-0.05888408,0.00113200,-0.00010218,0.00012
 192,-0.00020337,-0.00003761,-0.00010496,-0.00028744,-0.00021014,0.0001
 3853,0.00007035,-0.00046577,-0.00026809,0.00030270,0.00224139,0.000023
 26,0.00175404,0.02865444,-0.00181701,0.01166151,0.00136312,0.00036615,
 0.00131149,0.00192016,-0.00481952,-0.00351046,-0.00047875,-0.00064741,
 -0.00023650,0.00014055,0.00005983,-0.00003806,0.00004315,-0.00014025,-
 0.00005030,-0.00009188,0.00013637,-0.00001967,-0.00006826,-0.00020534,
 0.00006575,-0.00013843,-0.00013553,0.00002819,-0.00028955,0.00048854,0
 .00007157,0.00036565,0.00058932,-0.00007804,0.00023529,-0.00005256,0.0
 0000977,-0.00006946,-0.00053850,0.00015960,0.00010418,-0.00075430,0.00
 018553,-0.00006273,0.00005208,0.00017256,-0.00002127,0.00000592,-0.000
 00748,0.00002106,-0.00001687,-0.00003749,0.00000762,-0.00001991,-0.000
 05613,0.00000671,0.00000180,-0.00000531,-0.00001306,0.00001413,-0.0000
 0054,-0.00000164,0.00049001,-0.00029419,-0.00004440,-0.00004713,-0.000
 01605,-0.00113953,-0.00073859,-0.00154606,-0.00057428,0.00042191,-0.00
 018887,-0.00018604,0.00000935,-0.00002755,-0.00001696,0.00007334,-0.00
 004247,-0.00013123,-0.00033453,0.00009622,-0.00004479,-0.00010193,0.00
 010057,-0.00003926,0.00008991,-0.00000476,0.00000745,-0.00000964,0.000
 00049,-0.00003352,0.00002305,0.00000106,0.00023493,-0.00061686,-0.0001
 1953,-0.00000623,-0.00000817,0.00000455,0.00003131,0.00002694,-0.00000
 407,-0.00002452,0.00048506,0.00006532,-0.00000544,-0.00002111,-0.00001
 653,0.00000729,-0.00000095,0.00001340,-0.00002948,0.00019364,0.0000724
 3,0.00002893,-0.00000057,0.00002830,-0.00006627,-0.00003693,-0.0000909
 2,-0.00001007,-0.00000815,0.00000528,0.00001556,0.00001240,-0.00001790
 ,-0.00000151,-0.00000672,0.00000544,-0.00000120,0.00000537,0.00000542,
 0.00000828,-0.00000333,0.00000338,0.00000275,0.00000198,-0.00000339,0.
 00001628,-0.00000896,0.00000273,-0.00000194,0.00000113,0.00000441,-0.0
 0001392,-0.00000367,-0.00000746,0.00000437,-0.00000082,-0.00000346,0.0
 0000317,-0.00000299,-0.00000443,0.00000226,-0.00000182,-0.00000153,-0.
 00001512,0.00003255,0.00004543,0.00001976,0.00001282,-0.00002985,0.000
 03600,-0.00000804,0.00008510,-0.00000972,-0.00009992,0.00001183,-0.000
 00868,0.00011586,0.00014505,0.00018799,-0.00004420,0.00012310,-0.03690
 649,0.00025381,-0.01464746,0.00202983,0.06540309,-0.01282200,-0.000346
 64,-0.00791225,-0.00059837,-0.00044931,0.00136659,-0.00104778,0.000789
 83,0.00134635,-0.15421090,-0.00265718,-0.09162258,-0.00002159,0.000089
 05,-0.00028669,0.00021499,0.00023919,-0.00035127,0.00191632,0.00004066
 ,-0.00116337,0.00109602,-0.00040261,0.00087861,0.00141210,-0.00034079,
 0.00110581,0.01563616,-0.00124284,0.00342683,0.00027134,-0.00006191,0.
 00033144,0.00047085,-0.00105130,-0.00099231,0.00000515,0.00003787,0.00
 001509,0.00027938,0.00012794,-0.00003363,0.00017366,-0.00021822,-0.000
 01002,0.00022916,-0.00006773,0.00000186,0.00009236,0.00007891,-0.00008
 263,-0.00035345,0.00002059,-0.00020751,0.00093122,-0.00020639,-0.00038
 339,0.00135590,0.00057758,-0.00041860,-0.00024613,-0.00020483,-0.00009
 428,-0.00002976,0.00082923,-0.00024838,0.00020304,-0.00140830,0.000100
 21,-0.00005260,0.00001007,0.00002089,-0.00002733,0.00000328,0.00001886
 ,0.00003719,0.00003458,0.00032008,0.00000136,-0.00002576,0.00000201,-0
 .00002318,-0.00000895,0.00000416,0.00001893,0.00000725,-0.00000185,-0.
 00024529,-0.00017748,-0.00085398,-0.00043692,0.00005029,-0.00045923,-0
 .00047250,-0.00028699,-0.00006953,0.00008403,0.00007803,-0.00018493,-0
 .00000342,-0.00012440,-0.00001355,-0.00001335,0.00002126,-0.00000936,-
 0.00033876,0.00040174,-0.00026763,-0.00001220,-0.00000191,0.00000549,0
 .00003890,-0.00001994,0.00001823,-0.00000685,0.00001736,0.00003265,-0.
 00000861,0.00000207,0.00000990,0.00003499,-0.00009958,-0.00000311,0.00
 000124,-0.00001041,0.00002504,0.00000507,0.00000865,-0.00000502,0.0000
 1681,-0.00003237,-0.00005253,-0.00001869,0.00001283,0.00002750,-0.0000
 1636,-0.00000665,0.00000385,0.00000408,-0.00003258,-0.00000716,0.00006
 245,-0.00002876,0.00008058,0.00000802,0.00003003,0.00003043,-0.0000144
 2,-0.00001942,0.00000183,0.00001667,0.00001697,-0.00003022,0.00000484,
 -0.00000044,-0.00000769,-0.00000983,-0.00000392,0.00000144,0.00000635,
 -0.00000242,0.00000003,0.00000183,-0.00000565,0.00000081,0.00001777,-0
 .00000382,0.00000759,-0.00000149,0.00000323,-0.00000463,-0.00000160,0.
 00000059,-0.00000142,-0.00000322,0.00000930,0.00000330,0.00000212,-0.0
 0000751,0.00001066,-0.00001872,0.00000055,0.00000773,-0.00007857,0.000
 07212,-0.00046472,0.00002885,-0.00004423,-0.00012613,0.00006747,0.0000
 7930,0.00006510,0.00001242,0.00006140,-0.00002594,0.00001025,0.0000445
 4,0.00005928,-0.00010025,0.00005139,0.00000308,0.01388350,0.00138115,0
 .00417807,0.13258136,0.00437240,0.09288412\\0.00000015,-0.00000135,0.0
 0000027,0.00000155,0.00000171,-0.00000146,-0.00000199,-0.00000082,-0.0
 0000178,-0.00000244,0.00000532,-0.00000228,-0.00000613,-0.00000172,-0.
 00000184,0.00000543,-0.00000491,0.00000345,-0.00000307,-0.00000419,0.0
 0000261,-0.00000636,0.00000544,-0.00000011,-0.00000337,-0.00000110,-0.
 00000107,0.00000338,-0.00000364,0.00000003,0.00000616,0.00000469,-0.00
 000025,-0.00000304,0.00000122,-0.00000299,-0.00000229,-0.00000277,0.00
 000135,-0.00000324,-0.00000498,-0.00000031,-0.00000445,0.00000388,-0.0
 0000157,0.00000103,-0.00000021,-0.00000028,0.00000563,0.00000359,-0.00
 000232,-0.00000068,0.00000295,0.00000063,-0.00000515,-0.00000329,0.000
 00227,0.00000468,-0.00000595,0.00000249,-0.00000097,-0.00000806,0.0000
 0166,-0.00000224,0.00000380,0.00000005,0.00000648,0.00000171,0.0000012
 0,0.00000112,-0.00000402,0.00000152,0.00000169,-0.00000108,-0.00000488
 ,0.00000080,0.00000453,0.00000512,-0.00000560,0.00000454,0.00000042,0.
 00000134,-0.00000152,-0.00000391,0.00000093,-0.00000419,-0.00000653,0.
 00000313,-0.00000041,0.00000208,0.00000224,-0.00000107,-0.00000113,0.0
 0000219,-0.00000018,0.00000050,0.00000041,0.00000217,0.00000066,0.0000
 0063,-0.00000028,-0.00000048,0.00000035,0.00000049,0.00000031,0.000001
 35,0.00000056,-0.00000074,-0.00000243,-0.00000285,0.00000029,0.0000013
 7,0.00000117,-0.00000186,-0.00000062,-0.00000084,0.00000104,0.00000067
 ,0.00000013,0.00000020,-0.00000085,0.00000019,-0.00000179,0.00000217,-
 0.00000082,-0.00000017,-0.00000107,-0.00000104,0.00000002,-0.00000134,
 0.00000337,-0.00000038,-0.00000019,-0.00000181,0.00000040,0.00000048,0
 .00000268,-0.00000139,0.00000262,0.00000045,0.00000141,0.00000184,-0.0
 0000157,-0.00000045,-0.00000370,-0.00000133,0.00000023,-0.00000138,0.0
 0000009,0.00000174,-0.00000186,-0.00000071,-0.00000009,-0.00000025,0.0
 0000096,0.00000172,-0.00000020,-0.00000033,0.00000075,0.00000331,-0.00
 000301,-0.00000134,-0.00000054,-0.00000019,0.00000049,-0.00000012,0.00
 000205,0.00000386,-0.00000038,0.00000108,0.00000003,-0.00000094,0.0000
 0002,-0.00000010,-0.00000070,0.00000012,0.00000120,-0.00000043,0.00000
 044,0.00000080,0.00000023,0.00000086,0.00000138,0.00000156,-0.00000145
 ,-0.00000058,0.00000024,0.00000384,-0.00000235,-0.00000416,0.00000190,
 0.00000135,0.00000403,0.00000018,0.00000336,-0.00000125,0.00000529,-0.
 00000347,0.00000262,0.00000331,-0.00000137,-0.00000171,-0.00000292,0.0
 0000086,0.00000331,-0.00000014,0.00000156\\\@


 WE HAVE LEFT UNDONE THOSE THINGS WHICH WE OUGHT TO HAVE DONE,
 AND WE HAVE DONE THOSE THINGS WHICH WE OUGHT NOT TO HAVE DONE.
                   BOOK OF COMMON PRAYER                      
 Job cpu time:  1 days 10 hours 41 minutes 21.4 seconds.
 File lengths (MBytes):  RWF=   2090 Int=      0 D2E=      0 Chk=     18 Scr=      1
 Normal termination of Gaussian 09 at Sat Aug 28 22:05:39 2010.
