----- GAMESS execution script 'rungms' -----
This job is running on host copper
under operating system Linux at Wed Jul 27 01:16:18 EDT 2016
Available scratch disk space (Kbyte units) at beginning of the job is
Filesystem     1K-blocks   Used Available Use% Mounted on
tmpfs            8089516 124464   7965052   2% /tmp
GAMESS temporary binary files will be written to /tmp
GAMESS supplementary output files will be written to /tmp
Copying input file dvb_td.inp to your run's scratch directory...

 Distributed Data Interface kickoff program.
 Initiating 1 compute processes on 1 nodes to run the following command:
 /opt/gamess/gamess.01.x dvb_td 

          ******************************************************
          *         GAMESS VERSION =  5 DEC 2014 (R1)          *
          *             FROM IOWA STATE UNIVERSITY             *
          * M.W.SCHMIDT, K.K.BALDRIDGE, J.A.BOATZ, S.T.ELBERT, *
          *   M.S.GORDON, J.H.JENSEN, S.KOSEKI, N.MATSUNAGA,   *
          *          K.A.NGUYEN, S.J.SU, T.L.WINDUS,           *
          *       TOGETHER WITH M.DUPUIS, J.A.MONTGOMERY       *
          *         J.COMPUT.CHEM.  14, 1347-1363(1993)        *
          **************** 64 BIT LINUX VERSION ****************

  SINCE 1993, STUDENTS AND POSTDOCS WORKING AT IOWA STATE UNIVERSITY
  AND ALSO IN THEIR VARIOUS JOBS AFTER LEAVING ISU HAVE MADE IMPORTANT
  CONTRIBUTIONS TO THE CODE:
     IVANA ADAMOVIC, CHRISTINE AIKENS, YURI ALEXEEV, POOJA ARORA,
     ANDREY ASADCHEV, ROB BELL, PRADIPTA BANDYOPADHYAY, JONATHAN BENTZ,
     BRETT BODE, KURT BRORSEN, CALEB CARLIN, GALINA CHABAN, WEI CHEN,
     CHEOL HO CHOI, PAUL DAY, ALBERT DEFUSCO, NUWAN DESILVA, TIM DUDLEY,
     DMITRI FEDOROV, GRAHAM FLETCHER, MARK FREITAG, KURT GLAESEMANN,
     DAN KEMP, GRANT MERRILL, NORIYUKI MINEZAWA, JONATHAN MULLIN,
     TAKESHI NAGATA, SEAN NEDD, HEATHER NETZLOFF, BOSILJKA NJEGIC, RYAN OLSON,
     MIKE PAK, SPENCER PRUITT, LUKE ROSKOP, JIM SHOEMAKER, LYUDMILA SLIPCHENKO,
     TONY SMITH, SAROM SOK, JIE SONG, TETSUYA TAKETSUGU, SIMON WEBB,
     PENG XU, SOOHAENG YOO, FEDERICO ZAHARIEV

  ADDITIONAL CODE HAS BEEN PROVIDED BY COLLABORATORS IN OTHER GROUPS:
     IOWA STATE UNIVERSITY:
          JOE IVANIC, AARON WEST, LAIMUTIS BYTAUTAS, KLAUS RUEDENBERG
     UNIVERSITY OF TOKYO: KIMIHIKO HIRAO, TAKAHITO NAKAJIMA,
          TAKAO TSUNEDA, MUNEAKI KAMIYA, SUSUMU YANAGISAWA,
          KIYOSHI YAGI, MAHITO CHIBA, SEIKEN TOKURA, NAOAKI KAWAKAMI
     UNIVERSITY OF AARHUS: FRANK JENSEN
     UNIVERSITY OF IOWA: VISVALDAS KAIRYS, HUI LI
     NATIONAL INST. OF STANDARDS AND TECHNOLOGY: WALT STEVENS, DAVID GARMER
     UNIVERSITY OF PISA: BENEDETTA MENNUCCI, JACOPO TOMASI
     UNIVERSITY OF MEMPHIS: HENRY KURTZ, PRAKASHAN KORAMBATH
     UNIVERSITY OF ALBERTA: TOBY ZENG, MARIUSZ KLOBUKOWSKI
     UNIVERSITY OF NEW ENGLAND: MARK SPACKMAN
     MIE UNIVERSITY: HIROAKI UMEDA
     NAT. INST. OF ADVANCED INDUSTRIAL SCIENCE AND TECHNOLOGY: KAZUO KITAURA
     MICHIGAN STATE UNIVERSITY:
          KAROL KOWALSKI, MARTA WLOCH, JEFFREY GOUR, JESSE LUTZ,
          WEI LI, PIOTR PIECUCH
     UNIVERSITY OF SILESIA: MONIKA MUSIAL, STANISLAW KUCHARSKI
     FACULTES UNIVERSITAIRES NOTRE-DAME DE LA PAIX:
          OLIVIER QUINET, BENOIT CHAMPAGNE
     UNIVERSITY OF CALIFORNIA - SANTA BARBARA: BERNARD KIRTMAN
     INSTITUTE FOR MOLECULAR SCIENCE:
          KAZUYA ISHIMURA, MICHIO KATOUDA, AND SHIGERU NAGASE
     UNIVERSITY OF NOTRE DAME: ANNA POMOGAEVA, DAN CHIPMAN
     KYUSHU UNIVERSITY:
          HARUYUKI NAKANO,
          FENG LONG GU, JACEK KORCHOWIEC, MARCIN MAKOWSKI, AND YURIKO AOKI,
          HIROTOSHI MORI AND EISAKU MIYOSHI
     PENNSYLVANIA STATE UNIVERSITY:
          TZVETELIN IORDANOV, CHET SWALINA, JONATHAN SKONE,
          SHARON HAMMES-SCHIFFER
     WASEDA UNIVERSITY:
          MASATO KOBAYASHI, TOMOKO AKAMA, TSUGUKI TOUMA,
          TAKESHI YOSHIKAWA, YASUHIRO IKABATA, HIROMI NAKAI
     NANJING UNIVERSITY: SHUHUA LI
     UNIVERSITY OF NEBRASKA:
          PEIFENG SU, DEJUN SI, NANDUN THELLAMUREGE, YALI WANG, HUI LI
     UNIVERSITY OF ZURICH: ROBERTO PEVERATI, KIM BALDRIDGE
     N. COPERNICUS UNIVERSITY AND JACKSON STATE UNIVERSITY:
          MARIA BARYSZ
     UNIVERSITY OF COPENHAGEN: CASPER STEINMANN
     TOKYO INSTITUTE OF TECHNOLOGY: HIROYA NAKATA
     NAGOYA UNIVERSITY: YOSHIO NISHIMOTO, STEPHAN IRLE

 EXECUTION OF GAMESS BEGUN Wed Jul 27 01:16:18 2016

            ECHO OF THE FIRST FEW INPUT CARDS -
 INPUT CARD> $CONTRL COORD=PRINAXIS SCFTYP=RHF DFTTYP=B3LYP TDDFT=EXCITE $END               
 INPUT CARD> $SYSTEM TIMLIM=3000 MWORDS=50 $END                                             
 INPUT CARD> $BASIS  GBASIS=N21 ngauss=3 NDFUNC=1 $END                                      
 INPUT CARD> $TDDFT  NSTATE=10 $END                                                         
 INPUT CARD> $DATA                                                                          
 INPUT CARD>divinylbenzene                                                                  
 INPUT CARD>cnh 2                                                                           
 INPUT CARD>                                                                                
 INPUT CARD> C           6.0  -1.3939882447   0.2213755683   0.0000000000                   
 INPUT CARD> C           6.0   1.3939882447  -0.2213755683   0.0000000000                   
 INPUT CARD> C           6.0  -0.4919705715   1.2868407086   0.0000000000                   
 INPUT CARD> C           6.0   0.4919705715  -1.2868407086   0.0000000000                   
 INPUT CARD> C           6.0   0.8733456137   1.0731470812   0.0000000000                   
 INPUT CARD> C           6.0  -0.8733456137  -1.0731470812   0.0000000000                   
 INPUT CARD> H           1.0  -0.8715846529   2.3007508400   0.0000000000                   
 INPUT CARD> H           1.0   0.8715846529  -2.3007508400   0.0000000000                   
 INPUT CARD> H           1.0   1.5389282156   1.9253173698   0.0000000000                   
 INPUT CARD> H           1.0  -1.5389282156  -1.9253173698   0.0000000000                   
 INPUT CARD> C           6.0   2.8621079750  -0.5097799325   0.0000000000                   
 INPUT CARD> C           6.0  -2.8621079750   0.5097799325   0.0000000000                   
 INPUT CARD> H           1.0   3.1070578958  -1.5662206184   0.0000000000                   
 INPUT CARD> H           1.0  -3.1070578958   1.5662206184   0.0000000000                   
 INPUT CARD> C           6.0   3.8375160019   0.3700444858   0.0000000000                   
 INPUT CARD> C           6.0  -3.8375160019  -0.3700444858   0.0000000000                   
 INPUT CARD> H           1.0   3.6688910549   1.4371664215   0.0000000000                   
 INPUT CARD> H           1.0  -3.6688910549  -1.4371664215   0.0000000000                   
 INPUT CARD> H           1.0   4.8733853301   0.0604752833   0.0000000000                   
 INPUT CARD> H           1.0  -4.8733853301  -0.0604752833   0.0000000000                   
 INPUT CARD> $END                                                                           
 INPUT CARD>                                                                                
   50000000 WORDS OF MEMORY AVAILABLE

     BASIS OPTIONS
     -------------
     GBASIS=N21          IGAUSS=       3      POLAR=COMMON  
     NDFUNC=       1     NFFUNC=       0     DIFFSP=       F
     NPFUNC=       0      DIFFS=       F     BASNAM=        


     RUN TITLE
     ---------
 divinylbenzene                                                                  

 THE POINT GROUP OF THE MOLECULE IS CNH     
 THE ORDER OF THE PRINCIPAL AXIS IS     2

 THE MOMENTS OF INERTIA ARE (AMU-ANGSTROM**2)
 IXX=   105.330   IYY=   721.564   IZZ=   826.894

 ATOM      ATOMIC                      COORDINATES (BOHR)
           CHARGE         X                   Y                   Z
 C           6.0     2.6326754828       -0.4281718636        0.0000000000
 C           6.0    -2.6326754828        0.4281718636        0.0000000000
 C           6.0     0.9206034836       -2.4352305938        0.0000000000
 C           6.0    -0.9206034836        2.4352305938        0.0000000000
 C           6.0    -1.6579442427       -2.0217776949        0.0000000000
 C           6.0     1.6579442427        2.0217776949        0.0000000000
 H           1.0     1.6308111945       -4.3539080202        0.0000000000
 H           1.0    -1.6308111945        4.3539080202        0.0000000000
 H           1.0    -2.9217169051       -3.6274386342        0.0000000000
 H           1.0     2.9217169051        3.6274386342        0.0000000000
 C           6.0    -5.4049652465        0.9835319540        0.0000000000
 C           6.0     5.4049652465       -0.9835319540        0.0000000000
 H           1.0    -5.8603962828        2.9816297594        0.0000000000
 H           1.0     5.8603962828       -2.9816297594        0.0000000000
 C           6.0    -7.2544141054       -0.6722013017        0.0000000000
 C           6.0     7.2544141054        0.6722013017        0.0000000000
 H           1.0    -6.9432907143       -2.6899450727        0.0000000000
 H           1.0     6.9432907143        2.6899450727        0.0000000000
 H           1.0    -9.2097254111       -0.0798955904        0.0000000000
 H           1.0     9.2097254111        0.0798955904        0.0000000000

          INTERNUCLEAR DISTANCES (ANGS.)
          ------------------------------

                1 C          2 C          3 C          4 C          5 C     

   1 C       0.0000000    2.8229136 *  1.3960128 *  2.4148617 *  2.4220482 *
   2 C       2.8229136 *  0.0000000    2.4148617 *  1.3960128 *  1.3952984 *
   3 C       1.3960128 *  2.4148617 *  0.0000000    2.7553541 *  1.3819382 *
   4 C       2.4148617 *  1.3960128 *  2.7553541 *  0.0000000    2.3906044 *
   5 C       2.4220482 *  1.3952984 *  1.3819382 *  2.3906044 *  0.0000000  
   6 C       1.3952984 *  2.4220482 *  2.3906044 *  1.3819382 *  2.7672204 *
   7 H       2.1439932 *  3.3902717    1.0826452 *  3.8379807    2.1334931 *
   8 H       3.3902717    2.1439932 *  3.8379807    1.0826452 *  3.3738984  
   9 H       3.3919635    2.1515804 *  2.1288970 *  3.3784730    1.0812929 *
  10 H       2.1515804 *  3.3919635    3.3784730    2.1288970 *  3.8483573  
  11 C       4.3184422    1.4961793 *  3.8049558    2.4942684 *  2.5418170 *
  12 C       1.4961793 *  4.3184422    2.4942684 *  3.8049558    3.7776972  
  13 H       4.8430276    2.1778925 *  4.5927078    2.6299686 *  3.4577062  
  14 H       2.1778925 *  4.8430276    2.6299686 *  4.5927078    4.0108270  
  15 C       5.2336163    2.5140815 *  4.4254909    3.7333554    3.0464175  
  16 C       2.5140815 *  5.2336163    3.7333554    4.4254909    4.9269685  
  17 H       5.2068123    2.8153054 *  4.1635763    4.1848583    2.8191460 *
  18 H       2.8153054 *  5.2068123    4.1848583    4.1635763    5.1897580  
  19 H       6.2694386    3.4907942    5.5037275    4.5838909    4.1262358  
  20 H       3.4907942    6.2694386    4.5838909    5.5037275    5.8574752  

                6 C          7 H          8 H          9 H         10 H     

   1 C       1.3952984 *  2.1439932 *  3.3902717    3.3919635    2.1515804 *
   2 C       2.4220482 *  3.3902717    2.1439932 *  2.1515804 *  3.3919635  
   3 C       2.3906044 *  1.0826452 *  3.8379807    2.1288970 *  3.3784730  
   4 C       1.3819382 *  3.8379807    1.0826452 *  3.3784730    2.1288970 *
   5 C       2.7672204 *  2.1334931 *  3.3738984    1.0812929 *  3.8483573  
   6 C       0.0000000    3.3738984    2.1334931 *  3.8483573    1.0812929 *
   7 H       3.3738984    0.0000000    4.9206155    2.4395743 *  4.2784343  
   8 H       2.1334931 *  4.9206155    0.0000000    4.2784343    2.4395743 *
   9 H       3.8483573    2.4395743 *  4.2784343    0.0000000    4.9295627  
  10 H       1.0812929 *  4.2784343    2.4395743 *  4.9295627    0.0000000  
  11 C       3.7776972    4.6732798    2.6776407 *  2.7713721 *  4.6230797  
  12 C       2.5418170 *  2.6776407 *  4.6732798    4.6230797    2.7713721 *
  13 H       4.0108270    5.5482488    2.3530566 *  3.8275146    4.6598431  
  14 H       3.4577062    2.3530566 *  5.5482488    4.6598431    3.8275146  
  15 C       4.9269685    5.0895241    3.9912274    2.7753161 *  5.8459249  
  16 C       3.0464175    3.9912274    5.0895241    5.8459249    2.7753161 *
  17 H       5.1897580    4.6218717    4.6687202    2.1851849 *  6.1990063  
  18 H       2.8191460 *  4.6687202    4.6218717    6.1990063    2.1851849 *
  19 H       5.8574752    6.1663210    4.6464823    3.8205026    6.7127593  
  20 H       4.1262358    4.6464823    6.1663210    6.7127593    3.8205026  

               11 C         12 C         13 H         14 H         15 C     

   1 C       4.3184422    1.4961793 *  4.8430276    2.1778925 *  5.2336163  
   2 C       1.4961793 *  4.3184422    2.1778925 *  4.8430276    2.5140815 *
   3 C       3.8049558    2.4942684 *  4.5927078    2.6299686 *  4.4254909  
   4 C       2.4942684 *  3.8049558    2.6299686 *  4.5927078    3.7333554  
   5 C       2.5418170 *  3.7776972    3.4577062    4.0108270    3.0464175  
   6 C       3.7776972    2.5418170 *  4.0108270    3.4577062    4.9269685  
   7 H       4.6732798    2.6776407 *  5.5482488    2.3530566 *  5.0895241  
   8 H       2.6776407 *  4.6732798    2.3530566 *  5.5482488    3.9912274  
   9 H       2.7713721 *  4.6230797    3.8275146    4.6598431    2.7753161 *
  10 H       4.6230797    2.7713721 *  4.6598431    3.8275146    5.8459249  
  11 C       0.0000000    5.8143057    1.0844664 *  6.3198670    1.3135874 *
  12 C       5.8143057    0.0000000    6.3198670    1.0844664 *  6.7010811  
  13 H       1.0844664 *  6.3198670    0.0000000    6.9589815    2.0694665 *
  14 H       6.3198670    1.0844664 *  6.9589815    0.0000000    7.0468393  
  15 C       1.3135874 *  6.7010811    2.0694665 *  7.0468393    0.0000000  
  16 C       6.7010811    1.3135874 *  7.0468393    2.0694665 *  7.7106321  
  17 H       2.1074864 *  6.5965138    3.0554853    6.7771778    1.0803627 *
  18 H       6.5965138    2.1074864 *  6.7771778    3.0554853    7.7208910  
  19 H       2.0905568 *  7.7485309    2.4012605 *  8.1212526    1.0811375 *
  20 H       7.7485309    2.0905568 *  8.1212526    2.4012605 *  8.7215337  

               16 C         17 H         18 H         19 H         20 H     

   1 C       2.5140815 *  5.2068123    2.8153054 *  6.2694386    3.4907942  
   2 C       5.2336163    2.8153054 *  5.2068123    3.4907942    6.2694386  
   3 C       3.7333554    4.1635763    4.1848583    5.5037275    4.5838909  
   4 C       4.4254909    4.1848583    4.1635763    4.5838909    5.5037275  
   5 C       4.9269685    2.8191460 *  5.1897580    4.1262358    5.8574752  
   6 C       3.0464175    5.1897580    2.8191460 *  5.8574752    4.1262358  
   7 H       3.9912274    4.6218717    4.6687202    6.1663210    4.6464823  
   8 H       5.0895241    4.6687202    4.6218717    4.6464823    6.1663210  
   9 H       5.8459249    2.1851849 *  6.1990063    3.8205026    6.7127593  
  10 H       2.7753161 *  6.1990063    2.1851849 *  6.7127593    3.8205026  
  11 C       6.7010811    2.1074864 *  6.5965138    2.0905568 *  7.7485309  
  12 C       1.3135874 *  6.5965138    2.1074864 *  7.7485309    2.0905568 *
  13 H       7.0468393    3.0554853    6.7771778    2.4012605 *  8.1212526  
  14 H       2.0694665 *  6.7771778    3.0554853    8.1212526    2.4012605 *
  15 C       7.7106321    1.0803627 *  7.7208910    1.0811375 *  8.7215337  
  16 C       0.0000000    7.7208910    1.0803627 *  8.7215337    1.0811375 *
  17 H       7.7208910    0.0000000    7.8806621    1.8292307 *  8.6725669  
  18 H       1.0803627 *  7.8806621    0.0000000    8.6725669    1.8292307 *
  19 H       8.7215337    1.8292307 *  8.6725669    0.0000000    9.7475211  
  20 H       1.0811375 *  8.6725669    1.8292307 *  9.7475211    0.0000000  

  * ... LESS THAN  3.000


     ATOMIC BASIS SET
     ----------------
 THE CONTRACTED PRIMITIVE FUNCTIONS HAVE BEEN UNNORMALIZED
 THE CONTRACTED BASIS FUNCTIONS ARE NOW NORMALIZED TO UNITY

  SHELL TYPE  PRIMITIVE        EXPONENT          CONTRACTION COEFFICIENT(S)

 C         

      4   S       1           172.2560000    0.061766907377
      4   S       2            25.9109000    0.358794042852
      4   S       3             5.5333500    0.700713083689

      5   L       4             3.6649800   -0.395895162119    0.236459946619
      5   L       5             0.7705450    1.215834355681    0.860618805716

      6   L       6             0.1958570    1.000000000000    1.000000000000

 C         

     10   S       7           172.2560000    0.061766907377
     10   S       8            25.9109000    0.358794042852
     10   S       9             5.5333500    0.700713083689

     11   L      10             3.6649800   -0.395895162119    0.236459946619
     11   L      11             0.7705450    1.215834355681    0.860618805716

     12   L      12             0.1958570    1.000000000000    1.000000000000

 C         

     16   S      13           172.2560000    0.061766907377
     16   S      14            25.9109000    0.358794042852
     16   S      15             5.5333500    0.700713083689

     17   L      16             3.6649800   -0.395895162119    0.236459946619
     17   L      17             0.7705450    1.215834355681    0.860618805716

     18   L      18             0.1958570    1.000000000000    1.000000000000

 H         

     21   S      19             5.4471780    0.156284978695
     21   S      20             0.8245472    0.904690876670

     22   S      21             0.1831916    1.000000000000

 H         

     25   S      22             5.4471780    0.156284978695
     25   S      23             0.8245472    0.904690876670

     26   S      24             0.1831916    1.000000000000

 C         

     30   S      25           172.2560000    0.061766907377
     30   S      26            25.9109000    0.358794042852
     30   S      27             5.5333500    0.700713083689

     31   L      28             3.6649800   -0.395895162119    0.236459946619
     31   L      29             0.7705450    1.215834355681    0.860618805716

     32   L      30             0.1958570    1.000000000000    1.000000000000

 H         

     35   S      31             5.4471780    0.156284978695
     35   S      32             0.8245472    0.904690876670

     36   S      33             0.1831916    1.000000000000

 C         

     40   S      34           172.2560000    0.061766907377
     40   S      35            25.9109000    0.358794042852
     40   S      36             5.5333500    0.700713083689

     41   L      37             3.6649800   -0.395895162119    0.236459946619
     41   L      38             0.7705450    1.215834355681    0.860618805716

     42   L      39             0.1958570    1.000000000000    1.000000000000

 H         

     45   S      40             5.4471780    0.156284978695
     45   S      41             0.8245472    0.904690876670

     46   S      42             0.1831916    1.000000000000

 H         

     49   S      43             5.4471780    0.156284978695
     49   S      44             0.8245472    0.904690876670

     50   S      45             0.1831916    1.000000000000

 TOTAL NUMBER OF BASIS SET SHELLS             =   50
 NUMBER OF CARTESIAN GAUSSIAN BASIS FUNCTIONS =  110
 NUMBER OF ELECTRONS                          =   70
 CHARGE OF MOLECULE                           =    0
 SPIN MULTIPLICITY                            =    1
 NUMBER OF OCCUPIED ORBITALS (ALPHA)          =   35
 NUMBER OF OCCUPIED ORBITALS (BETA )          =   35
 TOTAL NUMBER OF ATOMS                        =   20
 THE NUCLEAR REPULSION ENERGY IS      452.1260015068

     LEBEDEV GRID-BASED DFT OPTIONS
     ------------------------------
     DFTTYP=B3LYP   
     NRAD  =      96     NLEB  =     302
     NRAD0 =      24     NLEB0 =     110
     SWOFF =    5.00E-03 (PURE SCF -> DFT)
     SWITCH=    3.00E-04 (COARSE -> TIGHT GRID)
     THRESH=    0.00E+00 GTHRE=    1.00E+00

 GRIMME'S EMPIRICAL DISPERSION CORRECTION= F

     $CONTRL OPTIONS
     ---------------
 SCFTYP=RHF          RUNTYP=ENERGY       EXETYP=RUN     
 MPLEVL=       0     CITYP =NONE         CCTYP =NONE         VBTYP =NONE    
 DFTTYP=B3LYP        TDDFT =EXCITE  
 MULT  =       1     ICHARG=       0     NZVAR =       0     COORD =PRINAXIS
 PP    =NONE         RELWFN=NONE         LOCAL =NONE         NUMGRD=       F
 ISPHER=      -1     NOSYM =       0     MAXIT =      30     UNITS =ANGS    
 PLTORB=       F     MOLPLT=       F     AIMPAC=       F     FRIEND=        
 NPRINT=       7     IREST =       0     GEOM  =INPUT   
 NORMF =       0     NORMP =       0     ITOL  =      20     ICUT  =       9
 INTTYP=BEST         GRDTYP=BEST         QMTTOL= 1.0E-06

     $SYSTEM OPTIONS
     ---------------
  REPLICATED MEMORY=    50000000 WORDS (ON EVERY NODE).
 DISTRIBUTED MEMDDI=           0 MILLION WORDS IN AGGREGATE,
 MEMDDI DISTRIBUTED OVER   1 PROCESSORS IS           0 WORDS/PROCESSOR.
 TOTAL MEMORY REQUESTED ON EACH PROCESSOR=    50000000 WORDS.
 TIMLIM=        3000.00 MINUTES, OR       2.1 DAYS.
 PARALL= F  BALTYP=  DLB     KDIAG=    0  COREFL= F
 MXSEQ2=     300 MXSEQ3=     150  mem10=         0

          ----------------
          PROPERTIES INPUT
          ----------------

     MOMENTS            FIELD           POTENTIAL          DENSITY
 IEMOM =       1   IEFLD =       0   IEPOT =       0   IEDEN =       0
 WHERE =COMASS     WHERE =NUCLEI     WHERE =NUCLEI     WHERE =NUCLEI  
 OUTPUT=BOTH       OUTPUT=BOTH       OUTPUT=BOTH       OUTPUT=BOTH    
 IEMINT=       0   IEFINT=       0                     IEDINT=       0
                                                       MORB  =       0
          EXTRAPOLATION IN EFFECT
          DIIS IN EFFECT
 ORBITAL PRINTING OPTION: NPREO=     1   110     2     1

     -------------------------------
     INTEGRAL TRANSFORMATION OPTIONS
     -------------------------------
     NWORD  =            0
     CUTOFF = 1.0E-09     MPTRAN =       0
     DIRTRF =       F     AOINTS =DUP     

          ----------------------
          INTEGRAL INPUT OPTIONS
          ----------------------
 NOPK  =       1 NORDER=       0 SCHWRZ=       T

          ----------------------
          TDDFT INPUT PARAMETERS
          ----------------------
 NSTATE=      10  IROOT=       1   MULT=       1
 MAXVEC=      50 NTRIAL=       5 CNVTOL=  1.00E-07
 TDPRP =       F  TAMMD=       F    TPA=       F
 ALPHA =       F   BETA=       F  PFREQ=    0.00    0.00
   NRAD=      48   NLEB=     110

     ------------------------------------------
     THE POINT GROUP IS CNH, NAXIS= 2, ORDER= 4
     ------------------------------------------

     DIMENSIONS OF THE SYMMETRY SUBSPACES ARE
 AG  =   45     AU  =   10     BU  =   45     BG  =   10

 ..... DONE SETTING UP THE RUN .....
 STEP CPU TIME =     0.23 TOTAL CPU TIME =        0.2 (    0.0 MIN)
 TOTAL WALL CLOCK TIME=        0.1 SECONDS, CPU UTILIZATION IS 255.56%

          ********************
          1 ELECTRON INTEGRALS
          ********************
 ...... END OF ONE-ELECTRON INTEGRALS ......
 STEP CPU TIME =     0.02 TOTAL CPU TIME =        0.2 (    0.0 MIN)
 TOTAL WALL CLOCK TIME=        0.1 SECONDS, CPU UTILIZATION IS 227.27%

          -------------
          GUESS OPTIONS
          -------------
          GUESS =HUCKEL            NORB  =       0          NORDER=       0
          MIX   =       F          PRTMO =       F          PUNMO =       F
          TOLZ  = 1.0E-08          TOLE  = 1.0E-05
          SYMDEN=       F          PURIFY=       F

 INITIAL GUESS ORBITALS GENERATED BY HUCKEL   ROUTINE.
 HUCKEL GUESS REQUIRES    116680 WORDS.

 SYMMETRIES FOR INITIAL GUESS ORBITALS FOLLOW.   BOTH SET(S).
    35 ORBITALS ARE OCCUPIED (   10 CORE ORBITALS).
    11=AG      12=BU      13=AG      14=BU      15=BU      16=AG      17=AG  
    18=AG      19=BU      20=AG      21=BU      22=AU      23=BU      24=AG  
    25=BU      26=BG      27=BU      28=AG      29=AU      30=BU      31=BU  
    32=BG      33=BG      34=AG      35=AG      36=AU      37=AU      38=BG  
    39=AU      40=BG      41=AG      42=AG      43=AG      44=AG      45=AG  
 ...... END OF INITIAL ORBITAL SELECTION ......
 STEP CPU TIME =     0.15 TOTAL CPU TIME =        0.4 (    0.0 MIN)
 TOTAL WALL CLOCK TIME=        0.2 SECONDS, CPU UTILIZATION IS 235.29%

                    ----------------------
                    AO INTEGRAL TECHNOLOGY
                    ----------------------
     S,P,L SHELL ROTATED AXIS INTEGRALS, REPROGRAMMED BY
        KAZUYA ISHIMURA (IMS) AND JOSE SIERRA (SYNSTAR).
     S,P,D,L SHELL ROTATED AXIS INTEGRALS PROGRAMMED BY
        KAZUYA ISHIMURA (INSTITUTE FOR MOLECULAR SCIENCE).
     S,P,D,F,G SHELL TO TOTAL QUARTET ANGULAR MOMENTUM SUM 5,
        ERIC PROGRAM BY GRAHAM FLETCHER (ELORET AND NASA ADVANCED
        SUPERCOMPUTING DIVISION, AMES RESEARCH CENTER).
     S,P,D,F,G,L SHELL GENERAL RYS QUADRATURE PROGRAMMED BY
        MICHEL DUPUIS (PACIFIC NORTHWEST NATIONAL LABORATORY).

          --------------------
          2 ELECTRON INTEGRALS
          --------------------

 THE -PK- OPTION IS OFF, THE INTEGRALS ARE NOT IN SUPERMATRIX FORM.
 STORING   15000 INTEGRALS/RECORD ON DISK, USING 12 BYTES/INTEGRAL.
 TWO ELECTRON INTEGRAL EVALUATION REQUIRES   90631 WORDS OF MEMORY.
 SCHWARZ INEQUALITY OVERHEAD:      5711 INTEGRALS, T=        0.02
 II,JST,KST,LST =  1  1  1  1 NREC =         1 INTLOC =    1
 II,JST,KST,LST =  2  1  1  1 NREC =         1 INTLOC =    1
 II,JST,KST,LST =  3  1  1  1 NREC =         1 INTLOC =    1
 II,JST,KST,LST =  4  1  1  1 NREC =         1 INTLOC =    1
 II,JST,KST,LST =  5  1  1  1 NREC =         1 INTLOC =    3
 II,JST,KST,LST =  6  1  1  1 NREC =         1 INTLOC =  325
 II,JST,KST,LST =  7  1  1  1 NREC =         1 INTLOC = 3663
 II,JST,KST,LST =  8  1  1  1 NREC =         1 INTLOC = 3663
 II,JST,KST,LST =  9  1  1  1 NREC =         1 INTLOC = 3663
 II,JST,KST,LST = 10  1  1  1 NREC =         1 INTLOC = 3663
 II,JST,KST,LST = 11  1  1  1 NREC =         1 INTLOC = 5373
 II,JST,KST,LST = 12  1  1  1 NREC =         2 INTLOC = 5715
 II,JST,KST,LST = 13  1  1  1 NREC =         4 INTLOC =12845
 II,JST,KST,LST = 14  1  1  1 NREC =         4 INTLOC =12845
 II,JST,KST,LST = 15  1  1  1 NREC =         4 INTLOC =12845
 II,JST,KST,LST = 16  1  1  1 NREC =         4 INTLOC =12845
 II,JST,KST,LST = 17  1  1  1 NREC =         5 INTLOC =10135
 II,JST,KST,LST = 18  1  1  1 NREC =        10 INTLOC =14047
 II,JST,KST,LST = 19  1  1  1 NREC =        20 INTLOC = 1918
 II,JST,KST,LST = 20  1  1  1 NREC =        20 INTLOC = 1918
 II,JST,KST,LST = 21  1  1  1 NREC =        20 INTLOC = 1918
 II,JST,KST,LST = 22  1  1  1 NREC =        22 INTLOC =10548
 II,JST,KST,LST = 23  1  1  1 NREC =        26 INTLOC = 4854
 II,JST,KST,LST = 24  1  1  1 NREC =        26 INTLOC = 4854
 II,JST,KST,LST = 25  1  1  1 NREC =        26 INTLOC = 4854
 II,JST,KST,LST = 26  1  1  1 NREC =        29 INTLOC = 7931
 II,JST,KST,LST = 27  1  1  1 NREC =        34 INTLOC =  231
 II,JST,KST,LST = 28  1  1  1 NREC =        34 INTLOC =  231
 II,JST,KST,LST = 29  1  1  1 NREC =        34 INTLOC =  231
 II,JST,KST,LST = 30  1  1  1 NREC =        34 INTLOC =  231
 II,JST,KST,LST = 31  1  1  1 NREC =        36 INTLOC = 8998
 II,JST,KST,LST = 32  1  1  1 NREC =        51 INTLOC = 7121
 II,JST,KST,LST = 33  1  1  1 NREC =        78 INTLOC = 7030
 II,JST,KST,LST = 34  1  1  1 NREC =        78 INTLOC = 7030
 II,JST,KST,LST = 35  1  1  1 NREC =        78 INTLOC = 7030
 II,JST,KST,LST = 36  1  1  1 NREC =        83 INTLOC =12864
 II,JST,KST,LST = 37  1  1  1 NREC =        92 INTLOC =13330
 II,JST,KST,LST = 38  1  1  1 NREC =        92 INTLOC =13330
 II,JST,KST,LST = 39  1  1  1 NREC =        92 INTLOC =13330
 II,JST,KST,LST = 40  1  1  1 NREC =        92 INTLOC =13330
 II,JST,KST,LST = 41  1  1  1 NREC =        96 INTLOC = 8031
 II,JST,KST,LST = 42  1  1  1 NREC =       118 INTLOC =13576
 II,JST,KST,LST = 43  1  1  1 NREC =       161 INTLOC =  851
 II,JST,KST,LST = 44  1  1  1 NREC =       161 INTLOC =  851
 II,JST,KST,LST = 45  1  1  1 NREC =       161 INTLOC =  851
 II,JST,KST,LST = 46  1  1  1 NREC =       169 INTLOC = 4597
 II,JST,KST,LST = 47  1  1  1 NREC =       183 INTLOC = 3582
 II,JST,KST,LST = 48  1  1  1 NREC =       183 INTLOC = 3582
 II,JST,KST,LST = 49  1  1  1 NREC =       183 INTLOC = 3582
 II,JST,KST,LST = 50  1  1  1 NREC =       189 INTLOC =13885
 SCHWARZ INEQUALITY TEST SKIPPED      215908 INTEGRAL BLOCKS.
 TOTAL NUMBER OF NONZERO TWO-ELECTRON INTEGRALS =             3019414
        202 INTEGRAL RECORDS WERE STORED ON DISK FILE  8.
  ...... END OF TWO-ELECTRON INTEGRALS .....
 STEP CPU TIME =     0.56 TOTAL CPU TIME =        1.0 (    0.0 MIN)
 TOTAL WALL CLOCK TIME=        0.5 SECONDS, CPU UTILIZATION IS 188.24%

          --------------------------
             R-B3LYP SCF CALCULATION
          --------------------------

     NUCLEAR ENERGY =       452.1260015068
     MAXIT =   30     NPUNCH=    2
     EXTRAP=T  DAMP=F  SHIFT=F  RSTRCT=F  DIIS=T  DEM=F  SOSCF=F
         DENSITY MATRIX CONVERGENCE THRESHOLD=  1.00E-06
     COARSE -> FINE DFT GRID SWITCH THRESHOLD=  3.00E-04 (SWITCH IN $DFT)
                   HF -> DFT SWITCH THRESHOLD=  5.00E-03 (SWOFF IN $DFT)
     MEMORY REQUIRED FOR RHF ITERS=    773717 WORDS.

 DFT CODE IS SWITCHING FROM THE FINE GRID NRAD= 96,  NLEB=  302
                      TO THE COARSE GRID NRAD0= 24, NLEB0=  110

     EXCHANGE FUNCTIONAL   =B88&HFX   
     CORRELATION FUNCTIONAL=LYP88&VWN5
     DFT THRESHOLD         =.690E-08
     GRID CHANGE THRESHOLD =.300E-03
 FOR AN EULER-MACLAURIN QUADRATURE USING  96 RADIAL POINTS:
 SMALLEST GAUSSIAN PRIMITIVE EXPONENT=        0.1831915800 OF TYPE -S-
 ON ATOM NUMBER   7 HAS RADIAL NORMALIZATION=  1.000000
  LARGEST GAUSSIAN PRIMITIVE EXPONENT=      172.2560000000 OF TYPE -S-
 ON ATOM NUMBER   1 HAS RADIAL NORMALIZATION=  1.000000
 DFT IS SWITCHED OFF, PERFORMING PURE SCF UNTIL SWOFF THRESHOLD IS REACHED.

 ITER EX DEM     TOTAL ENERGY        E CHANGE  DENSITY CHANGE    DIIS ERROR
   1  0  0     -381.6221382717  -381.6221382717   0.289165514   0.607072946
          * * *   INITIATING DIIS PROCEDURE   * * *
   2  1  0     -382.2980146871    -0.6758764155   0.078420937   0.088604211
   3  2  0     -382.3218295512    -0.0238148641   0.034266586   0.014085209
   4  3  0     -382.3241211197    -0.0022915685   0.009705772   0.007979060
   5  4  0     -382.3245001300    -0.0003790104   0.002443599   0.001808362
 CONVERGED TO SWOFF, SO DFT CALCULATION IS NOW SWITCHED ON.
          * * *   INITIATING DIIS PROCEDURE   * * *
   6  5  0     -384.6314683412    -2.3069682112   0.112764680   0.095618083
   7  6  0     -384.6620436926    -0.0305753514   0.028334018   0.026378192
   8  7  0     -384.6653159483    -0.0032722558   0.016535298   0.017758337
   9  8  0     -384.6676876845    -0.0023717361   0.003769553   0.005345183
  10  9  0     -384.6678094407    -0.0001217562   0.000700910   0.000852061
  11 10  0     -384.6678126108    -0.0000031701   0.000220488   0.000170381
 DFT CODE IS SWITCHING BACK TO THE FINE GRID
          * * *   INITIATING DIIS PROCEDURE   * * *
  12 11  0     -384.6649061402     0.0029064705   0.001524034   0.001935615
  13 12  0     -384.6649218188    -0.0000156785   0.000432672   0.000174105
  14 13  0     -384.6649217360     0.0000000828   0.000321137   0.000233764
  15 14  0     -384.6649220970    -0.0000003610   0.000050754   0.000067557
  16 15  0     -384.6649221113    -0.0000000143   0.000019903   0.000026904
  17 16  0     -384.6649221142    -0.0000000029   0.000003359   0.000002044
  18 17  0     -384.6649221142    -0.0000000000   0.000002073   0.000001319
  19 18  0     -384.6649221142    -0.0000000000   0.000000134   0.000000123
  20 19  0     -384.6649221142    -0.0000000000   0.000000041   0.000000035

          -----------------
          DENSITY CONVERGED
          -----------------
     TIME TO FORM FOCK OPERATORS=      30.0 SECONDS (       1.5 SEC/ITER)
     TIME TO SOLVE SCF EQUATIONS=       0.3 SECONDS (       0.0 SEC/ITER)

 FINAL R-B3LYP ENERGY IS     -384.6649221142 AFTER  20 ITERATIONS
 DFT EXCHANGE + CORRELATION ENERGY =       -46.5199474282
 TOTAL ELECTRON NUMBER             =        69.9993067284

          ------------
          EIGENVECTORS
          ------------

                      1          2          3          4          5
                  -10.1362   -10.1361   -10.1274   -10.1274   -10.1251
                     BU         AG         BU         AG         AG  
    1  C  1  S    0.694616   0.694121  -0.036855   0.037050   0.011843
    2  C  1  S    0.079123   0.077966  -0.002202   0.002270   0.000433
    3  C  1  X   -0.000649  -0.000222   0.001385  -0.001200   0.000625
    4  C  1  Y    0.000083   0.000004   0.000226  -0.000315   0.001382
    5  C  1  Z    0.000000   0.000000   0.000000  -0.000000   0.000000
    6  C  1  S   -0.089692  -0.071655  -0.012447   0.010044   0.004029
    7  C  1  X    0.015794   0.002311  -0.015908   0.016884  -0.005106
    8  C  1  Y   -0.003173  -0.001015  -0.004173   0.007851  -0.022193
    9  C  1  Z    0.000000   0.000000   0.000000  -0.000000   0.000000
   10  C  2  S   -0.694616   0.694121   0.036855   0.037050   0.011843
   11  C  2  S   -0.079123   0.077966   0.002202   0.002270   0.000433
   12  C  2  X   -0.000649   0.000222   0.001385   0.001200  -0.000625
   13  C  2  Y    0.000083  -0.000004   0.000226   0.000315  -0.001382
   14  C  2  Z    0.000000   0.000000   0.000000  -0.000000   0.000000
   15  C  2  S    0.089692  -0.071655   0.012447   0.010044   0.004029
   16  C  2  X    0.015794  -0.002311  -0.015908  -0.016884   0.005106
   17  C  2  Y   -0.003173   0.001015  -0.004173  -0.007851   0.022193
   18  C  2  Z    0.000000   0.000000   0.000000  -0.000000   0.000000
   19  C  3  S   -0.036729  -0.038658   0.021093  -0.046716   0.565238
   20  C  3  S   -0.007534  -0.007164   0.002696  -0.006382   0.065049
   21  C  3  X   -0.001241  -0.000308   0.000450  -0.000142  -0.000972
   22  C  3  Y   -0.001172  -0.001306  -0.000176  -0.000269   0.001336
   23  C  3  Z    0.000000   0.000000   0.000000  -0.000000   0.000000
   24  C  3  S    0.037138   0.020701  -0.008217   0.011670  -0.070826
   25  C  3  X    0.004094   0.005596  -0.001566   0.002509   0.006243
   26  C  3  Y    0.021878   0.007758  -0.001876   0.006692  -0.017883
   27  C  3  Z    0.000000   0.000000   0.000000  -0.000000   0.000000
   28  C  4  S    0.036729  -0.038658  -0.021093  -0.046716   0.565238
   29  C  4  S    0.007534  -0.007164  -0.002696  -0.006382   0.065049
   30  C  4  X   -0.001241   0.000308   0.000450   0.000142   0.000972
   31  C  4  Y   -0.001172   0.001306  -0.000176   0.000269  -0.001336
   32  C  4  Z    0.000000   0.000000   0.000000  -0.000000   0.000000
   33  C  4  S   -0.037138   0.020701   0.008217   0.011670  -0.070826
   34  C  4  X    0.004094  -0.005596  -0.001566  -0.002509  -0.006243
   35  C  4  Y    0.021878  -0.007758  -0.001876  -0.006692   0.017883
   36  C  4  Z    0.000000   0.000000   0.000000  -0.000000   0.000000
   37  C  5  S    0.034876  -0.035721  -0.019430  -0.022198  -0.407634
   38  C  5  S    0.007377  -0.006726  -0.002263  -0.002737  -0.048797
   39  C  5  X   -0.000822  -0.000065   0.000710   0.000335  -0.001570
   40  C  5  Y    0.001520  -0.001380  -0.000387  -0.000343  -0.001156
   41  C  5  Z    0.000000   0.000000   0.000000  -0.000000   0.000000
   42  C  5  S   -0.037636   0.019719   0.000029  -0.002795   0.061614
   43  C  5  X   -0.002856  -0.004080   0.001833   0.003099   0.012404
   44  C  5  Y   -0.022598   0.010149  -0.000025  -0.001683   0.013979
   45  C  5  Z    0.000000   0.000000   0.000000  -0.000000   0.000000
   46  C  6  S   -0.034876  -0.035721   0.019430  -0.022198  -0.407634
   47  C  6  S   -0.007377  -0.006726   0.002263  -0.002737  -0.048797
   48  C  6  X   -0.000822   0.000065   0.000710  -0.000335   0.001570
   49  C  6  Y    0.001520   0.001380  -0.000387   0.000343   0.001156
   50  C  6  Z    0.000000   0.000000   0.000000  -0.000000   0.000000
   51  C  6  S    0.037636   0.019719  -0.000029  -0.002795   0.061614
   52  C  6  X   -0.002856   0.004080   0.001833  -0.003099  -0.012404
   53  C  6  Y   -0.022598  -0.010149  -0.000025   0.001683  -0.013979
   54  C  6  Z    0.000000   0.000000   0.000000  -0.000000   0.000000
   55  H  7  S    0.000205  -0.000672   0.000069   0.000327  -0.001434
   56  H  7  S    0.003025   0.000496   0.001138   0.000307   0.003323
   57  H  8  S   -0.000205  -0.000672  -0.000069   0.000327  -0.001434
   58  H  8  S   -0.003025   0.000496  -0.001138   0.000307   0.003323
   59  H  9  S   -0.000100  -0.000767   0.000302   0.000306   0.000977
   60  H  9  S   -0.003451   0.001023  -0.000351   0.000256  -0.001280
   61  H 10  S    0.000100  -0.000767  -0.000302   0.000306   0.000977
   62  H 10  S    0.003451   0.001023   0.000351   0.000256  -0.001280
   63  C 11  S    0.039225  -0.041165   0.695181   0.693841   0.024018
   64  C 11  S    0.006222  -0.006643   0.077047   0.076839   0.002095
   65  C 11  X    0.000744  -0.000680  -0.000153  -0.000235   0.000058
   66  C 11  Y   -0.000346   0.000356  -0.000862  -0.000926   0.000174
   67  C 11  Z    0.000000   0.000000   0.000000  -0.000000   0.000000
   68  C 11  S   -0.014131   0.018587  -0.067435  -0.067424   0.000100
   69  C 11  X   -0.006371   0.008919  -0.001582  -0.000398  -0.002851
   70  C 11  Y    0.003338  -0.004102   0.012616   0.013990  -0.006435
   71  C 11  Z    0.000000   0.000000   0.000000  -0.000000   0.000000
   72  C 12  S   -0.039225  -0.041165  -0.695181   0.693841   0.024018
   73  C 12  S   -0.006222  -0.006643  -0.077047   0.076839   0.002095
   74  C 12  X    0.000744   0.000680  -0.000153   0.000235  -0.000058
   75  C 12  Y   -0.000346  -0.000356  -0.000862   0.000926  -0.000174
   76  C 12  Z    0.000000   0.000000   0.000000  -0.000000   0.000000
   77  C 12  S    0.014131   0.018587   0.067435  -0.067424   0.000100
   78  C 12  X   -0.006371  -0.008919  -0.001582   0.000398   0.002851
   79  C 12  Y    0.003338   0.004102   0.012616  -0.013990   0.006435
   80  C 12  Z    0.000000   0.000000   0.000000  -0.000000   0.000000
   81  H 13  S    0.000320  -0.000349  -0.001677  -0.001801   0.000629
   82  H 13  S   -0.000082   0.000295   0.006807   0.006301   0.001774
   83  H 14  S   -0.000320  -0.000349   0.001677  -0.001801   0.000629
   84  H 14  S    0.000082   0.000295  -0.006807   0.006301   0.001774
   85  C 15  S    0.001480  -0.001729  -0.023119  -0.023163  -0.004416
   86  C 15  S    0.000149  -0.000234  -0.006072  -0.006103  -0.000852
   87  C 15  X    0.000299  -0.000308  -0.001726  -0.001654  -0.000678
   88  C 15  Y    0.000128  -0.000173  -0.001221  -0.001196  -0.000215
   89  C 15  Z    0.000000   0.000000   0.000000  -0.000000   0.000000
   90  C 15  S    0.002231  -0.002095   0.026117   0.027401  -0.004025
   91  C 15  X    0.002025  -0.002363   0.012988   0.013255   0.000338
   92  C 15  Y   -0.000551   0.001024   0.004948   0.005377  -0.000928
   93  C 15  Z    0.000000   0.000000   0.000000  -0.000000   0.000000
   94  C 16  S   -0.001480  -0.001729   0.023119  -0.023163  -0.004416
   95  C 16  S   -0.000149  -0.000234   0.006072  -0.006103  -0.000852
   96  C 16  X    0.000299   0.000308  -0.001726   0.001654   0.000678
   97  C 16  Y    0.000128   0.000173  -0.001221   0.001196   0.000215
   98  C 16  Z    0.000000   0.000000   0.000000  -0.000000   0.000000
   99  C 16  S   -0.002231  -0.002095  -0.026117   0.027401  -0.004025
  100  C 16  X    0.002025   0.002363   0.012988  -0.013255  -0.000338
  101  C 16  Y   -0.000551  -0.001024   0.004948  -0.005377   0.000928
  102  C 16  Z    0.000000   0.000000   0.000000  -0.000000   0.000000
  103  H 17  S   -0.000366   0.000473  -0.001439  -0.001420  -0.000231
  104  H 17  S   -0.000100   0.000227  -0.001320  -0.001370   0.000781
  105  H 18  S    0.000366   0.000473   0.001439  -0.001420  -0.000231
  106  H 18  S    0.000100   0.000227   0.001320  -0.001370   0.000781
  107  H 19  S    0.000172  -0.000242  -0.000286  -0.000343   0.000215
  108  H 19  S    0.000206  -0.000320   0.001991   0.001935   0.000906
  109  H 20  S   -0.000172  -0.000242   0.000286  -0.000343   0.000215
  110  H 20  S   -0.000206  -0.000320  -0.001991   0.001935   0.000906

                      6          7          8          9         10
                  -10.1251   -10.1238   -10.1234   -10.1136   -10.1136
                     BU         BU         AG         BU         AG  
    1  C  1  S    0.050034  -0.011041   0.053785  -0.002960   0.003684
    2  C  1  S    0.000676  -0.000017   0.001894  -0.000156   0.000153
    3  C  1  X    0.001258   0.000067   0.002510   0.000560  -0.000557
    4  C  1  Y    0.000312   0.002358  -0.000906   0.000360  -0.000378
    5  C  1  Z    0.000000   0.000000  -0.000000   0.000000   0.000000
    6  C  1  S    0.049420  -0.012153   0.016231   0.001068  -0.001193
    7  C  1  X   -0.037451   0.007360  -0.018638  -0.000353   0.002053
    8  C  1  Y    0.003734  -0.014310   0.010874  -0.001435   0.003873
    9  C  1  Z    0.000000   0.000000  -0.000000   0.000000   0.000000
   10  C  2  S   -0.050034   0.011041   0.053785   0.002960   0.003684
   11  C  2  S   -0.000676   0.000017   0.001894   0.000156   0.000153
   12  C  2  X    0.001258   0.000067  -0.002510   0.000560   0.000557
   13  C  2  Y    0.000312   0.002358   0.000906   0.000360   0.000378
   14  C  2  Z    0.000000   0.000000  -0.000000   0.000000   0.000000
   15  C  2  S   -0.049420   0.012153   0.016231  -0.001068  -0.001193
   16  C  2  X   -0.037451   0.007360   0.018638  -0.000353  -0.002053
   17  C  2  Y    0.003734  -0.014310  -0.010874  -0.001435  -0.003873
   18  C  2  Z    0.000000   0.000000  -0.000000   0.000000   0.000000
   19  C  3  S    0.596142   0.359475   0.403543  -0.001529   0.006383
   20  C  3  S    0.069155   0.037422   0.041235   0.000016  -0.000053
   21  C  3  X   -0.001501   0.001367   0.000702   0.000395  -0.000194
   22  C  3  Y    0.000989   0.000676  -0.000820   0.000002  -0.000176
   23  C  3  Z    0.000000   0.000000  -0.000000   0.000000   0.000000
   24  C  3  S   -0.094925  -0.008373  -0.016890   0.000672   0.003038
   25  C  3  X    0.018892  -0.010812  -0.003609  -0.004610   0.003768
   26  C  3  Y   -0.031765   0.003602  -0.000738   0.000073   0.003054
   27  C  3  Z    0.000000   0.000000  -0.000000   0.000000   0.000000
   28  C  4  S   -0.596142  -0.359475   0.403543   0.001529   0.006383
   29  C  4  S   -0.069155  -0.037422   0.041235  -0.000016  -0.000053
   30  C  4  X   -0.001501   0.001367  -0.000702   0.000395   0.000194
   31  C  4  Y    0.000989   0.000676   0.000820   0.000002   0.000176
   32  C  4  Z    0.000000   0.000000  -0.000000   0.000000   0.000000
   33  C  4  S    0.094925   0.008373  -0.016890  -0.000672   0.003038
   34  C  4  X    0.018892  -0.010812   0.003609  -0.004610  -0.003768
   35  C  4  Y   -0.031765   0.003602   0.000738   0.000073  -0.003054
   36  C  4  Z    0.000000   0.000000  -0.000000   0.000000   0.000000
   37  C  5  S   -0.358101   0.597152   0.564107   0.000900   0.002962
   38  C  5  S   -0.043589   0.065575   0.060493   0.000234   0.000163
   39  C  5  X   -0.002069  -0.000102  -0.000249   0.000303   0.000221
   40  C  5  Y    0.000153   0.001090  -0.000224   0.000032   0.000170
   41  C  5  Z    0.000000   0.000000  -0.000000   0.000000   0.000000
   42  C  5  S    0.080653  -0.053285  -0.044962  -0.003445   0.000369
   43  C  5  X    0.029622  -0.003784  -0.000958  -0.002748   0.001051
   44  C  5  Y    0.021743  -0.010983  -0.009699  -0.000242  -0.002874
   45  C  5  Z    0.000000   0.000000  -0.000000   0.000000   0.000000
   46  C  6  S    0.358101  -0.597152   0.564107  -0.000900   0.002962
   47  C  6  S    0.043589  -0.065575   0.060493  -0.000234   0.000163
   48  C  6  X   -0.002069  -0.000102   0.000249   0.000303  -0.000221
   49  C  6  Y    0.000153   0.001090   0.000224   0.000032  -0.000170
   50  C  6  Z    0.000000   0.000000  -0.000000   0.000000   0.000000
   51  C  6  S   -0.080653   0.053285  -0.044962   0.003445   0.000369
   52  C  6  X    0.029622  -0.003784   0.000958  -0.002748  -0.001051
   53  C  6  Y    0.021743  -0.010983   0.009699  -0.000242   0.002874
   54  C  6  Z    0.000000   0.000000  -0.000000   0.000000   0.000000
   55  H  7  S   -0.002338  -0.000810  -0.001454   0.000328  -0.000232
   56  H  7  S   -0.000597   0.005878   0.005377   0.000308   0.000905
   57  H  8  S    0.002338   0.000810  -0.001454  -0.000328  -0.000232
   58  H  8  S    0.000597  -0.005878   0.005377  -0.000308   0.000905
   59  H  9  S    0.001734  -0.001899  -0.001993   0.000078  -0.000132
   60  H  9  S    0.003008   0.005354   0.006084  -0.001393  -0.001501
   61  H 10  S   -0.001734   0.001899  -0.001993  -0.000078  -0.000132
   62  H 10  S   -0.003008  -0.005354   0.006084   0.001393  -0.001501
   63  C 11  S   -0.025254   0.005220   0.041841   0.022878   0.023384
   64  C 11  S   -0.002307   0.000447   0.003185  -0.000915  -0.000862
   65  C 11  X   -0.000148   0.000160  -0.000732   0.002050   0.001928
   66  C 11  Y    0.000122   0.000509  -0.000021   0.001806   0.001767
   67  C 11  Z    0.000000   0.000000  -0.000000   0.000000   0.000000
   68  C 11  S   -0.009426   0.003626   0.003749   0.020205   0.018922
   69  C 11  X   -0.005377   0.000798   0.011087  -0.009625  -0.009067
   70  C 11  Y    0.001189  -0.001134   0.002443  -0.008306  -0.007013
   71  C 11  Z    0.000000   0.000000  -0.000000   0.000000   0.000000
   72  C 12  S    0.025254  -0.005220   0.041841  -0.022878   0.023384
   73  C 12  S    0.002307  -0.000447   0.003185   0.000915  -0.000862
   74  C 12  X   -0.000148   0.000160   0.000732   0.002050  -0.001928
   75  C 12  Y    0.000122   0.000509   0.000021   0.001806  -0.001767
   76  C 12  Z    0.000000   0.000000  -0.000000   0.000000   0.000000
   77  C 12  S    0.009426  -0.003626   0.003749  -0.020205   0.018922
   78  C 12  X   -0.005377   0.000798  -0.011087  -0.009625   0.009067
   79  C 12  Y    0.001189  -0.001134  -0.002443  -0.008306   0.007013
   80  C 12  Z    0.000000   0.000000  -0.000000   0.000000   0.000000
   81  H 13  S    0.000170   0.000038  -0.000699  -0.000743  -0.000833
   82  H 13  S   -0.000063   0.000660   0.000757   0.001009   0.000694
   83  H 14  S   -0.000170  -0.000038  -0.000699   0.000743  -0.000833
   84  H 14  S    0.000063  -0.000660   0.000757  -0.001009   0.000694
   85  C 15  S    0.002840  -0.000130  -0.007938   0.696452   0.696386
   86  C 15  S    0.000627   0.000080  -0.001636   0.075419   0.075346
   87  C 15  X    0.000146  -0.000068  -0.000277   0.000101   0.000095
   88  C 15  Y    0.000163   0.000060  -0.000053   0.000085   0.000121
   89  C 15  Z    0.000000   0.000000  -0.000000   0.000000   0.000000
   90  C 15  S   -0.001150  -0.000911   0.007430  -0.057241  -0.056080
   91  C 15  X    0.000121  -0.001003   0.002064  -0.005077  -0.004365
   92  C 15  Y   -0.000636  -0.000657   0.003207  -0.004719  -0.004374
   93  C 15  Z    0.000000   0.000000  -0.000000   0.000000   0.000000
   94  C 16  S   -0.002840   0.000130  -0.007938  -0.696452   0.696386
   95  C 16  S   -0.000627  -0.000080  -0.001636  -0.075419   0.075346
   96  C 16  X    0.000146  -0.000068   0.000277   0.000101  -0.000095
   97  C 16  Y    0.000163   0.000060   0.000053   0.000085  -0.000121
   98  C 16  Z    0.000000   0.000000  -0.000000   0.000000   0.000000
   99  C 16  S    0.001150   0.000911   0.007430   0.057241  -0.056080
  100  C 16  X    0.000121  -0.001003  -0.002064  -0.005077   0.004365
  101  C 16  Y   -0.000636  -0.000657  -0.003207  -0.004719   0.004374
  102  C 16  Z    0.000000   0.000000  -0.000000   0.000000   0.000000
  103  H 17  S   -0.000137   0.000177   0.000011  -0.001449  -0.001539
  104  H 17  S    0.000366  -0.000904  -0.000003   0.009990   0.010143
  105  H 18  S    0.000137  -0.000177   0.000011   0.001449  -0.001539
  106  H 18  S   -0.000366   0.000904  -0.000003  -0.009990   0.010143
  107  H 19  S    0.000123  -0.000059  -0.000382  -0.001310  -0.001313
  108  H 19  S   -0.000016  -0.000150   0.000228   0.009842   0.010007
  109  H 20  S   -0.000123   0.000059  -0.000382   0.001310  -0.001313
  110  H 20  S    0.000016   0.000150   0.000228  -0.009842   0.010007

                     11         12         13         14         15
                   -0.8695    -0.8064    -0.7716    -0.7516    -0.7213
                     AG         BU         AG         BU         BU  
    1  C  1  S   -0.101614   0.098675  -0.007907  -0.013310  -0.093375
    2  C  1  S    0.110349  -0.105986   0.007743   0.014334   0.099888
    3  C  1  X   -0.045914  -0.021837   0.077746  -0.019472  -0.050633
    4  C  1  Y    0.007516   0.000015  -0.004921  -0.102454   0.014274
    5  C  1  Z    0.000000  -0.000000   0.000000   0.000000   0.000000
    6  C  1  S    0.190722  -0.198786   0.018534   0.028690   0.231419
    7  C  1  X   -0.001759  -0.013976   0.006292  -0.001466   0.004981
    8  C  1  Y   -0.010703   0.011530  -0.014482  -0.013954  -0.000201
    9  C  1  Z    0.000000  -0.000000   0.000000   0.000000   0.000000
   10  C  2  S   -0.101614  -0.098675  -0.007907   0.013310   0.093375
   11  C  2  S    0.110349   0.105986   0.007743  -0.014334  -0.099888
   12  C  2  X    0.045914  -0.021837  -0.077746  -0.019472  -0.050633
   13  C  2  Y   -0.007516   0.000015   0.004921  -0.102454   0.014274
   14  C  2  Z    0.000000  -0.000000   0.000000   0.000000   0.000000
   15  C  2  S    0.190722   0.198786   0.018534  -0.028690  -0.231419
   16  C  2  X    0.001759  -0.013976  -0.006292  -0.001466   0.004981
   17  C  2  Y    0.010703   0.011530   0.014482  -0.013954  -0.000201
   18  C  2  Z    0.000000  -0.000000   0.000000   0.000000   0.000000
   19  C  3  S   -0.092734   0.037358   0.039537  -0.125062  -0.036766
   20  C  3  S    0.102510  -0.039425  -0.040890   0.133329   0.038016
   21  C  3  X   -0.015159  -0.049945   0.032219  -0.047586   0.072979
   22  C  3  Y    0.054285  -0.023783  -0.016177   0.005188   0.035015
   23  C  3  Z    0.000000  -0.000000   0.000000   0.000000   0.000000
   24  C  3  S    0.159956  -0.090381  -0.094625   0.288566   0.107868
   25  C  3  X   -0.009164   0.014363  -0.001717  -0.004066   0.002098
   26  C  3  Y    0.010669  -0.012663  -0.017369   0.004433   0.012886
   27  C  3  Z    0.000000  -0.000000   0.000000   0.000000   0.000000
   28  C  4  S   -0.092734  -0.037358   0.039537   0.125062   0.036766
   29  C  4  S    0.102510   0.039425  -0.040890  -0.133329  -0.038016
   30  C  4  X    0.015159  -0.049945  -0.032219  -0.047586   0.072979
   31  C  4  Y   -0.054285  -0.023783   0.016177   0.005188   0.035015
   32  C  4  Z    0.000000  -0.000000   0.000000   0.000000   0.000000
   33  C  4  S    0.159956   0.090381  -0.094625  -0.288566  -0.107868
   34  C  4  X    0.009164   0.014363   0.001717  -0.004066   0.002098
   35  C  4  Y   -0.010669  -0.012663   0.017369   0.004433   0.012886
   36  C  4  Z    0.000000  -0.000000   0.000000   0.000000   0.000000
   37  C  5  S   -0.092579  -0.041981   0.034606  -0.111897   0.069767
   38  C  5  S    0.101280   0.043421  -0.036974   0.119404  -0.073927
   39  C  5  X    0.031833  -0.038687  -0.041166   0.058876   0.033318
   40  C  5  Y    0.046702   0.038525  -0.003977  -0.022518  -0.047788
   41  C  5  Z    0.000000  -0.000000   0.000000   0.000000   0.000000
   42  C  5  S    0.172117   0.113622  -0.074377   0.257171  -0.182413
   43  C  5  X    0.008876   0.011672  -0.021125   0.007401  -0.012211
   44  C  5  Y    0.016374   0.012471   0.002754  -0.001485  -0.008723
   45  C  5  Z    0.000000  -0.000000   0.000000   0.000000   0.000000
   46  C  6  S   -0.092579   0.041981   0.034606   0.111897  -0.069767
   47  C  6  S    0.101280  -0.043421  -0.036974  -0.119404   0.073927
   48  C  6  X   -0.031833  -0.038687   0.041166   0.058876   0.033318
   49  C  6  Y   -0.046702   0.038525   0.003977  -0.022518  -0.047788
   50  C  6  Z    0.000000  -0.000000   0.000000   0.000000   0.000000
   51  C  6  S    0.172117  -0.113622  -0.074377  -0.257171   0.182413
   52  C  6  X   -0.008876   0.011672   0.021125   0.007401  -0.012211
   53  C  6  Y   -0.016374   0.012471  -0.002754  -0.001485  -0.008723
   54  C  6  Z    0.000000  -0.000000   0.000000   0.000000   0.000000
   55  H  7  S    0.031934  -0.019720  -0.013038   0.065919   0.019525
   56  H  7  S   -0.001176  -0.009984  -0.001069   0.012080   0.005025
   57  H  8  S    0.031934   0.019720  -0.013038  -0.065919  -0.019525
   58  H  8  S   -0.001176   0.009984  -0.001069  -0.012080  -0.005025
   59  H  9  S    0.032004   0.021795  -0.009044   0.059548  -0.035853
   60  H  9  S   -0.000748   0.010339   0.004625   0.010232  -0.004014
   61  H 10  S    0.032004  -0.021795  -0.009044  -0.059548   0.035853
   62  H 10  S   -0.000748  -0.010339   0.004625  -0.010232   0.004014
   63  C 11  S   -0.040899  -0.105732  -0.115414  -0.000744  -0.054541
   64  C 11  S    0.045403   0.114269   0.124169   0.001018   0.058706
   65  C 11  X    0.020637   0.001537  -0.050143  -0.017127  -0.104574
   66  C 11  Y   -0.011424  -0.035269  -0.047096  -0.021773  -0.037647
   67  C 11  Z    0.000000  -0.000000   0.000000   0.000000   0.000000
   68  C 11  S    0.070048   0.211301   0.256235  -0.002400   0.137119
   69  C 11  X   -0.007866   0.002253  -0.001078  -0.003458  -0.015688
   70  C 11  Y   -0.004861  -0.007172  -0.013959  -0.004539  -0.010758
   71  C 11  Z    0.000000  -0.000000   0.000000   0.000000   0.000000
   72  C 12  S   -0.040899   0.105732  -0.115414   0.000744   0.054541
   73  C 12  S    0.045403  -0.114269   0.124169  -0.001018  -0.058706
   74  C 12  X   -0.020637   0.001537   0.050143  -0.017127  -0.104574
   75  C 12  Y    0.011424  -0.035269   0.047096  -0.021773  -0.037647
   76  C 12  Z    0.000000  -0.000000   0.000000   0.000000   0.000000
   77  C 12  S    0.070048  -0.211301   0.256235   0.002400  -0.137119
   78  C 12  X    0.007866   0.002253   0.001078  -0.003458  -0.015688
   79  C 12  Y    0.004861  -0.007172   0.013959  -0.004539  -0.010758
   80  C 12  Z    0.000000  -0.000000   0.000000   0.000000   0.000000
   81  H 13  S    0.017226   0.046920   0.053635  -0.006483   0.027445
   82  H 13  S    0.000147   0.003619   0.006766  -0.006529   0.004135
   83  H 14  S    0.017226  -0.046920   0.053635   0.006483  -0.027445
   84  H 14  S    0.000147  -0.003619   0.006766   0.006529  -0.004135
   85  C 15  S   -0.019499  -0.074325  -0.109375  -0.014378  -0.101197
   86  C 15  S    0.022463   0.081337   0.118513   0.014662   0.108539
   87  C 15  X    0.017082   0.047919   0.055275   0.006483   0.027268
   88  C 15  Y    0.009117   0.034671   0.048976   0.001102   0.039559
   89  C 15  Z    0.000000  -0.000000   0.000000   0.000000   0.000000
   90  C 15  S    0.026943   0.147660   0.233049   0.035186   0.239800
   91  C 15  X   -0.001893   0.003590   0.002356   0.006832  -0.002829
   92  C 15  Y   -0.002182   0.005233   0.009762   0.001322   0.010844
   93  C 15  Z    0.000000  -0.000000   0.000000   0.000000   0.000000
   94  C 16  S   -0.019499   0.074325  -0.109375   0.014378   0.101197
   95  C 16  S    0.022463  -0.081337   0.118513  -0.014662  -0.108539
   96  C 16  X   -0.017082   0.047919  -0.055275   0.006483   0.027268
   97  C 16  Y   -0.009117   0.034671  -0.048976   0.001102   0.039559
   98  C 16  Z    0.000000  -0.000000   0.000000   0.000000   0.000000
   99  C 16  S    0.026943  -0.147660   0.233049  -0.035186  -0.239800
  100  C 16  X    0.001893   0.003590  -0.002356   0.006832  -0.002829
  101  C 16  Y    0.002182   0.005233  -0.009762   0.001322   0.010844
  102  C 16  Z    0.000000  -0.000000   0.000000   0.000000   0.000000
  103  H 17  S    0.008706   0.032912   0.049706   0.009178   0.049038
  104  H 17  S    0.002080   0.003626   0.003563   0.005427   0.003774
  105  H 18  S    0.008706  -0.032912   0.049706  -0.009178  -0.049038
  106  H 18  S    0.002080  -0.003626   0.003563  -0.005427  -0.003774
  107  H 19  S    0.006468   0.029199   0.048826   0.006275   0.055558
  108  H 19  S   -0.002914  -0.002836   0.000422   0.002513   0.007783
  109  H 20  S    0.006468  -0.029199   0.048826  -0.006275  -0.055558
  110  H 20  S   -0.002914   0.002836   0.000422  -0.002513  -0.007783

                     16         17         18         19         20
                   -0.6368    -0.6095    -0.5726    -0.5592    -0.5075
                     AG         AG         BU         AG         AG  
    1  C  1  S    0.068684   0.054854  -0.010546   0.040967   0.031372
    2  C  1  S   -0.072269  -0.057795   0.011947  -0.045521  -0.031737
    3  C  1  X   -0.052634  -0.050135  -0.110460   0.123185  -0.083981
    4  C  1  Y    0.107588  -0.150023   0.050289   0.014477   0.040577
    5  C  1  Z   -0.000000   0.000000  -0.000000   0.000000  -0.000000
    6  C  1  S   -0.200769  -0.171319   0.031840  -0.125914  -0.118874
    7  C  1  X   -0.011204  -0.011683  -0.032453   0.077772  -0.061787
    8  C  1  Y    0.034247  -0.045974   0.030945  -0.004188   0.017225
    9  C  1  Z   -0.000000   0.000000  -0.000000   0.000000  -0.000000
   10  C  2  S    0.068684   0.054854   0.010546   0.040967   0.031372
   11  C  2  S   -0.072269  -0.057795  -0.011947  -0.045521  -0.031737
   12  C  2  X    0.052634   0.050135  -0.110460  -0.123185   0.083981
   13  C  2  Y   -0.107588   0.150023   0.050289  -0.014477  -0.040577
   14  C  2  Z   -0.000000   0.000000  -0.000000   0.000000  -0.000000
   15  C  2  S   -0.200769  -0.171319  -0.031840  -0.125914  -0.118874
   16  C  2  X    0.011204   0.011683  -0.032453  -0.077772   0.061787
   17  C  2  Y   -0.034247   0.045974   0.030945   0.004188  -0.017225
   18  C  2  Z   -0.000000   0.000000  -0.000000   0.000000  -0.000000
   19  C  3  S    0.006843  -0.103246  -0.045084  -0.008504   0.015249
   20  C  3  S   -0.007238   0.106816   0.047326   0.007484  -0.012843
   21  C  3  X   -0.138796   0.016465  -0.006704  -0.063760  -0.104417
   22  C  3  Y   -0.026287  -0.053333   0.010916  -0.143918   0.085771
   23  C  3  Z   -0.000000   0.000000  -0.000000   0.000000  -0.000000
   24  C  3  S   -0.018285   0.327711   0.151196   0.031058  -0.072350
   25  C  3  X   -0.054044   0.007611  -0.016754  -0.012484  -0.046617
   26  C  3  Y   -0.008054  -0.007272   0.008186  -0.078539   0.056020
   27  C  3  Z   -0.000000   0.000000  -0.000000   0.000000  -0.000000
   28  C  4  S    0.006843  -0.103246   0.045084  -0.008504   0.015249
   29  C  4  S   -0.007238   0.106816  -0.047326   0.007484  -0.012843
   30  C  4  X    0.138796  -0.016465  -0.006704   0.063760   0.104417
   31  C  4  Y    0.026287   0.053333   0.010916   0.143918  -0.085771
   32  C  4  Z   -0.000000   0.000000  -0.000000   0.000000  -0.000000
   33  C  4  S   -0.018285   0.327711  -0.151196   0.031058  -0.072350
   34  C  4  X    0.054044  -0.007611  -0.016754   0.012484   0.046617
   35  C  4  Y    0.008054   0.007272   0.008186   0.078539  -0.056020
   36  C  4  Z   -0.000000   0.000000  -0.000000   0.000000  -0.000000
   37  C  5  S   -0.079974   0.049543   0.026151  -0.049403  -0.016458
   38  C  5  S    0.083763  -0.051343  -0.027157   0.048532   0.018712
   39  C  5  X    0.025853   0.137717   0.061307  -0.029189   0.092958
   40  C  5  Y   -0.045775  -0.080769  -0.039323  -0.151036   0.054792
   41  C  5  Z   -0.000000   0.000000  -0.000000   0.000000  -0.000000
   42  C  5  S    0.231113  -0.158495  -0.089476   0.184432   0.055634
   43  C  5  X    0.006146   0.044167   0.014388  -0.016794   0.059509
   44  C  5  Y   -0.001366  -0.036098  -0.015592  -0.074670   0.039070
   45  C  5  Z   -0.000000   0.000000  -0.000000   0.000000  -0.000000
   46  C  6  S   -0.079974   0.049543  -0.026151  -0.049403  -0.016458
   47  C  6  S    0.083763  -0.051343   0.027157   0.048532   0.018712
   48  C  6  X   -0.025853  -0.137717   0.061307   0.029189  -0.092958
   49  C  6  Y    0.045775   0.080769  -0.039323   0.151036  -0.054792
   50  C  6  Z   -0.000000   0.000000  -0.000000   0.000000  -0.000000
   51  C  6  S    0.231113  -0.158495   0.089476   0.184432   0.055634
   52  C  6  X   -0.006146  -0.044167   0.014388   0.016794  -0.059509
   53  C  6  Y    0.001366   0.036098  -0.015592   0.074670  -0.039070
   54  C  6  Z   -0.000000   0.000000  -0.000000   0.000000  -0.000000
   55  H  7  S   -0.015945   0.100770   0.026996   0.064023  -0.075324
   56  H  7  S   -0.009295   0.048711   0.006334   0.039790  -0.044808
   57  H  8  S   -0.015945   0.100770  -0.026996   0.064023  -0.075324
   58  H  8  S   -0.009295   0.048711  -0.006334   0.039790  -0.044808
   59  H  9  S    0.066435  -0.046202  -0.028113   0.105343  -0.046735
   60  H  9  S    0.033332  -0.020288  -0.020610   0.055237  -0.040030
   61  H 10  S    0.066435  -0.046202   0.028113   0.105343  -0.046735
   62  H 10  S    0.033332  -0.020288   0.020610   0.055237  -0.040030
   63  C 11  S    0.042809   0.004356  -0.089970  -0.051306  -0.046882
   64  C 11  S   -0.043896  -0.003628   0.093010   0.055145   0.047066
   65  C 11  X   -0.106854  -0.066576   0.043477   0.025175  -0.135828
   66  C 11  Y   -0.062079   0.033000   0.086288   0.039746   0.078872
   67  C 11  Z   -0.000000   0.000000  -0.000000   0.000000  -0.000000
   68  C 11  S   -0.133400  -0.019458   0.300187   0.157926   0.177385
   69  C 11  X   -0.040156  -0.014959   0.018553   0.001794  -0.068368
   70  C 11  Y   -0.025920   0.032663   0.036484   0.016741   0.042723
   71  C 11  Z   -0.000000   0.000000  -0.000000   0.000000  -0.000000
   72  C 12  S    0.042809   0.004356   0.089970  -0.051306  -0.046882
   73  C 12  S   -0.043896  -0.003628  -0.093010   0.055145   0.047066
   74  C 12  X    0.106854   0.066576   0.043477  -0.025175   0.135828
   75  C 12  Y    0.062079  -0.033000   0.086288  -0.039746  -0.078872
   76  C 12  Z   -0.000000   0.000000  -0.000000   0.000000  -0.000000
   77  C 12  S   -0.133400  -0.019458  -0.300187   0.157926   0.177385
   78  C 12  X    0.040156   0.014959   0.018553  -0.001794   0.068368
   79  C 12  Y    0.025920  -0.032663   0.036484  -0.016741  -0.042723
   80  C 12  Z   -0.000000   0.000000  -0.000000   0.000000  -0.000000
   81  H 13  S   -0.046167   0.020059   0.104979   0.059173   0.096074
   82  H 13  S   -0.019145   0.012679   0.050049   0.031976   0.057111
   83  H 14  S   -0.046167   0.020059  -0.104979   0.059173   0.096074
   84  H 14  S   -0.019145   0.012679  -0.050049   0.031976   0.057111
   85  C 15  S   -0.074234  -0.036884   0.078379   0.051965   0.025651
   86  C 15  S    0.077331   0.038435  -0.079450  -0.052892  -0.023578
   87  C 15  X   -0.017010  -0.029745   0.063241   0.054860   0.019922
   88  C 15  Y   -0.012231   0.016278   0.084306   0.044685   0.162591
   89  C 15  Z   -0.000000   0.000000  -0.000000   0.000000  -0.000000
   90  C 15  S    0.208839   0.121033  -0.261403  -0.177320  -0.112528
   91  C 15  X   -0.001913  -0.016131   0.015634   0.027291  -0.007225
   92  C 15  Y   -0.006165   0.011676   0.038484   0.018818   0.090228
   93  C 15  Z   -0.000000   0.000000  -0.000000   0.000000  -0.000000
   94  C 16  S   -0.074234  -0.036884  -0.078379   0.051965   0.025651
   95  C 16  S    0.077331   0.038435   0.079450  -0.052892  -0.023578
   96  C 16  X    0.017010   0.029745   0.063241  -0.054860  -0.019922
   97  C 16  Y    0.012231  -0.016278   0.084306  -0.044685  -0.162591
   98  C 16  Z   -0.000000   0.000000  -0.000000   0.000000  -0.000000
   99  C 16  S    0.208839   0.121033   0.261403  -0.177320  -0.112528
  100  C 16  X    0.001913   0.016131   0.015634  -0.027291   0.007225
  101  C 16  Y    0.006165  -0.011676   0.038484  -0.018818  -0.090228
  102  C 16  Z   -0.000000   0.000000  -0.000000   0.000000  -0.000000
  103  H 17  S    0.057733   0.015622  -0.097755  -0.055668  -0.111434
  104  H 17  S    0.023007  -0.001463  -0.051875  -0.022748  -0.077413
  105  H 18  S    0.057733   0.015622   0.097755  -0.055668  -0.111434
  106  H 18  S    0.023007  -0.001463   0.051875  -0.022748  -0.077413
  107  H 19  S    0.056531   0.041134  -0.078175  -0.060577  -0.008188
  108  H 19  S    0.022763   0.015736  -0.041708  -0.030309  -0.006914
  109  H 20  S    0.056531   0.041134   0.078175  -0.060577  -0.008188
  110  H 20  S    0.022763   0.015736   0.041708  -0.030309  -0.006914

                     21         22         23         24         25
                   -0.4919    -0.4569    -0.4487    -0.4451    -0.4250
                     BU         BU         BU         AG         BU  
    1  C  1  S    0.011951   0.030841  -0.059544   0.016199  -0.001946
    2  C  1  S   -0.012653  -0.032139   0.061065  -0.014915   0.001822
    3  C  1  X   -0.104553  -0.087822  -0.095115   0.000304  -0.072604
    4  C  1  Y   -0.131708   0.154556   0.062174  -0.000013  -0.082064
    5  C  1  Z   -0.000000   0.000000   0.000000   0.000000  -0.000000
    6  C  1  S   -0.049031  -0.121762   0.254260  -0.071885   0.014129
    7  C  1  X   -0.045632  -0.047136  -0.065317  -0.016136  -0.036272
    8  C  1  Y   -0.081849   0.083886   0.027495   0.023098  -0.003718
    9  C  1  Z   -0.000000   0.000000   0.000000   0.000000  -0.000000
   10  C  2  S   -0.011951  -0.030841   0.059544   0.016199   0.001946
   11  C  2  S    0.012653   0.032139  -0.061065  -0.014915  -0.001822
   12  C  2  X   -0.104553  -0.087822  -0.095115  -0.000304  -0.072604
   13  C  2  Y   -0.131708   0.154556   0.062174   0.000013  -0.082064
   14  C  2  Z   -0.000000   0.000000   0.000000   0.000000  -0.000000
   15  C  2  S    0.049031   0.121762  -0.254260  -0.071885  -0.014129
   16  C  2  X   -0.045632  -0.047136  -0.065317   0.016136  -0.036272
   17  C  2  Y   -0.081849   0.083886   0.027495  -0.023098  -0.003718
   18  C  2  Z   -0.000000   0.000000   0.000000   0.000000  -0.000000
   19  C  3  S   -0.014035  -0.034397   0.033551  -0.024189  -0.025832
   20  C  3  S    0.014050   0.034108  -0.032291   0.024853   0.030600
   21  C  3  X    0.166243  -0.074112  -0.030939  -0.045143  -0.085010
   22  C  3  Y    0.026660  -0.103374   0.124928  -0.001113   0.229193
   23  C  3  Z   -0.000000   0.000000   0.000000   0.000000  -0.000000
   24  C  3  S    0.057561   0.142289  -0.143712   0.103777   0.094750
   25  C  3  X    0.082871  -0.044421  -0.052590  -0.030292  -0.044929
   26  C  3  Y    0.015553  -0.058625   0.060459   0.007977   0.158951
   27  C  3  Z   -0.000000   0.000000   0.000000   0.000000  -0.000000
   28  C  4  S    0.014035   0.034397  -0.033551  -0.024189   0.025832
   29  C  4  S   -0.014050  -0.034108   0.032291   0.024853  -0.030600
   30  C  4  X    0.166243  -0.074112  -0.030939   0.045143  -0.085010
   31  C  4  Y    0.026660  -0.103374   0.124928   0.001113   0.229193
   32  C  4  Z   -0.000000   0.000000   0.000000   0.000000  -0.000000
   33  C  4  S   -0.057561  -0.142289   0.143712   0.103777  -0.094750
   34  C  4  X    0.082871  -0.044421  -0.052590   0.030292  -0.044929
   35  C  4  Y    0.015553  -0.058625   0.060459  -0.007977   0.158951
   36  C  4  Z   -0.000000   0.000000   0.000000   0.000000  -0.000000
   37  C  5  S    0.030633   0.042484  -0.026342   0.020925  -0.015797
   38  C  5  S   -0.031422  -0.043721   0.023976  -0.017890   0.019537
   39  C  5  X   -0.114799   0.108081  -0.060672   0.089951   0.144931
   40  C  5  Y    0.078522  -0.071918  -0.193105   0.019629   0.141132
   41  C  5  Z   -0.000000   0.000000   0.000000   0.000000  -0.000000
   42  C  5  S   -0.114592  -0.166158   0.115087  -0.103398   0.055053
   43  C  5  X   -0.062863   0.053914  -0.062690   0.042541   0.070551
   44  C  5  Y    0.033905  -0.037136  -0.095409   0.010178   0.116872
   45  C  5  Z   -0.000000   0.000000   0.000000   0.000000  -0.000000
   46  C  6  S   -0.030633  -0.042484   0.026342   0.020925   0.015797
   47  C  6  S    0.031422   0.043721  -0.023976  -0.017890  -0.019537
   48  C  6  X   -0.114799   0.108081  -0.060672  -0.089951   0.144931
   49  C  6  Y    0.078522  -0.071918  -0.193105  -0.019629   0.141132
   50  C  6  Z   -0.000000   0.000000   0.000000   0.000000  -0.000000
   51  C  6  S    0.114592   0.166158  -0.115087  -0.103398  -0.055053
   52  C  6  X   -0.062863   0.053914  -0.062690  -0.042541   0.070551
   53  C  6  Y    0.033905  -0.037136  -0.095409  -0.010178   0.116872
   54  C  6  Z   -0.000000   0.000000   0.000000   0.000000  -0.000000
   55  H  7  S    0.035117   0.079257  -0.115993   0.010514  -0.137615
   56  H  7  S    0.027783   0.060341  -0.090250   0.000365  -0.126513
   57  H  8  S   -0.035117  -0.079257   0.115993   0.010514   0.137615
   58  H  8  S   -0.027783  -0.060341   0.090250   0.000365   0.126513
   59  H  9  S   -0.019529  -0.043402   0.151575  -0.061511  -0.117250
   60  H  9  S   -0.008201  -0.017108   0.124776  -0.044416  -0.103437
   61  H 10  S    0.019529   0.043402  -0.151575  -0.061511   0.117250
   62  H 10  S    0.008201   0.017108  -0.124776  -0.044416   0.103437
   63  C 11  S   -0.017421   0.005857  -0.006309  -0.022195   0.003144
   64  C 11  S    0.019853  -0.007453   0.006914   0.026803  -0.004342
   65  C 11  X    0.056750   0.175721   0.031911  -0.056102   0.063914
   66  C 11  Y   -0.149477  -0.004607  -0.000445  -0.198598   0.005247
   67  C 11  Z   -0.000000   0.000000   0.000000   0.000000  -0.000000
   68  C 11  S    0.058314  -0.014349   0.020275   0.069885  -0.004482
   69  C 11  X    0.031992   0.095028   0.038367  -0.005818   0.039310
   70  C 11  Y   -0.098649  -0.006918   0.000921  -0.119528  -0.005265
   71  C 11  Z   -0.000000   0.000000   0.000000   0.000000  -0.000000
   72  C 12  S    0.017421  -0.005857   0.006309  -0.022195  -0.003144
   73  C 12  S   -0.019853   0.007453  -0.006914   0.026803   0.004342
   74  C 12  X    0.056750   0.175721   0.031911   0.056102   0.063914
   75  C 12  Y   -0.149477  -0.004607  -0.000445   0.198598   0.005247
   76  C 12  Z   -0.000000   0.000000   0.000000   0.000000  -0.000000
   77  C 12  S   -0.058314   0.014349  -0.020275   0.069885   0.004482
   78  C 12  X    0.031992   0.095028   0.038367   0.005818   0.039310
   79  C 12  Y   -0.098649  -0.006918   0.000921   0.119528  -0.005265
   80  C 12  Z   -0.000000   0.000000   0.000000   0.000000  -0.000000
   81  H 13  S   -0.077179  -0.033847   0.007546  -0.093548  -0.001912
   82  H 13  S   -0.061069  -0.030722   0.013818  -0.083303   0.010071
   83  H 14  S    0.077179   0.033847  -0.007546  -0.093548   0.001912
   84  H 14  S    0.061069   0.030722  -0.013818  -0.083303  -0.010071
   85  C 15  S    0.015478  -0.010292   0.006711  -0.000449  -0.003407
   86  C 15  S   -0.013089   0.007709  -0.007605   0.006472   0.001929
   87  C 15  X    0.147332  -0.020504   0.060153   0.246008  -0.025449
   88  C 15  Y   -0.037004  -0.175075  -0.073960   0.018763  -0.061696
   89  C 15  Z   -0.000000   0.000000   0.000000   0.000000  -0.000000
   90  C 15  S   -0.073138   0.056967  -0.014510  -0.022421   0.020443
   91  C 15  X    0.080203  -0.007298   0.048693   0.140321  -0.018273
   92  C 15  Y   -0.034459  -0.109755  -0.039987  -0.004320  -0.041731
   93  C 15  Z   -0.000000   0.000000   0.000000   0.000000  -0.000000
   94  C 16  S   -0.015478   0.010292  -0.006711  -0.000449   0.003407
   95  C 16  S    0.013089  -0.007709   0.007605   0.006472  -0.001929
   96  C 16  X    0.147332  -0.020504   0.060153  -0.246008  -0.025449
   97  C 16  Y   -0.037004  -0.175075  -0.073960  -0.018763  -0.061696
   98  C 16  Z   -0.000000   0.000000   0.000000   0.000000  -0.000000
   99  C 16  S    0.073138  -0.056967   0.014510  -0.022421  -0.020443
  100  C 16  X    0.080203  -0.007298   0.048693  -0.140321  -0.018273
  101  C 16  Y   -0.034459  -0.109755  -0.039987   0.004320  -0.041731
  102  C 16  Z   -0.000000   0.000000   0.000000   0.000000  -0.000000
  103  H 17  S    0.019991   0.110652   0.053551   0.008455   0.034217
  104  H 17  S    0.012326   0.079456   0.058117  -0.007109   0.019201
  105  H 18  S   -0.019991  -0.110652  -0.053551   0.008455  -0.034217
  106  H 18  S   -0.012326  -0.079456  -0.058117  -0.007109  -0.019201
  107  H 19  S   -0.099300  -0.008155  -0.056438  -0.144700   0.007966
  108  H 19  S   -0.072196  -0.006475  -0.042812  -0.125965   0.006145
  109  H 20  S    0.099300   0.008155   0.056438  -0.144700  -0.007966
  110  H 20  S    0.072196   0.006475   0.042812  -0.125965  -0.006145

                     26         27         28         29         30
                   -0.4100    -0.3913    -0.3835    -0.3524    -0.3443
                     BU         AG         AU         BU         AG  
    1  C  1  S   -0.004572  -0.023705  -0.000000  -0.013420   0.005180
    2  C  1  S    0.003585   0.022858  -0.000000   0.011583  -0.004102
    3  C  1  X    0.111123  -0.034853  -0.000000   0.158636  -0.169661
    4  C  1  Y    0.106236   0.063981  -0.000000  -0.054885  -0.138034
    5  C  1  Z    0.000000  -0.000000   0.196669   0.000000   0.000000
    6  C  1  S    0.019313   0.112103  -0.000000   0.074502  -0.025826
    7  C  1  X    0.087451  -0.028677  -0.000000   0.113478  -0.129414
    8  C  1  Y    0.058527   0.048407  -0.000000  -0.040432  -0.086838
    9  C  1  Z    0.000000  -0.000000   0.166097   0.000000   0.000000
   10  C  2  S    0.004572  -0.023705  -0.000000   0.013420   0.005180
   11  C  2  S   -0.003585   0.022858  -0.000000  -0.011583  -0.004102
   12  C  2  X    0.111123   0.034853  -0.000000   0.158636   0.169661
   13  C  2  Y    0.106236  -0.063981  -0.000000  -0.054885   0.138034
   14  C  2  Z    0.000000  -0.000000   0.196669   0.000000   0.000000
   15  C  2  S   -0.019313   0.112103  -0.000000  -0.074502  -0.025826
   16  C  2  X    0.087451   0.028677  -0.000000   0.113478   0.129414
   17  C  2  Y    0.058527  -0.048407  -0.000000  -0.040432   0.086838
   18  C  2  Z    0.000000  -0.000000   0.166097   0.000000   0.000000
   19  C  3  S    0.013593  -0.006297  -0.000000   0.005020  -0.002144
   20  C  3  S   -0.013716   0.003317  -0.000000  -0.006205   0.002450
   21  C  3  X   -0.168846   0.130443  -0.000000   0.023064   0.175133
   22  C  3  Y   -0.035282  -0.089434  -0.000000  -0.042477   0.129783
   23  C  3  Z    0.000000  -0.000000   0.173490   0.000000   0.000000
   24  C  3  S   -0.051548   0.034836  -0.000000  -0.012897   0.011485
   25  C  3  X   -0.087168   0.077377  -0.000000   0.010405   0.100976
   26  C  3  Y   -0.008231  -0.075979  -0.000000  -0.036434   0.096451
   27  C  3  Z    0.000000  -0.000000   0.146893   0.000000   0.000000
   28  C  4  S   -0.013593  -0.006297  -0.000000  -0.005020  -0.002144
   29  C  4  S    0.013716   0.003317  -0.000000   0.006205   0.002450
   30  C  4  X   -0.168846  -0.130443  -0.000000   0.023064  -0.175133
   31  C  4  Y   -0.035282   0.089434  -0.000000  -0.042477  -0.129783
   32  C  4  Z    0.000000  -0.000000   0.173490   0.000000   0.000000
   33  C  4  S    0.051548   0.034836  -0.000000   0.012897   0.011485
   34  C  4  X   -0.087168  -0.077377  -0.000000   0.010405  -0.100976
   35  C  4  Y   -0.008231   0.075979  -0.000000  -0.036434  -0.096451
   36  C  4  Z    0.000000  -0.000000   0.146893   0.000000   0.000000
   37  C  5  S   -0.007491   0.006482  -0.000000  -0.010862   0.005109
   38  C  5  S    0.009617  -0.006721  -0.000000   0.012368  -0.009319
   39  C  5  X    0.151732  -0.131659  -0.000000  -0.004374  -0.140571
   40  C  5  Y   -0.029763   0.053609  -0.000000   0.086873  -0.104196
   41  C  5  Z    0.000000  -0.000000   0.173035   0.000000   0.000000
   42  C  5  S    0.019728  -0.033001  -0.000000   0.028874  -0.012656
   43  C  5  X    0.093756  -0.078911  -0.000000  -0.001103  -0.120631
   44  C  5  Y   -0.021116   0.009021  -0.000000   0.070234  -0.089464
   45  C  5  Z    0.000000  -0.000000   0.145651   0.000000   0.000000
   46  C  6  S    0.007491   0.006482  -0.000000   0.010862   0.005109
   47  C  6  S   -0.009617  -0.006721  -0.000000  -0.012368  -0.009319
   48  C  6  X    0.151732   0.131659  -0.000000  -0.004374   0.140571
   49  C  6  Y   -0.029763  -0.053609  -0.000000   0.086873   0.104196
   50  C  6  Z    0.000000  -0.000000   0.173035   0.000000   0.000000
   51  C  6  S   -0.019728  -0.033001  -0.000000  -0.028874  -0.012656
   52  C  6  X    0.093756   0.078911  -0.000000  -0.001103   0.120631
   53  C  6  Y   -0.021116  -0.009021  -0.000000   0.070234   0.089464
   54  C  6  Z    0.000000  -0.000000   0.145651   0.000000   0.000000
   55  H  7  S   -0.027819   0.096540  -0.000000   0.023497  -0.047182
   56  H  7  S   -0.014422   0.078911  -0.000000   0.010448  -0.043630
   57  H  8  S    0.027819   0.096540  -0.000000  -0.023497  -0.047182
   58  H  8  S    0.014422   0.078911  -0.000000  -0.010448  -0.043630
   59  H  9  S   -0.038565   0.011932  -0.000000  -0.025770   0.141823
   60  H  9  S   -0.035443  -0.005296  -0.000000  -0.007969   0.149749
   61  H 10  S    0.038565   0.011932  -0.000000   0.025770   0.141823
   62  H 10  S    0.035443  -0.005296  -0.000000   0.007969   0.149749
   63  C 11  S   -0.001560   0.022263  -0.000000  -0.001323   0.013847
   64  C 11  S    0.006167  -0.018013  -0.000000  -0.002607  -0.013114
   65  C 11  X   -0.131749  -0.093071  -0.000000  -0.105594  -0.148477
   66  C 11  Y   -0.165103  -0.126122  -0.000000   0.148860   0.023909
   67  C 11  Z    0.000000  -0.000000   0.096667   0.000000   0.000000
   68  C 11  S   -0.013665  -0.111712  -0.000000   0.027114  -0.066357
   69  C 11  X   -0.053455  -0.052772  -0.000000  -0.067782  -0.084561
   70  C 11  Y   -0.098964  -0.082166  -0.000000   0.121514   0.031426
   71  C 11  Z    0.000000  -0.000000   0.078951   0.000000   0.000000
   72  C 12  S    0.001560   0.022263  -0.000000   0.001323   0.013847
   73  C 12  S   -0.006167  -0.018013  -0.000000   0.002607  -0.013114
   74  C 12  X   -0.131749   0.093071  -0.000000  -0.105594   0.148477
   75  C 12  Y   -0.165103   0.126122  -0.000000   0.148860  -0.023909
   76  C 12  Z    0.000000  -0.000000   0.096667   0.000000   0.000000
   77  C 12  S    0.013665  -0.111712  -0.000000  -0.027114  -0.066357
   78  C 12  X   -0.053455   0.052772  -0.000000  -0.067782   0.084561
   79  C 12  Y   -0.098964   0.082166  -0.000000   0.121514  -0.031426
   80  C 12  Z    0.000000  -0.000000   0.078951   0.000000   0.000000
   81  H 13  S   -0.087415  -0.094982  -0.000000   0.137618   0.028344
   82  H 13  S   -0.079275  -0.078455  -0.000000   0.137278   0.028025
   83  H 14  S    0.087415  -0.094982  -0.000000  -0.137618   0.028344
   84  H 14  S    0.079275  -0.078455  -0.000000  -0.137278   0.028025
   85  C 15  S   -0.015323  -0.009038  -0.000000   0.004018  -0.005645
   86  C 15  S    0.021700   0.012758  -0.000000  -0.006066   0.007120
   87  C 15  X    0.194687  -0.026157  -0.000000   0.101894   0.096750
   88  C 15  Y    0.080271   0.203000  -0.000000  -0.150987   0.011323
   89  C 15  Z    0.000000  -0.000000   0.051045   0.000000   0.000000
   90  C 15  S    0.036374   0.022100  -0.000000  -0.007553   0.019625
   91  C 15  X    0.115785  -0.027489  -0.000000   0.090325   0.084354
   92  C 15  Y    0.041752   0.142096  -0.000000  -0.115135   0.014115
   93  C 15  Z    0.000000  -0.000000   0.043975   0.000000   0.000000
   94  C 16  S    0.015323  -0.009038  -0.000000  -0.004018  -0.005645
   95  C 16  S   -0.021700   0.012758  -0.000000   0.006066   0.007120
   96  C 16  X    0.194687   0.026157  -0.000000   0.101894  -0.096750
   97  C 16  Y    0.080271  -0.203000  -0.000000  -0.150987  -0.011323
   98  C 16  Z    0.000000  -0.000000   0.051045   0.000000   0.000000
   99  C 16  S   -0.036374   0.022100  -0.000000   0.007553   0.019625
  100  C 16  X    0.115785   0.027489  -0.000000   0.090325  -0.084354
  101  C 16  Y    0.041752  -0.142096  -0.000000  -0.115135  -0.014115
[...]
    3   7  1.083  0.929        4   6  1.382  1.432        4   8  1.083  0.929
    5   6  2.767  0.098        5   9  1.081  0.923        6  10  1.081  0.923
   11  13  1.084  0.923       11  15  1.314  1.853       12  14  1.084  0.923
   12  16  1.314  1.853       15  17  1.080  0.925       15  19  1.081  0.927
   16  18  1.080  0.925       16  20  1.081  0.927

                       TOTAL       BONDED        FREE
      ATOM            VALENCE     VALENCE     VALENCE
    1 C                 3.746       3.746      -0.000
    2 C                 3.746       3.746      -0.000
    3 C                 3.764       3.764       0.000
    4 C                 3.764       3.764       0.000
    5 C                 3.776       3.776       0.000
    6 C                 3.776       3.776       0.000
    7 H                 0.935       0.935       0.000
    8 H                 0.935       0.935       0.000
    9 H                 0.937       0.937       0.000
   10 H                 0.937       0.937       0.000
   11 C                 3.787       3.787      -0.000
   12 C                 3.787       3.787      -0.000
   13 H                 0.930       0.930       0.000
   14 H                 0.930       0.930       0.000
   15 C                 3.783       3.783      -0.000
   16 C                 3.783       3.783      -0.000
   17 H                 0.933       0.933       0.000
   18 H                 0.933       0.933       0.000
   19 H                 0.928       0.928       0.000
   20 H                 0.928       0.928       0.000

          ---------------------
          ELECTROSTATIC MOMENTS
          ---------------------

 POINT   1           X           Y           Z (BOHR)    CHARGE
                -0.000000    0.000000    0.000000        0.00 (A.U.)
         DX          DY          DZ         /D/  (DEBYE)
     0.000000   -0.000000    0.000000    0.000000
 ...... END OF PROPERTY EVALUATION ......
 STEP CPU TIME =     0.06 TOTAL CPU TIME =       32.5 (    0.5 MIN)
 TOTAL WALL CLOCK TIME=       28.0 SECONDS, CPU UTILIZATION IS 116.42%

 -----------------------------------------------------------------------
                    TDDFT CALCULATION FOR SCFTYP=RHF 
                          CODED BY MAHITO CHIBA
 NATIONAL INSTITUTE OF ADVANCED INDUSTRIAL SCIENCE AND TECHNOLOGY, JAPAN
 -----------------------------------------------------------------------

 REGENERATING AO INTEGRAL LIST IN C1 SYMMETRY FOR TDDFT ITERATIONS...

          --------------------
          2 ELECTRON INTEGRALS
          --------------------

 THE -PK- OPTION IS OFF, THE INTEGRALS ARE NOT IN SUPERMATRIX FORM.
 STORING   15000 INTEGRALS/RECORD ON DISK, USING 12 BYTES/INTEGRAL.
 TWO ELECTRON INTEGRAL EVALUATION REQUIRES   90631 WORDS OF MEMORY.
 SCHWARZ INEQUALITY OVERHEAD:      5711 INTEGRALS, T=        0.00
 II,JST,KST,LST =  1  1  1  1 NREC =         1 INTLOC =    1
 II,JST,KST,LST =  2  1  1  1 NREC =         1 INTLOC =    2
 II,JST,KST,LST =  3  1  1  1 NREC =         1 INTLOC =   34
 II,JST,KST,LST =  4  1  1  1 NREC =         1 INTLOC =  214
 II,JST,KST,LST =  5  1  1  1 NREC =         1 INTLOC =  379
 II,JST,KST,LST =  6  1  1  1 NREC =         1 INTLOC = 2222
 II,JST,KST,LST =  7  1  1  1 NREC =         1 INTLOC = 6624
 II,JST,KST,LST =  8  1  1  1 NREC =         1 INTLOC = 8210
 II,JST,KST,LST =  9  1  1  1 NREC =         2 INTLOC = 3498
 II,JST,KST,LST = 10  1  1  1 NREC =         3 INTLOC = 5853
 II,JST,KST,LST = 11  1  1  1 NREC =         3 INTLOC =10361
 II,JST,KST,LST = 12  1  1  1 NREC =         5 INTLOC = 8769
 II,JST,KST,LST = 13  1  1  1 NREC =         8 INTLOC = 6779
 II,JST,KST,LST = 14  1  1  1 NREC =         9 INTLOC = 3445
 II,JST,KST,LST = 15  1  1  1 NREC =        13 INTLOC = 6941
 II,JST,KST,LST = 16  1  1  1 NREC =        19 INTLOC = 3904
 II,JST,KST,LST = 17  1  1  1 NREC =        20 INTLOC = 9586
 II,JST,KST,LST = 18  1  1  1 NREC =        28 INTLOC = 4748
 II,JST,KST,LST = 19  1  1  1 NREC =        38 INTLOC = 7236
 II,JST,KST,LST = 20  1  1  1 NREC =        40 INTLOC =14335
 II,JST,KST,LST = 21  1  1  1 NREC =        44 INTLOC = 4162
 II,JST,KST,LST = 22  1  1  1 NREC =        46 INTLOC =14821
 II,JST,KST,LST = 23  1  1  1 NREC =        50 INTLOC =10298
 II,JST,KST,LST = 24  1  1  1 NREC =        53 INTLOC =11636
 II,JST,KST,LST = 25  1  1  1 NREC =        57 INTLOC =13685
 II,JST,KST,LST = 26  1  1  1 NREC =        61 INTLOC = 4161
 II,JST,KST,LST = 27  1  1  1 NREC =        65 INTLOC =12779
 II,JST,KST,LST = 28  1  1  1 NREC =        68 INTLOC = 4623
 II,JST,KST,LST = 29  1  1  1 NREC =        81 INTLOC =14986
 II,JST,KST,LST = 30  1  1  1 NREC =       104 INTLOC = 2026
 II,JST,KST,LST = 31  1  1  1 NREC =       107 INTLOC = 1901
 II,JST,KST,LST = 32  1  1  1 NREC =       124 INTLOC =  950
 II,JST,KST,LST = 33  1  1  1 NREC =       152 INTLOC = 8572
 II,JST,KST,LST = 34  1  1  1 NREC =       157 INTLOC =11148
 II,JST,KST,LST = 35  1  1  1 NREC =       166 INTLOC = 4314
 II,JST,KST,LST = 36  1  1  1 NREC =       171 INTLOC =10094
 II,JST,KST,LST = 37  1  1  1 NREC =       180 INTLOC = 9783
 II,JST,KST,LST = 38  1  1  1 NREC =       184 INTLOC = 1205
 II,JST,KST,LST = 39  1  1  1 NREC =       204 INTLOC =13253
 II,JST,KST,LST = 40  1  1  1 NREC =       242 INTLOC = 2510
 II,JST,KST,LST = 41  1  1  1 NREC =       246 INTLOC =  806
 II,JST,KST,LST = 42  1  1  1 NREC =       269 INTLOC = 9064
 II,JST,KST,LST = 43  1  1  1 NREC =       311 INTLOC =12618
 II,JST,KST,LST = 44  1  1  1 NREC =       319 INTLOC =11240
 II,JST,KST,LST = 45  1  1  1 NREC =       332 INTLOC =14071
 II,JST,KST,LST = 46  1  1  1 NREC =       341 INTLOC = 1457
 II,JST,KST,LST = 47  1  1  1 NREC =       354 INTLOC =10662
 II,JST,KST,LST = 48  1  1  1 NREC =       361 INTLOC = 1257
 II,JST,KST,LST = 49  1  1  1 NREC =       372 INTLOC =12008
 II,JST,KST,LST = 50  1  1  1 NREC =       379 INTLOC = 4936
 SCHWARZ INEQUALITY TEST SKIPPED      442149 INTEGRAL BLOCKS.
 TOTAL NUMBER OF NONZERO TWO-ELECTRON INTEGRALS =             5854882
        391 INTEGRAL RECORDS WERE STORED ON DISK FILE  8.
  ...... END OF TWO-ELECTRON INTEGRALS .....
 STEP CPU TIME =     0.71 TOTAL CPU TIME =       33.3 (    0.6 MIN)
 TOTAL WALL CLOCK TIME=       28.5 SECONDS, CPU UTILIZATION IS 116.74%
  
 -TDDFT RUNTIME PARAMETERS-
    TRIPLET  = F
    NONEQ    = T
    NSTATE   =                   10
    IROOT    =                    1
    NTRIAL   =                    5
    MAXVEC   =                   50
    ILENG    =                  200
    MAXGRD   =                87072
    NRAD     =                   48
    NLEB     =                  110
 GAS PHASE COMPUTATION
  
 FOR AN EULER-MACLAURIN QUADRATURE USING  48 RADIAL POINTS:
 SMALLEST GAUSSIAN PRIMITIVE EXPONENT=        0.1831915800 OF TYPE -S-
 ON ATOM NUMBER   7 HAS RADIAL NORMALIZATION=  1.000000
  LARGEST GAUSSIAN PRIMITIVE EXPONENT=      172.2560000000 OF TYPE -S-
 ON ATOM NUMBER   1 HAS RADIAL NORMALIZATION=  1.000000
  
 MEM1  =     5956160 MEM2  =       42575 MEMGRID=      893973
 MEMPCM=           0 MEMEFP=           0
 TOTAL MEMORY REQUIRED FOR TD-DFT ITERATIONS IS     6892709 WORDS.

 INITIAL VECTORS / MXVEC                    10 /                  500
 ITERATION #                     1
    CURRENT VECTORS    1 TO  10 (  10 VECTORS)
    STATE NUMBER   1  ENERGY =    4.929442 EV
    STATE NUMBER   2  ENERGY =    5.331268 EV
    STATE NUMBER   3  ENERGY =    5.825959 EV
    STATE NUMBER   4  ENERGY =    6.834337 EV
    STATE NUMBER   5  ENERGY =    7.072622 EV
    STATE NUMBER   6  ENERGY =    7.096325 EV
    STATE NUMBER   7  ENERGY =    7.341167 EV
    STATE NUMBER   8  ENERGY =    7.774632 EV
    STATE NUMBER   9  ENERGY =    7.827159 EV
    STATE NUMBER  10  ENERGY =    8.790375 EV
    MAX ERROR =  1.357E-01 / 1.000E-07
 ITERATION #                     2
    CURRENT VECTORS   11 TO  30 (  20 VECTORS)
    STATE NUMBER   1  ENERGY =    4.741067 EV
    STATE NUMBER   2  ENERGY =    4.931035 EV
    STATE NUMBER   3  ENERGY =    5.792158 EV
    STATE NUMBER   4  ENERGY =    6.056655 EV
    STATE NUMBER   5  ENERGY =    6.696060 EV
    STATE NUMBER   6  ENERGY =    6.859523 EV
    STATE NUMBER   7  ENERGY =    7.003956 EV
    STATE NUMBER   8  ENERGY =    7.040490 EV
    STATE NUMBER   9  ENERGY =    7.120704 EV
    STATE NUMBER  10  ENERGY =    7.260958 EV
    MAX ERROR =  6.861E-03 / 1.000E-07
 ITERATION #                     3
    CURRENT VECTORS   31 TO  50 (  20 VECTORS)
    STATE NUMBER   1  ENERGY =    4.726109 EV
    STATE NUMBER   2  ENERGY =    4.928788 EV
    STATE NUMBER   3  ENERGY =    5.789869 EV
    STATE NUMBER   4  ENERGY =    6.042060 EV
    STATE NUMBER   5  ENERGY =    6.615522 EV
    STATE NUMBER   6  ENERGY =    6.846646 EV
    STATE NUMBER   7  ENERGY =    7.000030 EV
    STATE NUMBER   8  ENERGY =    7.018461 EV
    STATE NUMBER   9  ENERGY =    7.099832 EV
    STATE NUMBER  10  ENERGY =    7.171672 EV
    MAX ERROR =  5.655E-04 / 1.000E-07
 ITERATION #                     4
    CURRENT VECTORS   51 TO  70 (  20 VECTORS)
    STATE NUMBER   1  ENERGY =    4.725786 EV
    STATE NUMBER   2  ENERGY =    4.928733 EV
    STATE NUMBER   3  ENERGY =    5.789737 EV
    STATE NUMBER   4  ENERGY =    6.041484 EV
    STATE NUMBER   5  ENERGY =    6.606976 EV
    STATE NUMBER   6  ENERGY =    6.845731 EV
    STATE NUMBER   7  ENERGY =    6.999167 EV
    STATE NUMBER   8  ENERGY =    7.017517 EV
    STATE NUMBER   9  ENERGY =    7.098058 EV
    STATE NUMBER  10  ENERGY =    7.168286 EV
    MAX ERROR =  1.953E-05 / 1.000E-07
 ITERATION #                     5
    CURRENT VECTORS   71 TO  88 (  18 VECTORS)
    STATE NUMBER   1  ENERGY =    4.725780 EV
    STATE NUMBER   2  ENERGY =    4.928732 EV
    STATE NUMBER   3  ENERGY =    5.789734 EV
    STATE NUMBER   4  ENERGY =    6.041467 EV
    STATE NUMBER   5  ENERGY =    6.606713 EV
    STATE NUMBER   6  ENERGY =    6.845701 EV
    STATE NUMBER   7  ENERGY =    6.999055 EV
    STATE NUMBER   8  ENERGY =    7.017468 EV
    STATE NUMBER   9  ENERGY =    7.097986 EV
    STATE NUMBER  10  ENERGY =    7.168104 EV
    MAX ERROR =  1.096E-06 / 1.000E-07
 ITERATION #                     6
    CURRENT VECTORS   89 TO 102 (  14 VECTORS)
    STATE NUMBER   1  ENERGY =    4.725780 EV
    STATE NUMBER   2  ENERGY =    4.928732 EV
    STATE NUMBER   3  ENERGY =    5.789734 EV
    STATE NUMBER   4  ENERGY =    6.041467 EV
    STATE NUMBER   5  ENERGY =    6.606702 EV
    STATE NUMBER   6  ENERGY =    6.845700 EV
    STATE NUMBER   7  ENERGY =    6.999040 EV
    STATE NUMBER   8  ENERGY =    7.017465 EV
    STATE NUMBER   9  ENERGY =    7.097982 EV
    STATE NUMBER  10  ENERGY =    7.168095 EV
    MAX ERROR =  1.319E-07 / 1.000E-07
 ITERATION #                     7
    CURRENT VECTORS  103 TO 108 (   6 VECTORS)
    STATE NUMBER   1  ENERGY =    4.725780 EV
    STATE NUMBER   2  ENERGY =    4.928732 EV
    STATE NUMBER   3  ENERGY =    5.789734 EV
    STATE NUMBER   4  ENERGY =    6.041467 EV
    STATE NUMBER   5  ENERGY =    6.606701 EV
    STATE NUMBER   6  ENERGY =    6.845700 EV
    STATE NUMBER   7  ENERGY =    6.999038 EV
    STATE NUMBER   8  ENERGY =    7.017465 EV
    STATE NUMBER   9  ENERGY =    7.097981 EV
    STATE NUMBER  10  ENERGY =    7.168095 EV
    MAX ERROR =  2.597E-08 / 1.000E-07
  
   ---------------------------------  
     R-TDDFT CALCULATION CONVERGED
   ---------------------------------  
 NUMBER OF USED VECTORS / MAX = 108 / 500
 NUMBER OF ITERATIONS   / MAX =   7 / 100
 NUMBER OF SINGLE EXCITATIONS =  2625
 NUMBER OF ATOMIC ORBITALS    = 110
 NUMBER OF ELECTRONS          =          70.0060085

          -------------------
          SINGLET EXCITATIONS
          -------------------

 STATE #   1  ENERGY =    4.725780 EV
 OSCILLATOR STRENGTH =    0.650922
 LAMBDA DIAGNOSTIC   =    0.853 (RYDBERG/CHARGE TRANSFER CHARACTER)
 SYMMETRY OF STATE   =    BU  
                 EXCITATION  DE-EXCITATION
     OCC     VIR  AMPLITUDE      AMPLITUDE
      I       A     X(I->A)        Y(A->I)
     ---     ---   --------       --------
     34      36   -0.142272      -0.006482
     35      36   -0.959590       0.099084
     34      37   -0.115067      -0.020837
     35      37    0.220037       0.006904

 STATE #   2  ENERGY =    4.928732 EV
 OSCILLATOR STRENGTH =    0.051614
 LAMBDA DIAGNOSTIC   =    0.565 (RYDBERG/CHARGE TRANSFER CHARACTER)
 SYMMETRY OF STATE   =    BU  
                 EXCITATION  DE-EXCITATION
     OCC     VIR  AMPLITUDE      AMPLITUDE
      I       A     X(I->A)        Y(A->I)
     ---     ---   --------       --------
     34      36    0.747272       0.002434
     35      36   -0.252200       0.031725
     32      37   -0.060183      -0.010087
     35      37   -0.610849      -0.014406
     34      39    0.032907       0.000757

 STATE #   3  ENERGY =    5.789734 EV
 OSCILLATOR STRENGTH =    0.000000
 LAMBDA DIAGNOSTIC   =    0.785 (RYDBERG/CHARGE TRANSFER CHARACTER)
 SYMMETRY OF STATE   =    AG  
                 EXCITATION  DE-EXCITATION
     OCC     VIR  AMPLITUDE      AMPLITUDE
      I       A     X(I->A)        Y(A->I)
     ---     ---   --------       --------
     33      36   -0.794998       0.009064
     32      38   -0.039572       0.003250
     35      38   -0.601782      -0.017067
     33      39   -0.062698      -0.007233

 STATE #   4  ENERGY =    6.041467 EV
 OSCILLATOR STRENGTH =    0.230685
 LAMBDA DIAGNOSTIC   =    0.556 (RYDBERG/CHARGE TRANSFER CHARACTER)
 SYMMETRY OF STATE   =    BU  
                 EXCITATION  DE-EXCITATION
     OCC     VIR  AMPLITUDE      AMPLITUDE
      I       A     X(I->A)        Y(A->I)
     ---     ---   --------       --------
     34      36    0.627291      -0.070070
     35      36    0.073494      -0.013097
     32      37   -0.164291      -0.039326
     34      37    0.047907       0.001621
     35      37    0.744375      -0.069537
     33      38    0.031647       0.003000
     34      39   -0.135292      -0.039074

 STATE #   5  ENERGY =    6.606701 EV
 OSCILLATOR STRENGTH =    0.000000
 LAMBDA DIAGNOSTIC   =    0.729 (RYDBERG/CHARGE TRANSFER CHARACTER)
 SYMMETRY OF STATE   =    AG  
                 EXCITATION  DE-EXCITATION
     OCC     VIR  AMPLITUDE      AMPLITUDE
      I       A     X(I->A)        Y(A->I)
     ---     ---   --------       --------
     28      36    0.048709      -0.000214
     33      36   -0.560372       0.073923
     33      37    0.323425       0.003035
     32      38    0.113622       0.023182
     34      38   -0.070143      -0.000245
     35      38    0.742454      -0.069410
     33      39   -0.069154      -0.020642
     25      41    0.033443       0.011133

 STATE #   6  ENERGY =    6.845700 EV
 OSCILLATOR STRENGTH =    0.000000
 LAMBDA DIAGNOSTIC   =    0.419 (RYDBERG/CHARGE TRANSFER CHARACTER)
 SYMMETRY OF STATE   =    AG  
                 EXCITATION  DE-EXCITATION
     OCC     VIR  AMPLITUDE      AMPLITUDE
      I       A     X(I->A)        Y(A->I)
     ---     ---   --------       --------
     33      36   -0.137989       0.020591
     33      37   -0.791033       0.005535
     32      38    0.030560       0.006099
     34      38   -0.566801      -0.000805
     35      38    0.176656      -0.019849

 STATE #   7  ENERGY =    6.999038 EV
 OSCILLATOR STRENGTH =    0.000001
 LAMBDA DIAGNOSTIC   =    0.507 (RYDBERG/CHARGE TRANSFER CHARACTER)
 SYMMETRY OF STATE   =    AU  
                 EXCITATION  DE-EXCITATION
     OCC     VIR  AMPLITUDE      AMPLITUDE
      I       A     X(I->A)        Y(A->I)
     ---     ---   --------       --------
     30      36    0.137024       0.001721
     31      36   -0.981505       0.003851
     29      38    0.100332      -0.002914
     27      39    0.035082      -0.000530
     31      39   -0.039480      -0.000000

 STATE #   8  ENERGY =    7.017465 EV
 OSCILLATOR STRENGTH =    0.201956
 LAMBDA DIAGNOSTIC   =    0.885 (RYDBERG/CHARGE TRANSFER CHARACTER)
 SYMMETRY OF STATE   =    BU  
                 EXCITATION  DE-EXCITATION
     OCC     VIR  AMPLITUDE      AMPLITUDE
      I       A     X(I->A)        Y(A->I)
     ---     ---   --------       --------
     32      36   -0.747350       0.009272
     34      36    0.039761      -0.007328
     35      36    0.077145      -0.024486
     34      37   -0.619005       0.054055
     33      38    0.042510       0.010968
     32      39   -0.041478      -0.007416
     35      39    0.202623       0.011500
     33      46    0.053317       0.014106

 STATE #   9  ENERGY =    7.097981 EV
 OSCILLATOR STRENGTH =    0.000000
 LAMBDA DIAGNOSTIC   =    0.424 (RYDBERG/CHARGE TRANSFER CHARACTER)
 SYMMETRY OF STATE   =    AG  
                 EXCITATION  DE-EXCITATION
     OCC     VIR  AMPLITUDE      AMPLITUDE
      I       A     X(I->A)        Y(A->I)
     ---     ---   --------       --------
     33      36   -0.140985       0.022782
     28      37   -0.092078      -0.022420
     33      37   -0.514310       0.012840
     32      38    0.037188       0.005879
     34      38    0.815822      -0.013434
     35      38    0.184241      -0.023017
     33      39   -0.030156      -0.006471
     34      46    0.044110       0.018491

 STATE #  10  ENERGY =    7.168095 EV
 OSCILLATOR STRENGTH =    0.341451
 LAMBDA DIAGNOSTIC   =    0.894 (RYDBERG/CHARGE TRANSFER CHARACTER)
 SYMMETRY OF STATE   =    BU  
                 EXCITATION  DE-EXCITATION
     OCC     VIR  AMPLITUDE      AMPLITUDE
      I       A     X(I->A)        Y(A->I)
     ---     ---   --------       --------
     32      36   -0.484978       0.009966
     34      36   -0.032588       0.006833
     35      36   -0.088125       0.038157
     34      37    0.715791      -0.072176
     28      38   -0.089600      -0.014876
     33      38    0.241848       0.005136
     32      39    0.037792       0.012044
     35      39    0.416223       0.014370

                          SUMMARY OF TDDFT RESULTS

   STATE             ENERGY     EXCITATION  TRANSITION DIPOLE, A.U.  OSCILLATOR
                    HARTREE          EV         X       Y       Z     STRENGTH
   0  AG        -384.6649221142    0.000
   1  BU        -384.4912528807    4.726    -2.3706 -0.0486 -0.0000    0.651
   2  BU        -384.4837945224    4.929    -0.6497  0.0731 -0.0000    0.052
   3  AG        -384.4521533024    5.790     0.0000  0.0000 -0.0000    0.000
   4  BU        -384.4429022936    6.041     0.8315  0.9312  0.0000    0.231
   5  AG        -384.4221302935    6.607     0.0000  0.0000  0.0000    0.000
   6  AG        -384.4133472646    6.846    -0.0000 -0.0000  0.0000    0.000
   7  AU        -384.4077121884    6.999    -0.0000  0.0000 -0.0018    0.000
   8  BU        -384.4070350224    7.017     1.0835  0.0278  0.0000    0.202
   9  AG        -384.4040760879    7.098    -0.0000  0.0000 -0.0000    0.000
  10  BU        -384.4014994659    7.168    -1.3883  0.1303  0.0000    0.341
  
 SELECTING EXCITED STATE IROOT=   1 AT E=     -384.4912528807
 AS THE STATE OF INTEREST.

 ..... DONE WITH TD-DFT EXCITATION ENERGIES .....
 STEP CPU TIME =   278.07 TOTAL CPU TIME =      311.3 (    5.2 MIN)
 TOTAL WALL CLOCK TIME=      279.9 SECONDS, CPU UTILIZATION IS 111.24%
              6913376  WORDS OF DYNAMIC MEMORY USED
 EXECUTION OF GAMESS TERMINATED NORMALLY Wed Jul 27 01:20:58 2016
 DDI: 263640 bytes (0.3 MB / 0 MWords) used by master data server.

 ----------------------------------------
 CPU timing information for all processes
 ========================================
 0: 282.976 + 28.596 = 311.573
 ----------------------------------------
 ddikick.x: exited gracefully.
----- accounting info -----
Files used on the master node copper were:
-rw-r--r-- 1 eric users   198434 Jul 27 01:16 /tmp/dvb_td.dat
-rw-r--r-- 1 eric users     1446 Jul 27 01:16 /tmp/dvb_td.F05
-rw-r--r-- 1 eric users 70386256 Jul 27 01:16 /tmp/dvb_td.F08
-rw-r--r-- 1 eric users  2454000 Jul 27 01:21 /tmp/dvb_td.F10
-rw-r--r-- 1 eric users  3482920 Jul 27 01:16 /tmp/dvb_td.F22
Wed Jul 27 01:21:01 EDT 2016
0.196u 0.056s 4:43.20 0.0%	0+0k 0+8io 0pf+0w
