----- GAMESS execution script 'rungms' -----
This job is running on host firzens
under operating system Linux at Mon Aug 14 21:04:24 IST 2017
Available scratch disk space (Kbyte units) at beginning of the job is
Filesystem     1K-blocks      Used Available Use% Mounted on
/dev/sda11     254243428 126581408 114724140  53% /
GAMESS temporary binary files will be written to /scr/sagar
GAMESS supplementary output files will be written to /home/sagar/gamess/scratch
Copying input file Trp_polar_tdhf.inp to your run's scratch directory...
 
Assuming a single but multicore node.
 

 Distributed Data Interface kickoff program.
 Initiating 4 compute processes on 1 nodes to run the following command:
 /home/sagar/gamess/gamess.02.x Trp_polar_tdhf 

          ******************************************************
          *         GAMESS VERSION = 20 APR 2017 (R1)          *
          *             FROM IOWA STATE UNIVERSITY             *
          * M.W.SCHMIDT, K.K.BALDRIDGE, J.A.BOATZ, S.T.ELBERT, *
          *   M.S.GORDON, J.H.JENSEN, S.KOSEKI, N.MATSUNAGA,   *
          *          K.A.NGUYEN, S.J.SU, T.L.WINDUS,           *
          *       TOGETHER WITH M.DUPUIS, J.A.MONTGOMERY       *
          *         J.COMPUT.CHEM.  14, 1347-1363(1993)        *
          **************** 64 BIT LINUX VERSION ****************

  SINCE 1993, STUDENTS AND POSTDOCS WORKING AT IOWA STATE UNIVERSITY
  AND ALSO IN THEIR VARIOUS JOBS AFTER LEAVING ISU HAVE MADE IMPORTANT
  CONTRIBUTIONS TO THE CODE:
     IVANA ADAMOVIC, CHRISTINE AIKENS, YURI ALEXEEV, POOJA ARORA,
     ANDREY ASADCHEV, ROB BELL, PRADIPTA BANDYOPADHYAY, JONATHAN BENTZ,
     BRETT BODE, KURT BRORSEN, CALEB CARLIN, GALINA CHABAN, WEI CHEN,
     CHEOL HO CHOI, PAUL DAY, ALBERT DEFUSCO, NUWAN DESILVA, TIM DUDLEY,
     DMITRI FEDOROV, GRAHAM FLETCHER, MARK FREITAG, KURT GLAESEMANN,
     DAN KEMP, GRANT MERRILL, NORIYUKI MINEZAWA, JONATHAN MULLIN,
     TAKESHI NAGATA, SEAN NEDD, HEATHER NETZLOFF, BOSILJKA NJEGIC, RYAN OLSON,
     MIKE PAK, SPENCER PRUITT, LUKE ROSKOP, JIM SHOEMAKER, LYUDMILA SLIPCHENKO,
     TONY SMITH, SAROM SOK LEANG, JIE SONG, TETSUYA TAKETSUGU, SIMON WEBB,
     PENG XU, SOOHAENG YOO, FEDERICO ZAHARIEV

  ADDITIONAL CODE HAS BEEN PROVIDED BY COLLABORATORS IN OTHER GROUPS:
     IOWA STATE UNIVERSITY:
          JOE IVANIC, AARON WEST, LAIMUTIS BYTAUTAS, KLAUS RUEDENBERG
     UNIVERSITY OF TOKYO: KIMIHIKO HIRAO, TAKAHITO NAKAJIMA,
          TAKAO TSUNEDA, MUNEAKI KAMIYA, SUSUMU YANAGISAWA,
          KIYOSHI YAGI, MAHITO CHIBA, SEIKEN TOKURA, NAOAKI KAWAKAMI
     UNIVERSITY OF AARHUS: FRANK JENSEN
     UNIVERSITY OF IOWA: VISVALDAS KAIRYS, HUI LI
     NATIONAL INST. OF STANDARDS AND TECHNOLOGY: WALT STEVENS, DAVID GARMER
     UNIVERSITY OF PISA: BENEDETTA MENNUCCI, JACOPO TOMASI
     UNIVERSITY OF MEMPHIS: HENRY KURTZ, PRAKASHAN KORAMBATH
     UNIVERSITY OF ALBERTA: TOBY ZENG, MARIUSZ KLOBUKOWSKI
     UNIVERSITY OF NEW ENGLAND: MARK SPACKMAN
     MIE UNIVERSITY: HIROAKI UMEDA
     NAT. INST. OF ADVANCED INDUSTRIAL SCIENCE AND TECHNOLOGY: KAZUO KITAURA
     MICHIGAN STATE UNIVERSITY:
          KAROL KOWALSKI, MARTA WLOCH, JEFFREY GOUR, JESSE LUTZ,
          WEI LI, PIOTR PIECUCH
     UNIVERSITY OF SILESIA: MONIKA MUSIAL, STANISLAW KUCHARSKI
     FACULTES UNIVERSITAIRES NOTRE-DAME DE LA PAIX:
          OLIVIER QUINET, BENOIT CHAMPAGNE
     UNIVERSITY OF CALIFORNIA - SANTA BARBARA: BERNARD KIRTMAN
     INSTITUTE FOR MOLECULAR SCIENCE:
          KAZUYA ISHIMURA, MICHIO KATOUDA, AND SHIGERU NAGASE
     UNIVERSITY OF NOTRE DAME: ANNA POMOGAEVA, DAN CHIPMAN
     KYUSHU UNIVERSITY:
          HARUYUKI NAKANO,
          FENG LONG GU, JACEK KORCHOWIEC, MARCIN MAKOWSKI, AND YURIKO AOKI,
          HIROTOSHI MORI AND EISAKU MIYOSHI
     PENNSYLVANIA STATE UNIVERSITY:
          TZVETELIN IORDANOV, CHET SWALINA, JONATHAN SKONE,
          SHARON HAMMES-SCHIFFER
     WASEDA UNIVERSITY:
          MASATO KOBAYASHI, TOMOKO AKAMA, TSUGUKI TOUMA,
          TAKESHI YOSHIKAWA, YASUHIRO IKABATA, JUNJI SEINO,
          YUYA NAKAJIMA, HIROMI NAKAI
     NANJING UNIVERSITY: SHUHUA LI
     UNIVERSITY OF NEBRASKA:
          PEIFENG SU, DEJUN SI, NANDUN THELLAMUREGE, YALI WANG, HUI LI
     UNIVERSITY OF ZURICH: ROBERTO PEVERATI, KIM BALDRIDGE
     N. COPERNICUS UNIVERSITY AND JACKSON STATE UNIVERSITY:
          MARIA BARYSZ
     UNIVERSITY OF COPENHAGEN: Jimmy Kromann, CASPER STEINMANN
     TOKYO INSTITUTE OF TECHNOLOGY: HIROYA NAKATA
     NAGOYA UNIVERSITY: YOSHIO NISHIMOTO, STEPHAN IRLE
     MOSCOW STATE UNIVERSITY: VLADIMIR MIRONOV


 PARALLEL VERSION RUNNING ON        4 PROCESSORS IN        1 NODES.

 EXECUTION OF GAMESS BEGUN Mon Aug 14 21:04:24 2017

            ECHO OF THE FIRST FEW INPUT CARDS -
 INPUT CARD> $basis gbasis=sto ngauss=3 $end                                                
 INPUT CARD> $contrl scftyp=rhf runtyp=tdhf aimpac=.t. $end                                 
 INPUT CARD> $scf dirscf=.true. $end                                                        
 INPUT CARD>                                                                                
 INPUT CARD> $data                                                                          
 INPUT CARD>tryptophan static polarizability                                                
 INPUT CARD>C1                                                                              
 INPUT CARD>N     7.0        -0.0699826875    0.3321987191    0.2821283177                  
 INPUT CARD>C     6.0         1.3728035449    0.0970713322   -0.0129587739                  
 INPUT CARD>C     6.0         2.0969275417   -0.0523593054    1.3682652221                  
 INPUT CARD>O     8.0         3.1382490088   -0.6563684788    1.5380162924                  
 INPUT CARD>C     6.0         1.9529664597    1.3136139853   -0.7956021969                  
 INPUT CARD>H     1.0         1.8442727348    2.2050605044   -0.1801631789                  
 INPUT CARD>H     1.0         1.3455899915    1.4594935008   -1.6885689523                  
 INPUT CARD>C     6.0         3.4053646872    1.1270611844   -1.1918075237                  
 INPUT CARD>C     6.0         4.4845249667    1.6235038050   -0.5598918002                  
 INPUT CARD>N     7.0         5.6509089647    1.2379326369   -1.2284610654                  
 INPUT CARD>H     1.0         6.6009314349    1.4112351003   -0.9028629397                  
 INPUT CARD>C     6.0         5.2921619642    0.4356274269   -2.3131617003                  
 INPUT CARD>C     6.0         3.8942019475    0.3557998019   -2.3263315791                  
 INPUT CARD>C     6.0         3.2659168792   -0.3832607567   -3.3431309548                  
 INPUT CARD>H     1.0         2.1864306677   -0.4577058843   -3.3815918670                  
 INPUT CARD>C     6.0         4.0381762333   -1.0087512639   -4.2870993776                  
 INPUT CARD>H     1.0         3.5696890585   -1.5824763141   -5.0755609734                  
 INPUT CARD>C     6.0         5.4445159165   -0.9194874753   -4.2519002882                  
 INPUT CARD>H     1.0         6.0229926396   -1.4277973542   -5.0130007062                  
 INPUT CARD>C     6.0         6.0869576238   -0.2024044961   -3.2767702726                  
 INPUT CARD>H     1.0         7.1656650647   -0.1287762497   -3.2458650647                  
 INPUT CARD>H     1.0         4.5457621618    2.2425310766    0.3253979653                  
 INPUT CARD>H     1.0        -0.5159777859    0.7478905868   -0.5487661007                  
 INPUT CARD>H     1.0         1.5420526570   -0.8143939718   -0.5935463196                  
 INPUT CARD>H     1.0        -0.5302278747   -0.5823989653    0.4084507634                  
 INPUT CARD>O     8.0         1.4575846656    0.5996887308    2.4093500287                  
 INPUT CARD>H     1.0         0.5990015339    0.8842421241    2.0047830456                  
 INPUT CARD> $end                                                                           
    1000000 WORDS OF MEMORY AVAILABLE

     BASIS OPTIONS
     -------------
     GBASIS=STO          IGAUSS=       3      POLAR=NONE    
     NDFUNC=       0     NFFUNC=       0     DIFFSP=       F
     NPFUNC=       0      DIFFS=       F     BASNAM=        


     RUN TITLE
     ---------
 tryptophan static polarizability                                                

 THE POINT GROUP OF THE MOLECULE IS C1      
 THE ORDER OF THE PRINCIPAL AXIS IS     0

 ATOM      ATOMIC                      COORDINATES (BOHR)
           CHARGE         X                   Y                   Z
 N           7.0    -0.1322481033        0.6277645526        0.5331452138
 C           6.0     2.5942225348        0.1834382191       -0.0244885318
 C           6.0     3.9626184699       -0.0989447401        2.5856463483
 O           8.0     5.9304307079       -1.2403565719        2.9064293573
 C           6.0     3.6905714720        2.4823704859       -1.5034701474
 H           1.0     3.4851701154        4.1669601397       -0.3404590412
 H           1.0     2.5427963758        2.7580427974       -3.1909326312
 C           6.0     6.4352061471        2.1298368099       -2.2521896499
 C           6.0     8.4745233722        3.0679773315       -1.0580420852
 N           7.0    10.6786695248        2.3393534750       -2.3214548002
 H           1.0    12.4739516757        2.6668476438       -1.7061635605
 C           6.0    10.0007359950        0.8232164696       -4.3712417789
 C           6.0     7.3589746216        0.6723641321       -4.3961292411
 C           6.0     6.1716880004       -0.7242578120       -6.3176014456
 H           1.0     4.1317548531       -0.8649387043       -6.3902820309
 C           6.0     7.6310465711       -1.9062634785       -8.1014431058
 H           1.0     6.7457341819       -2.9904466157       -9.5914194737
 C           6.0    10.2886432180       -1.7375793775       -8.0349264718
 H           1.0    11.3818057149       -2.6981457654       -9.4731977110
 C           6.0    11.5026820079       -0.3824890363       -6.1921979399
 H           1.0    13.5411434921       -0.2433518257       -6.1337955654
 H           1.0     8.5902448912        4.2377692537        0.6149129914
 H           1.0    -0.9750566311        1.4133082778       -1.0370175617
 H           1.0     2.9140569804       -1.5389814528       -1.1216399051
 H           1.0    -1.0019853942       -1.1005744599        0.7718600223
 O           8.0     2.7544356219        1.1332473791        4.5530113628
 H           1.0     1.1319487653        1.6709753214        3.7884906210

          INTERNUCLEAR DISTANCES (ANGS.)
          ------------------------------

                1 N          2 C          3 C          4 O          5 C     

   1 N       0.0000000    1.4913059 *  2.4541960 *  3.5843089    2.4933917 *
   2 C       1.4913059 *  0.0000000    1.5666732 *  2.4677911 *  1.5585557 *
   3 C       2.4541960 *  1.5666732 *  0.0000000    1.2157273 *  2.5629924 *
   4 O       3.5843089    2.4677911 *  1.2157273 *  0.0000000    3.2758970  
   5 C       2.4933917 *  1.5585557 *  2.5629924 *  3.2758970    0.0000000  
   6 H       2.7176642 *  2.1665315 *  2.7490742 *  3.5797055    1.0886948 *
   7 H       2.6754976 *  2.1597695 *  3.4920542    4.2545682    1.0897599 *
   8 C       3.8577626    2.5655152 *  3.1075735    3.2716831    1.5169843 *
   9 C       4.8083268    3.5088377    3.4967025    3.3780904    2.5613238 *
  10 N       5.9858864    4.5914264    4.5867881    4.1898966    3.7239593  
  11 H       6.8607302    5.4637237    5.2522550    4.7141325    4.6502272  
  12 C       5.9580889    4.5570741    4.8990365    4.5456977    3.7714817  
  13 C       4.7454589    3.4316299    4.1287813    4.0656038    2.6512140 *
  14 C       4.9782138    3.8606533    4.8655201    4.8904484    3.3306344  
  15 H       4.3747224    3.5096233    4.7679617    5.0147751    3.1431548  
  16 C       6.2891143    5.1570663    6.0552688    5.9047451    4.6831648  
  17 H       6.7541117    5.7686331    6.7847756    6.6920266    5.4147187  
  18 C       7.2480224    5.9649693    6.5988271    6.2378869    5.3966338  
  19 H       8.2619807    6.9964207    7.6175043    7.1994911    6.4704636  
  20 C       7.1315828    5.7415503    6.1252925    5.6641977    5.0541458  
  21 H       8.0631156    6.6377658    6.8547894    6.2756637    5.9377188  
  22 H       4.9956323    3.8451462    3.5143826    3.4431316    2.9735699 *
  23 H       1.0305809 *  2.0683689 *  3.3380658    4.4362121    2.5449276 *
  24 H       2.1633629 *  1.0938447 *  2.1765311 *  2.6676533 *  2.1767165 *
  25 H       1.0316356 *  2.0641692 *  2.8467756 *  3.8391552    3.3482626  
  26 O       2.6325055 *  2.4753569 *  1.3848406 *  2.2719011 *  3.3206643  
  27 H       1.9286864 *  2.2999325 *  1.8778071 *  3.0065146    3.1400221  

                6 H          7 H          8 C          9 C         10 N     

   1 N       2.7176642 *  2.6754976 *  3.8577626    4.8083268    5.9858864  
   2 C       2.1665315 *  2.1597695 *  2.5655152 *  3.5088377    4.5914264  
   3 C       2.7490742 *  3.4920542    3.1075735    3.4967025    4.5867881  
   4 O       3.5797055    4.2545682    3.2716831    3.3780904    4.1898966  
   5 C       1.0886948 *  1.0897599 *  1.5169843 *  2.5613238 *  3.7239593  
   6 H       0.0000000    1.7549480 *  2.1500035 *  2.7300795 *  4.0650639  
   7 H       1.7549480 *  0.0000000    2.1447506 *  3.3397192    4.3355000  
   8 C       2.1500035 *  2.1447506 *  0.0000000    1.3454961 *  2.2485785 *
   9 C       2.7300795 *  3.3397192    1.3454961 *  0.0000000    1.3986070 *
  10 N       4.0650639    4.3355000    2.2485785 *  1.3986070 *  0.0000000  
  11 H       4.8762953    5.3139699    3.2211629    2.1544984 *  1.0191126 *
  12 C       4.4236316    4.1247846    2.3011996 *  2.2665576 *  1.3960546 *
  13 C       3.4968577    2.8496147 *  1.4563485 *  2.2529679 *  2.2515545 *
  14 C       4.3272213    3.1338433    2.6322444 *  3.6412264    3.5760710  
  15 H       4.1781027    2.6923954 *  2.9652053 *  4.1922145    4.4174395  
  16 C       5.6576253    4.4827016    3.8135255    4.5847650    4.1235620  
  17 H       6.4255285    5.0667457    4.7383686    5.6130652    5.2044558  
  18 C       6.2692579    5.3880805    4.2084043    4.5846825    3.7199791  
  19 H       7.3495357    6.4238922    5.2896877    5.6131542    4.6440610  
  20 C       5.7779960    5.2692367    3.6476690    3.6446070    2.5417081 *
  21 H       6.5698203    6.2306537    4.4649904    4.1801256    2.8691982 *
  22 H       2.7486435 *  3.8613874    2.2015204 *  1.0819809 *  2.1552367 *
  23 H       2.7982128 *  2.2958580 *  3.9917665    5.0765983    6.2235535  
  24 H       3.0625688    2.5314495 *  2.7566458 *  3.8213377    4.6365786  
  25 H       3.7087262    3.4764219    4.5795163    5.5634019    6.6482735  
  26 O       3.0712090    4.1886450    4.1279904    4.3619906    5.5879328  
  27 H       2.8406428 *  3.8117132    4.2606134    4.7139535    6.0083886  

               11 H         12 C         13 C         14 C         15 H     

   1 N       6.8607302    5.9580889    4.7454589    4.9782138    4.3747224  
   2 C       5.4637237    4.5570741    3.4316299    3.8606533    3.5096233  
   3 C       5.2522550    4.8990365    4.1287813    4.8655201    4.7679617  
   4 O       4.7141325    4.5456977    4.0656038    4.8904484    5.0147751  
   5 C       4.6502272    3.7714817    2.6512140 *  3.3306344    3.1431548  
   6 H       4.8762953    4.4236316    3.4968577    4.3272213    4.1781027  
   7 H       5.3139699    4.1247846    2.8496147 *  3.1338433    2.6923954 *
   8 C       3.2211629    2.3011996 *  1.4563485 *  2.6322444 *  2.9652053 *
   9 C       2.1544984 *  2.2665576 *  2.2529679 *  3.6412264    4.1922145  
  10 N       1.0191126 *  1.3960546 *  2.2515545 *  3.5760710    4.4174395  
  11 H       0.0000000    2.1572275 *  3.2352111    4.5052686    5.3967448  
  12 C       2.1572275 *  0.0000000    1.4002993 *  2.4160057 *  3.4036972  
  13 C       3.2352111    1.4002993 *  0.0000000    1.4052877 *  2.1660675 *
  14 C       4.5052686    2.4160057 *  1.4052877 *  0.0000000    1.0827335 *
  15 H       5.3967448    3.4036972    2.1660675 *  1.0827335 *  0.0000000  
  16 C       4.8864204    2.7486615 *  2.3931859 *  1.3706565 *  2.1336721 *
  17 H       5.9634006    3.8302096    3.3794208    2.1287812 *  2.4592771 *
  18 C       4.2409451    2.3702859 *  2.7816624 *  2.4206806 *  3.4037918  
  19 H       5.0286530    3.3608922    3.8640859    3.3883607    4.2803948  
  20 C       2.9160655 *  1.4026141 *  2.4542011 *  2.8276109 *  3.9102784  
  21 H       2.8601080 *  2.1676026 *  3.4326122    3.9092530    4.9919327  
  22 H       2.5344425 *  3.2839017    3.3190293    4.6894447    5.1574702  
  23 H       7.1565220    6.0782471    4.7710753    4.8363939    4.0965078  
  24 H       5.5354635    4.3107946    3.1471423    3.2738050    2.8836864 *
  25 H       7.5198107    6.5072095    5.2853411    5.3408554    4.6647835  
  26 O       6.1711732    6.0854758    5.3313475    6.1096066    5.9316362  
  27 H       6.6899394    6.3930945    5.4677373    6.1089430    5.7735423  

               16 C         17 H         18 C         19 H         20 C     

   1 N       6.2891143    6.7541117    7.2480224    8.2619807    7.1315828  
   2 C       5.1570663    5.7686331    5.9649693    6.9964207    5.7415503  
   3 C       6.0552688    6.7847756    6.5988271    7.6175043    6.1252925  
   4 O       5.9047451    6.6920266    6.2378869    7.1994911    5.6641977  
   5 C       4.6831648    5.4147187    5.3966338    6.4704636    5.0541458  
   6 H       5.6576253    6.4255285    6.2692579    7.3495357    5.7779960  
   7 H       4.4827016    5.0667457    5.3880805    6.4238922    5.2692367  
   8 C       3.8135255    4.7383686    4.2084043    5.2896877    3.6476690  
   9 C       4.5847650    5.6130652    4.5846825    5.6131542    3.6446070  
  10 N       4.1235620    5.2044558    3.7199791    4.6440610    2.5417081 *
  11 H       4.8864204    5.9634006    4.2409451    5.0286530    2.9160655 *
  12 C       2.7486615 *  3.8302096    2.3702859 *  3.3608922    1.4026141 *
  13 C       2.3931859 *  3.3794208    2.7816624 *  3.8640859    2.4542011 *
  14 C       1.3706565 *  2.1287812 *  2.4206806 *  3.3883607    2.8276109 *
  15 H       2.1336721 *  2.4592771 *  3.4037918    4.2803948    3.9102784  
  16 C       0.0000000    1.0818098 *  1.4096093 *  2.1545367 *  2.4224915 *
  17 H       1.0818098 *  0.0000000    2.1524281 *  2.4589709 *  3.3877555  
  18 C       1.4096093 *  2.1524281 *  0.0000000    1.0827225 *  1.3703350 *
  19 H       2.1545367 *  2.4589709 *  1.0827225 *  0.0000000    2.1260704 *
  20 C       2.4224915 *  3.3877555    1.3703350 *  2.1260704 *  0.0000000  
  21 H       3.4117021    4.2885982    2.1446877 *  2.4730395 *  1.0816589 *
  22 H       5.6660049    6.6898249    5.6354041    6.6446987    4.6182907  
  23 H       6.1482717    6.5280284    7.2125472    8.2110379    7.2072064  
  24 H       4.4621454    4.9789271    5.3501232    6.3235009    5.3132272  
  25 H       6.5650806    6.9198163    7.5848575    8.5470190    7.5836926  
  26 O       7.3545202    8.0775443    7.9104850    8.9467838    7.3760702  
  27 H       7.4161399    8.0647973    8.1165594    9.1659421    7.6937162  

               21 H         22 H         23 H         24 H         25 H     

   1 N       8.0631156    4.9956323    1.0305809 *  2.1633629 *  1.0316356 *
   2 C       6.6377658    3.8451462    2.0683689 *  1.0938447 *  2.0641692 *
   3 C       6.8547894    3.5143826    3.3380658    2.1765311 *  2.8467756 *
   4 O       6.2756637    3.4431316    4.4362121    2.6676533 *  3.8391552  
   5 C       5.9377188    2.9735699 *  2.5449276 *  2.1767165 *  3.3482626  
   6 H       6.5698203    2.7486435 *  2.7982128 *  3.0625688    3.7087262  
   7 H       6.2306537    3.8613874    2.2958580 *  2.5314495 *  3.4764219  
   8 C       4.4649904    2.2015204 *  3.9917665    2.7566458 *  4.5795163  
   9 C       4.1801256    1.0819809 *  5.0765983    3.8213377    5.5634019  
  10 N       2.8691982 *  2.1552367 *  6.2235535    4.6365786    6.6482735  
  11 H       2.8601080 *  2.5344425 *  7.1565220    5.5354635    7.5198107  
  12 C       2.1676026 *  3.2839017    6.0782471    4.3107946    6.5072095  
  13 C       3.4326122    3.3190293    4.7710753    3.1471423    5.2853411  
  14 C       3.9092530    4.6894447    4.8363939    3.2738050    5.3408554  
  15 H       4.9919327    5.1574702    4.0965078    2.8836864 *  4.6647835  
  16 C       3.4117021    5.6660049    6.1482717    4.4621454    6.5650806  
  17 H       4.2885982    6.6898249    6.5280284    4.9789271    6.9198163  
  18 C       2.1446877 *  5.6354041    7.2125472    5.3501232    7.5848575  
  19 H       2.4730395 *  6.6446987    8.2110379    6.3235009    8.5470190  
  20 C       1.0816589 *  4.6182907    7.2072064    5.3132272    7.5836926  
  21 H       0.0000000    5.0240332    8.1884385    6.2553883    8.5315043  
  22 H       5.0240332    0.0000000    5.3497032    4.3830948    5.8097162  
  23 H       8.1884385    5.3497032    0.0000000    2.5842267 *  1.6389440 *
  24 H       6.2553883    4.3830948    2.5842267 *  0.0000000    2.3134750 *
  25 H       8.5315043    5.8097162    1.6389440 *  2.3134750 *  0.0000000  
  26 O       8.0681039    4.0716861    3.5591240    3.3202637    3.0581576  
  27 H       8.4685643    4.4991335    2.7896924 *  3.2443837    2.4442733 *

               26 O         27 H     

   1 N       2.6325055 *  1.9286864 *
   2 C       2.4753569 *  2.2999325 *
   3 C       1.3848406 *  1.8778071 *
   4 O       2.2719011 *  3.0065146  
   5 C       3.3206643    3.1400221  
   6 H       3.0712090    2.8406428 *
   7 H       4.1886450    3.8117132  
   8 C       4.1279904    4.2606134  
   9 C       4.3619906    4.7139535  
  10 N       5.5879328    6.0083886  
  11 H       6.1711732    6.6899394  
  12 C       6.0854758    6.3930945  
  13 C       5.3313475    5.4677373  
  14 C       6.1096066    6.1089430  
  15 H       5.9316362    5.7735423  
  16 C       7.3545202    7.4161399  
  17 H       8.0775443    8.0647973  
  18 C       7.9104850    8.1165594  
  19 H       8.9467838    9.1659421  
  20 C       7.3760702    7.6937162  
  21 H       8.0681039    8.4685643  
  22 H       4.0716861    4.4991335  
  23 H       3.5591240    2.7896924 *
  24 H       3.3202637    3.2443837  
  25 H       3.0581576    2.4442733 *
  26 O       0.0000000    0.9908633 *
  27 H       0.9908633 *  0.0000000  

  * ... LESS THAN  3.000


     ATOMIC BASIS SET
     ----------------
 THE CONTRACTED PRIMITIVE FUNCTIONS HAVE BEEN UNNORMALIZED
 THE CONTRACTED BASIS FUNCTIONS ARE NOW NORMALIZED TO UNITY

  SHELL TYPE  PRIMITIVE        EXPONENT          CONTRACTION COEFFICIENT(S)

 N         

      1   S       1            99.1061690    0.154328967295
      1   S       2            18.0523124    0.535328142282
      1   S       3             4.8856602    0.444634542185

      2   L       4             3.7804559   -0.099967229187    0.155916274999
      2   L       5             0.8784966    0.399512826089    0.607683718598
      2   L       6             0.2857144    0.700115468880    0.391957393099

 C         

      3   S       7            71.6168373    0.154328967295
      3   S       8            13.0450963    0.535328142282
      3   S       9             3.5305122    0.444634542185

      4   L      10             2.9412494   -0.099967229187    0.155916274999
      4   L      11             0.6834831    0.399512826089    0.607683718598
      4   L      12             0.2222899    0.700115468880    0.391957393099

 C         

      5   S      13            71.6168373    0.154328967295
      5   S      14            13.0450963    0.535328142282
      5   S      15             3.5305122    0.444634542185

      6   L      16             2.9412494   -0.099967229187    0.155916274999
      6   L      17             0.6834831    0.399512826089    0.607683718598
      6   L      18             0.2222899    0.700115468880    0.391957393099

 O         

      7   S      19           130.7093214    0.154328967295
      7   S      20            23.8088661    0.535328142282
      7   S      21             6.4436083    0.444634542185

      8   L      22             5.0331513   -0.099967229187    0.155916274999
      8   L      23             1.1695961    0.399512826089    0.607683718598
      8   L      24             0.3803890    0.700115468880    0.391957393099

 C         

      9   S      25            71.6168373    0.154328967295
      9   S      26            13.0450963    0.535328142282
      9   S      27             3.5305122    0.444634542185

     10   L      28             2.9412494   -0.099967229187    0.155916274999
     10   L      29             0.6834831    0.399512826089    0.607683718598
     10   L      30             0.2222899    0.700115468880    0.391957393099

 H         

     11   S      31             3.4252509    0.154328967295
     11   S      32             0.6239137    0.535328142282
     11   S      33             0.1688554    0.444634542185

 H         

     12   S      34             3.4252509    0.154328967295
     12   S      35             0.6239137    0.535328142282
     12   S      36             0.1688554    0.444634542185

 C         

     13   S      37            71.6168373    0.154328967295
     13   S      38            13.0450963    0.535328142282
     13   S      39             3.5305122    0.444634542185

     14   L      40             2.9412494   -0.099967229187    0.155916274999
     14   L      41             0.6834831    0.399512826089    0.607683718598
     14   L      42             0.2222899    0.700115468880    0.391957393099

 C         

     15   S      43            71.6168373    0.154328967295
     15   S      44            13.0450963    0.535328142282
     15   S      45             3.5305122    0.444634542185

     16   L      46             2.9412494   -0.099967229187    0.155916274999
     16   L      47             0.6834831    0.399512826089    0.607683718598
     16   L      48             0.2222899    0.700115468880    0.391957393099

 N         

     17   S      49            99.1061690    0.154328967295
     17   S      50            18.0523124    0.535328142282
     17   S      51             4.8856602    0.444634542185

     18   L      52             3.7804559   -0.099967229187    0.155916274999
     18   L      53             0.8784966    0.399512826089    0.607683718598
     18   L      54             0.2857144    0.700115468880    0.391957393099

 H         

     19   S      55             3.4252509    0.154328967295
     19   S      56             0.6239137    0.535328142282
     19   S      57             0.1688554    0.444634542185

 C         

     20   S      58            71.6168373    0.154328967295
     20   S      59            13.0450963    0.535328142282
     20   S      60             3.5305122    0.444634542185

     21   L      61             2.9412494   -0.099967229187    0.155916274999
     21   L      62             0.6834831    0.399512826089    0.607683718598
     21   L      63             0.2222899    0.700115468880    0.391957393099

 C         

     22   S      64            71.6168373    0.154328967295
     22   S      65            13.0450963    0.535328142282
     22   S      66             3.5305122    0.444634542185

     23   L      67             2.9412494   -0.099967229187    0.155916274999
     23   L      68             0.6834831    0.399512826089    0.607683718598
     23   L      69             0.2222899    0.700115468880    0.391957393099

 C         

     24   S      70            71.6168373    0.154328967295
     24   S      71            13.0450963    0.535328142282
     24   S      72             3.5305122    0.444634542185

     25   L      73             2.9412494   -0.099967229187    0.155916274999
     25   L      74             0.6834831    0.399512826089    0.607683718598
     25   L      75             0.2222899    0.700115468880    0.391957393099

 H         

     26   S      76             3.4252509    0.154328967295
     26   S      77             0.6239137    0.535328142282
     26   S      78             0.1688554    0.444634542185

 C         

     27   S      79            71.6168373    0.154328967295
     27   S      80            13.0450963    0.535328142282
     27   S      81             3.5305122    0.444634542185

     28   L      82             2.9412494   -0.099967229187    0.155916274999
     28   L      83             0.6834831    0.399512826089    0.607683718598
     28   L      84             0.2222899    0.700115468880    0.391957393099

 H         

     29   S      85             3.4252509    0.154328967295
     29   S      86             0.6239137    0.535328142282
     29   S      87             0.1688554    0.444634542185

 C         

     30   S      88            71.6168373    0.154328967295
     30   S      89            13.0450963    0.535328142282
     30   S      90             3.5305122    0.444634542185

     31   L      91             2.9412494   -0.099967229187    0.155916274999
     31   L      92             0.6834831    0.399512826089    0.607683718598
     31   L      93             0.2222899    0.700115468880    0.391957393099

 H         

     32   S      94             3.4252509    0.154328967295
     32   S      95             0.6239137    0.535328142282
     32   S      96             0.1688554    0.444634542185

 C         

     33   S      97            71.6168373    0.154328967295
     33   S      98            13.0450963    0.535328142282
     33   S      99             3.5305122    0.444634542185

     34   L     100             2.9412494   -0.099967229187    0.155916274999
     34   L     101             0.6834831    0.399512826089    0.607683718598
     34   L     102             0.2222899    0.700115468880    0.391957393099

 H         

     35   S     103             3.4252509    0.154328967295
     35   S     104             0.6239137    0.535328142282
     35   S     105             0.1688554    0.444634542185

 H         

     36   S     106             3.4252509    0.154328967295
     36   S     107             0.6239137    0.535328142282
     36   S     108             0.1688554    0.444634542185

 H         

     37   S     109             3.4252509    0.154328967295
     37   S     110             0.6239137    0.535328142282
     37   S     111             0.1688554    0.444634542185

 H         

     38   S     112             3.4252509    0.154328967295
     38   S     113             0.6239137    0.535328142282
     38   S     114             0.1688554    0.444634542185

 H         

     39   S     115             3.4252509    0.154328967295
     39   S     116             0.6239137    0.535328142282
     39   S     117             0.1688554    0.444634542185

 O         

     40   S     118           130.7093214    0.154328967295
     40   S     119            23.8088661    0.535328142282
     40   S     120             6.4436083    0.444634542185

     41   L     121             5.0331513   -0.099967229187    0.155916274999
     41   L     122             1.1695961    0.399512826089    0.607683718598
     41   L     123             0.3803890    0.700115468880    0.391957393099

 H         

     42   S     124             3.4252509    0.154328967295
     42   S     125             0.6239137    0.535328142282
     42   S     126             0.1688554    0.444634542185

 TOTAL NUMBER OF BASIS SET SHELLS             =   42
 NUMBER OF CARTESIAN GAUSSIAN BASIS FUNCTIONS =   87
 NUMBER OF ELECTRONS                          =  108
 CHARGE OF MOLECULE                           =    0
 SPIN MULTIPLICITY                            =    1
 NUMBER OF OCCUPIED ORBITALS (ALPHA)          =   54
 NUMBER OF OCCUPIED ORBITALS (BETA )          =   54
 TOTAL NUMBER OF ATOMS                        =   27
 THE NUCLEAR REPULSION ENERGY IS      957.1064041219

     $CONTRL OPTIONS
     ---------------
 SCFTYP=RHF          RUNTYP=TDHF         EXETYP=RUN     
 MPLEVL=       0     CITYP =NONE         CCTYP =NONE         VBTYP =NONE    
 DFTTYP=NONE         TDDFT =NONE    
 MULT  =       1     ICHARG=       0     NZVAR =       0     COORD =UNIQUE  
 PP    =NONE         RELWFN=NONE         LOCAL =NONE         NUMGRD=       F
 ISPHER=      -1     NOSYM =       0     MAXIT =      30     UNITS =ANGS    
 PLTORB=       F     MOLPLT=       F     AIMPAC=       T     FRIEND=        
 NPRINT=       7     IREST =       0     GEOM  =INPUT   
 NORMF =       0     NORMP =       0     ITOL  =      20     ICUT  =       9
 INTTYP=BEST         GRDTYP=BEST         QMTTOL= 1.0E-06

     $SYSTEM OPTIONS
     ---------------
  REPLICATED MEMORY=     1000000 WORDS (ON EVERY NODE).
 DISTRIBUTED MEMDDI=           0 MILLION WORDS IN AGGREGATE,
 MEMDDI DISTRIBUTED OVER   4 PROCESSORS IS           0 WORDS/PROCESSOR.
 TOTAL MEMORY REQUESTED ON EACH PROCESSOR=     1000000 WORDS.
 TIMLIM=      525600.00 MINUTES, OR     365.0 DAYS.
 PARALL= T  BALTYP=  DLB     KDIAG=    0  COREFL= F
 MXSEQ2=     300 MXSEQ3=     150  mem10=         0

          ----------------
          PROPERTIES INPUT
          ----------------

     MOMENTS            FIELD           POTENTIAL          DENSITY
 IEMOM =       1   IEFLD =       0   IEPOT =       0   IEDEN =       0
 WHERE =COMASS     WHERE =NUCLEI     WHERE =NUCLEI     WHERE =NUCLEI  
 OUTPUT=BOTH       OUTPUT=BOTH       OUTPUT=BOTH       OUTPUT=BOTH    
 IEMINT=       0   IEFINT=       0                     IEDINT=       0
                                                       MORB  =       0
          EXTRAPOLATION IN EFFECT
          SOSCF IN EFFECT
 ORBITAL PRINTING OPTION: NPREO=     1    87     2     1

     -------------------------------
     INTEGRAL TRANSFORMATION OPTIONS
     -------------------------------
     NWORD  =            0
     CUTOFF = 1.0E-09     MPTRAN =       0
     DIRTRF =       T     AOINTS =DUP     

          ----------------------
          INTEGRAL INPUT OPTIONS
          ----------------------
 NOPK  =       1 NORDER=       0 SCHWRZ=       T

     ------------------------------------------
     THE POINT GROUP IS C1 , NAXIS= 0, ORDER= 1
     ------------------------------------------

     DIMENSIONS OF THE SYMMETRY SUBSPACES ARE
 A   =   87

 ..... DONE SETTING UP THE RUN .....
 CPU     0: STEP CPU TIME=     0.00 TOTAL CPU TIME=        0.0 (    0.0 MIN)
 TOTAL WALL CLOCK TIME=        0.0 SECONDS, CPU UTILIZATION IS   0.00%

      ----------
      TDHF INPUT
      ----------

    GTHG   = F    BSHG  = F
    GEFISH = F    BEOPE = F
    GIDRI  = F    BOR   = F
    GOKE   = F
    DIIS   = T    MAXDII=  50
    ATOL   =  1.0E-05   MAXITA = 100
    BTOL   =  1.0E-05   MAXITU = 100
    CALC.LEVELS ARE INIB =   0 INIG =   0
     1 REQUESTED ENERGIES (A.U.) FOLLOW:
        0.00000

          ********************
          1 ELECTRON INTEGRALS
          ********************
 ...... END OF ONE-ELECTRON INTEGRALS ......
 CPU     0: STEP CPU TIME=     0.02 TOTAL CPU TIME=        0.0 (    0.0 MIN)
 TOTAL WALL CLOCK TIME=        0.1 SECONDS, CPU UTILIZATION IS  40.00%

          -------------
          GUESS OPTIONS
          -------------
          GUESS =HUCKEL            NORB  =       0          NORDER=       0
          MIX   =       F          PRTMO =       F          PUNMO =       F
          TOLZ  = 1.0E-08          TOLE  = 1.0E-05
          SYMDEN=       F          PURIFY=       F

 INITIAL GUESS ORBITALS GENERATED BY HUCKEL   ROUTINE.
 HUCKEL GUESS REQUIRES    102612 WORDS.

 SYMMETRIES FOR INITIAL GUESS ORBITALS FOLLOW.   BOTH SET(S).
    54 ORBITALS ARE OCCUPIED (   15 CORE ORBITALS).
    16=A       17=A       18=A       19=A       20=A       21=A       22=A   
    23=A       24=A       25=A       26=A       27=A       28=A       29=A   
    30=A       31=A       32=A       33=A       34=A       35=A       36=A   
    37=A       38=A       39=A       40=A       41=A       42=A       43=A   
    44=A       45=A       46=A       47=A       48=A       49=A       50=A   
    51=A       52=A       53=A       54=A       55=A       56=A       57=A   
    58=A       59=A       60=A       61=A       62=A       63=A       64=A   
 ...... END OF INITIAL ORBITAL SELECTION ......
 CPU     0: STEP CPU TIME=     0.03 TOTAL CPU TIME=        0.0 (    0.0 MIN)
 TOTAL WALL CLOCK TIME=        0.1 SECONDS, CPU UTILIZATION IS  45.45%

                    ----------------------
                    AO INTEGRAL TECHNOLOGY
                    ----------------------
     S,P,L SHELL ROTATED AXIS INTEGRALS, REPROGRAMMED BY
        KAZUYA ISHIMURA (IMS) AND JOSE SIERRA (SYNSTAR).
     S,P,D,L SHELL ROTATED AXIS INTEGRALS PROGRAMMED BY
        KAZUYA ISHIMURA (INSTITUTE FOR MOLECULAR SCIENCE).
     S,P,D,F,G SHELL TO TOTAL QUARTET ANGULAR MOMENTUM SUM 5,
        ERIC PROGRAM BY GRAHAM FLETCHER (ELORET AND NASA ADVANCED
        SUPERCOMPUTING DIVISION, AMES RESEARCH CENTER).
     S,P,D,F,G,L SHELL GENERAL RYS QUADRATURE PROGRAMMED BY
        MICHEL DUPUIS (PACIFIC NORTHWEST NATIONAL LABORATORY).

          --------------------
          2 ELECTRON INTEGRALS
          --------------------

 DIRECT SCF METHOD SKIPS INTEGRAL STORAGE ON DISK.
 DIRECT TRANSFORMATION SKIPS AO INTEGRAL STORAGE ON DISK.
  ...... END OF TWO-ELECTRON INTEGRALS .....
 CPU     0: STEP CPU TIME=     0.02 TOTAL CPU TIME=        0.1 (    0.0 MIN)
 TOTAL WALL CLOCK TIME=        0.1 SECONDS, CPU UTILIZATION IS  53.85%

          --------------------------
                 RHF SCF CALCULATION
          --------------------------

     NUCLEAR ENERGY =       957.1064041219
     MAXIT =   30     NPUNCH=    2
     EXTRAP=T  DAMP=F  SHIFT=F  RSTRCT=F  DIIS=F  DEM=F  SOSCF=T
     DENSITY MATRIX CONV=  2.00E-05
     SOSCF WILL OPTIMIZE    1782 ORBITAL ROTATIONS, SOGTOL=   0.250
     MEMORY REQUIRED FOR RHF ITERS=    107491 WORDS.

 DIRECT SCF CALCULATION, SCHWRZ=T   FDIFF=T,  DIRTHR=  0.00E+00 NITDIR=10
 SCHWARZ INEQUALITY OVERHEAD:      3670 INTEGRALS, T=        0.01

                                                                                   NONZERO     BLOCKS
 ITER EX DEM     TOTAL ENERGY        E CHANGE  DENSITY CHANGE     ORB. GRAD      INTEGRALS    SKIPPED
   1  0  0     -672.6343936701  -672.6343936701   0.591951239   0.000000000        4456382     213916
          ---------------START SECOND ORDER SCF---------------
   2  1  0     -673.5152758596    -0.8808821896   0.231365811   0.080518020        4408494     226049
   3  2  0     -673.5641748956    -0.0488990359   0.123045184   0.066499977        4297322     239347
   4  3  0     -673.5896882842    -0.0255133886   0.022012309   0.005690895        4139564     251638
   5  4  0     -673.5904536972    -0.0007654130   0.007818542   0.001431607        3995090     260822
   6  5  0     -673.5905568869    -0.0001031897   0.002297576   0.001000314        3790684     271854
   7  6  0     -673.5905698629    -0.0000129759   0.000796291   0.000164269        3571918     283353
   8  7  0     -673.5905709790    -0.0000011161   0.000283202   0.000104183        3319429     293904
   9  8  0     -673.5905711354    -0.0000001564   0.000069456   0.000018371        3051852     306554
  10  9  0     -673.5905711531    -0.0000000176   0.000029051   0.000014337        2793189     317086
  11 10  0     -673.5905711567    -0.0000000037   0.000009912   0.000002803        2609437     324912
  12 11  0     -673.5905711578    -0.0000000011   0.000004283   0.000001399        2337238     336385

          -----------------
          DENSITY CONVERGED
          -----------------
     TIME TO FORM FOCK OPERATORS=       3.4 SECONDS (       0.3 SEC/ITER)
     FOCK TIME ON FIRST ITERATION=       0.4, LAST ITERATION=       0.2
     TIME TO SOLVE SCF EQUATIONS=       0.1 SECONDS (       0.0 SEC/ITER)

 FINAL RHF ENERGY IS     -673.5905711578 AFTER  12 ITERATIONS

          ------------
          EIGENVECTORS
          ------------

                      1          2          3          4          5
                  -20.2690   -20.2423   -15.3897   -15.3454   -11.1482
                     A          A          A          A          A   
    1  N  1  S   -0.000053   0.000004  -0.000000   0.993420   0.000012
    2  N  1  S    0.000373  -0.000007  -0.000000   0.031185   0.000210
    3  N  1  X    0.000086  -0.000016  -0.000000   0.000176  -0.000019
    4  N  1  Y    0.000177   0.000012   0.000000  -0.002598   0.000035
    5  N  1  Z    0.000509  -0.000076   0.000000  -0.003476  -0.000138
    6  C  2  S   -0.000031  -0.000023  -0.000000   0.000492  -0.003161
    7  C  2  S    0.000291   0.000210   0.000002  -0.004956  -0.005058
    8  C  2  X   -0.000181   0.000333   0.000002   0.004097  -0.001817
    9  C  2  Y    0.000197  -0.000276   0.000003  -0.000568   0.000442
   10  C  2  Z    0.000366  -0.000057   0.000004  -0.000660  -0.003347
   11  C  3  S    0.000513   0.000541   0.000001  -0.000001   0.992766
   12  C  3  S   -0.004539  -0.007317  -0.000006   0.000259   0.031035
   13  C  3  X    0.001997  -0.005567  -0.000002  -0.000135   0.000549
   14  C  3  Y   -0.002108   0.003214  -0.000004   0.000010  -0.000223
   15  C  3  Z   -0.003455  -0.000940   0.000002  -0.000074   0.000082
   16  O  4  S    0.001229   0.994240  -0.000001   0.000006   0.000124
   17  O  4  S    0.000255   0.026202   0.000002  -0.000031  -0.005621
   18  O  4  X   -0.000139  -0.004939   0.000001   0.000008   0.001311
   19  O  4  Y    0.000201   0.002871   0.000001  -0.000000  -0.000785
   20  O  4  Z    0.000444  -0.000798  -0.000002   0.000037   0.000146
   21  C  5  S   -0.000006  -0.000009   0.000003  -0.000005  -0.000499
   22  C  5  S   -0.000001   0.000028  -0.000001   0.000239   0.000086
   23  C  5  X    0.000017   0.000022  -0.000029  -0.000164  -0.000183
   24  C  5  Y   -0.000032  -0.000003  -0.000014  -0.000104   0.000057
   25  C  5  Z    0.000030   0.000064  -0.000034   0.000108  -0.000251
   26  H  6  S    0.000080  -0.000010  -0.000031  -0.000034  -0.000201
   27  H  7  S    0.000011   0.000023  -0.000011   0.000183  -0.000168
   28  C  8  S    0.000003  -0.000002  -0.000001   0.000010  -0.000153
   29  C  8  S   -0.000020   0.000007   0.000405  -0.000065  -0.000068
   30  C  8  X    0.000004  -0.000000   0.000324   0.000034  -0.000008
   31  C  8  Y    0.000009   0.000005  -0.000000   0.000065   0.000063
   32  C  8  Z   -0.000014   0.000012  -0.000023  -0.000036  -0.000154
   33  C  9  S    0.000000   0.000001   0.000486  -0.000000  -0.000092
   34  C  9  S    0.000000  -0.000007  -0.005834   0.000003   0.000026
   35  C  9  X   -0.000006  -0.000001  -0.003836  -0.000003   0.000040
   36  C  9  Y   -0.000005   0.000017   0.001320  -0.000007   0.000053
   37  C  9  Z    0.000000  -0.000002   0.002230   0.000004  -0.000053
   38  N 10  S   -0.000000  -0.000000   0.993277   0.000000   0.000001
   39  N 10  S    0.000001   0.000004   0.032387   0.000000  -0.000015
   40  N 10  X   -0.000001  -0.000003  -0.000965   0.000000   0.000008
   41  N 10  Y    0.000001  -0.000001  -0.000654   0.000000  -0.000015
   42  N 10  Z    0.000001   0.000002  -0.000019   0.000000   0.000003
   43  H 11  S   -0.000000  -0.000000  -0.006355  -0.000000   0.000001
   44  C 12  S   -0.000000  -0.000000   0.000482   0.000000   0.000000
   45  C 12  S    0.000000  -0.000000  -0.005801  -0.000002   0.000000
   46  C 12  X   -0.000000   0.000000  -0.001210   0.000001  -0.000001
   47  C 12  Y   -0.000000  -0.000000  -0.002691  -0.000001   0.000002
   48  C 12  Z   -0.000000  -0.000000  -0.003683   0.000000   0.000000
   49  C 13  S   -0.000000  -0.000000   0.000001   0.000000   0.000005
   50  C 13  S    0.000002   0.000003   0.000366   0.000006  -0.000008
   51  C 13  X   -0.000002  -0.000001   0.000234   0.000003   0.000003
   52  C 13  Y   -0.000000   0.000002   0.000065   0.000002  -0.000024
   53  C 13  Z    0.000002   0.000002   0.000077   0.000007   0.000012
   54  C 14  S    0.000000  -0.000000   0.000006   0.000001   0.000001
   55  C 14  S   -0.000001   0.000000  -0.000044  -0.000003   0.000000
   56  C 14  X    0.000000   0.000000  -0.000074   0.000005  -0.000001
   57  C 14  Y    0.000000  -0.000000  -0.000005   0.000001   0.000002
   58  C 14  Z    0.000000   0.000000  -0.000003  -0.000004  -0.000001
   59  H 15  S    0.000002   0.000001  -0.000017   0.000002   0.000001
   60  C 16  S   -0.000000   0.000000   0.000003   0.000000  -0.000000
   61  C 16  S    0.000000  -0.000000   0.000008  -0.000001   0.000000
   62  C 16  X   -0.000000   0.000000  -0.000016   0.000000  -0.000000
   63  C 16  Y    0.000000   0.000000  -0.000019  -0.000001   0.000000
   64  C 16  Z    0.000000  -0.000000  -0.000025  -0.000000   0.000000
   65  H 17  S   -0.000000  -0.000000  -0.000014  -0.000000  -0.000000
   66  C 18  S   -0.000000  -0.000000   0.000003  -0.000000   0.000000
   67  C 18  S   -0.000000   0.000000   0.000033   0.000000  -0.000000
   68  C 18  X    0.000000  -0.000000   0.000056  -0.000000   0.000000
   69  C 18  Y   -0.000000   0.000000  -0.000002   0.000000   0.000000
   70  C 18  Z    0.000000   0.000000  -0.000008   0.000000  -0.000000
   71  H 19  S    0.000000   0.000000  -0.000017   0.000000  -0.000000
   72  C 20  S    0.000000  -0.000000  -0.000017   0.000000   0.000000
   73  C 20  S   -0.000000   0.000000   0.000161  -0.000000   0.000000
   74  C 20  X    0.000000   0.000000   0.000278  -0.000000  -0.000000
   75  C 20  Y    0.000000   0.000000   0.000173   0.000000   0.000000
   76  C 20  Z   -0.000000   0.000000   0.000230  -0.000000   0.000000
   77  H 21  S    0.000000   0.000000  -0.000087   0.000000  -0.000000
   78  H 22  S    0.000009  -0.000005   0.000231  -0.000000  -0.000086
   79  H 23  S    0.000071  -0.000013   0.000000  -0.006521  -0.000102
   80  H 24  S    0.000018  -0.000117   0.000001   0.000377  -0.000096
   81  H 25  S    0.000083   0.000014   0.000000  -0.006505  -0.000108
   82  O 26  S    0.994140  -0.001296  -0.000000  -0.000079   0.000364
   83  O 26  S    0.026267   0.000280   0.000001   0.000561  -0.004309
   84  O 26  X   -0.001184   0.000358   0.000001  -0.000358  -0.001613
   85  O 26  Y   -0.000719  -0.000193   0.000000   0.000168   0.001311
   86  O 26  Z   -0.003991   0.000133  -0.000001  -0.000105   0.001554
   87  H 27  S   -0.005834  -0.000093   0.000001  -0.001458  -0.001171

                      6          7          8          9         10
                  -11.0985   -11.0681   -11.0652   -11.0634   -11.0254
                     A          A          A          A          A   
    1  N  1  S    0.000477   0.000009   0.000000  -0.000000  -0.000000
    2  N  1  S   -0.004859   0.000212  -0.000000   0.000004   0.000002
    3  N  1  X   -0.003586   0.000013  -0.000000   0.000003   0.000000
    4  N  1  Y    0.000529  -0.000087  -0.000001  -0.000000  -0.000000
    5  N  1  Z    0.000682  -0.000031   0.000000  -0.000002  -0.000001
    6  C  2  S    0.992079   0.006031   0.000018  -0.000124   0.000017
    7  C  2  S    0.035817  -0.005286  -0.000005   0.000010  -0.000011
    8  C  2  X    0.000102  -0.001528  -0.000002   0.000029   0.000000
    9  C  2  Y   -0.000182  -0.003261  -0.000004  -0.000005   0.000006
   10  C  2  Z    0.000032   0.002099   0.000001   0.000014   0.000007
   11  C  3  S    0.004166   0.000615  -0.000006   0.000111   0.000000
   12  C  3  S   -0.005394  -0.000067   0.000003  -0.000048  -0.000000
   13  C  3  X    0.001911  -0.000111   0.000004  -0.000060   0.000000
   14  C  3  Y   -0.000374  -0.000091   0.000001  -0.000012  -0.000000
   15  C  3  Z    0.003677   0.000030  -0.000002   0.000029   0.000000
   16  O  4  S   -0.000021  -0.000012  -0.000000   0.000001   0.000000
   17  O  4  S    0.000189   0.000073  -0.000001   0.000014  -0.000000
   18  O  4  X   -0.000089  -0.000036   0.000002  -0.000036   0.000000
   19  O  4  Y   -0.000010   0.000042   0.000000  -0.000003   0.000000
   20  O  4  Z   -0.000220  -0.000033  -0.000001   0.000014   0.000000
   21  C  5  S   -0.005022   0.991943   0.001508   0.001683  -0.000018
   22  C  5  S   -0.005611   0.037349  -0.000042   0.000304   0.000005
   23  C  5  X    0.001594  -0.000169  -0.000058   0.000048   0.000007
   24  C  5  Y    0.003206   0.000391   0.000018   0.000049  -0.000004
   25  C  5  Z   -0.002082  -0.000173   0.000032  -0.000021  -0.000005
   26  H  6  S    0.000034  -0.007020  -0.000003  -0.000194   0.000002
   27  H  7  S    0.000041  -0.007015  -0.000011  -0.000062  -0.000002
   28  C  8  S   -0.000408  -0.001891  -0.001286   0.006769  -0.000261
   29  C  8  S   -0.000016  -0.005902   0.000566  -0.007307  -0.000105
   30  C  8  X   -0.000077   0.004152   0.000028  -0.003495  -0.000012
   31  C  8  Y    0.000076  -0.000538   0.000090  -0.001697   0.000031
   32  C  8  Z   -0.000033  -0.001153   0.000123  -0.002159   0.000046
   33  C  9  S    0.000124  -0.001576  -0.055466   0.990732   0.000019
   34  C  9  S    0.000051   0.000116  -0.002257   0.035295  -0.000011
   35  C  9  X   -0.000041  -0.000119  -0.000031  -0.000373  -0.000001
   36  C  9  Y   -0.000030   0.000082   0.000360  -0.000985   0.000009
   37  C  9  Z    0.000002   0.000086   0.000504  -0.001501   0.000014
   38  N 10  S    0.000000   0.000003   0.000374   0.000433  -0.000021
   39  N 10  S    0.000001  -0.000001  -0.005311  -0.006045   0.000272
   40  N 10  X    0.000001   0.000032   0.000542   0.003083   0.000091
   41  N 10  Y    0.000001   0.000002   0.002144  -0.000973  -0.000080
   42  N 10  Z    0.000001   0.000009   0.002975  -0.001669  -0.000112
   43  H 11  S    0.000000  -0.000009  -0.000258  -0.000262  -0.000087
   44  C 12  S   -0.000002  -0.001588   0.990654   0.055666  -0.001873
   45  C 12  S    0.000002  -0.000100   0.035639   0.001789  -0.006966
   46  C 12  X   -0.000001   0.000039  -0.001069   0.000221  -0.002370
   47  C 12  Y   -0.000001  -0.000025   0.000097  -0.000234   0.001977
   48  C 12  Z   -0.000002  -0.000031   0.000100  -0.000377   0.002980
   49  C 13  S    0.000068  -0.000122   0.003171  -0.001062  -0.004872
   50  C 13  S    0.000053   0.000162  -0.007043  -0.000358   0.002089
   51  C 13  X   -0.000035  -0.000096  -0.004449  -0.000512  -0.000469
   52  C 13  Y    0.000000   0.000009  -0.000172  -0.000178  -0.000638
   53  C 13  Z    0.000042  -0.000017   0.000086  -0.000222  -0.000885
   54  C 14  S    0.000052  -0.000070  -0.000604  -0.000179  -0.278698
   55  C 14  S    0.000002  -0.000031   0.000262  -0.000119  -0.010248
   56  C 14  X   -0.000001   0.000001  -0.000023  -0.000020  -0.000491
   57  C 14  Y   -0.000009  -0.000016   0.000039  -0.000055  -0.000008
   58  C 14  Z    0.000038  -0.000052   0.000059  -0.000077   0.000023
   59  H 15  S    0.000062   0.000008  -0.000085  -0.000004   0.001863
   60  C 16  S   -0.000002  -0.000012  -0.000832  -0.000047  -0.006985
   61  C 16  S    0.000005  -0.000014  -0.000125  -0.000013   0.001053
   62  C 16  X   -0.000001   0.000009  -0.000091   0.000001  -0.001292
   63  C 16  Y    0.000006  -0.000007  -0.000132  -0.000008   0.000506
   64  C 16  Z   -0.000000  -0.000004  -0.000180  -0.000011   0.000808
   65  H 17  S   -0.000001   0.000001  -0.000067  -0.000002  -0.000049
   66  C 18  S    0.000000   0.000002  -0.000894  -0.000036   0.146781
   67  C 18  S   -0.000000  -0.000001   0.000142   0.000007  -0.001724
   68  C 18  X    0.000000  -0.000001   0.000114   0.000002  -0.002011
   69  C 18  Y   -0.000000   0.000001  -0.000043  -0.000001  -0.002178
   70  C 18  Z    0.000000   0.000001  -0.000069  -0.000002  -0.002961
   71  H 19  S    0.000000   0.000000  -0.000104  -0.000005  -0.000897
   72  C 20  S    0.000001  -0.000009   0.002755   0.000090   0.940854
   73  C 20  S   -0.000000   0.000001  -0.006598  -0.000505   0.033832
   74  C 20  X   -0.000000  -0.000001   0.002372   0.000182  -0.001150
   75  C 20  Y    0.000000  -0.000000  -0.001948  -0.000157   0.000197
   76  C 20  Z   -0.000000  -0.000001  -0.002923  -0.000231   0.000370
   77  H 21  S    0.000000   0.000001   0.000007   0.000002  -0.006427
   78  H 22  S    0.000005  -0.000055   0.000231  -0.006573  -0.000002
   79  H 23  S   -0.000387  -0.000129  -0.000000   0.000002  -0.000002
   80  H 24  S   -0.006937  -0.000002  -0.000003  -0.000005   0.000016
   81  H 25  S   -0.000398  -0.000097  -0.000000  -0.000000  -0.000001
   82  O 26  S   -0.000028  -0.000008  -0.000000   0.000000  -0.000000
   83  O 26  S    0.000352   0.000032   0.000000  -0.000004   0.000000
   84  O 26  X   -0.000143   0.000031  -0.000000   0.000006  -0.000000
   85  O 26  Y    0.000012   0.000021  -0.000000   0.000007  -0.000000
   86  O 26  Z   -0.000136  -0.000048  -0.000000   0.000001  -0.000000
   87  H 27  S   -0.000498   0.000049  -0.000000   0.000003  -0.000000

                     11         12         13         14         15
                  -11.0253   -11.0239   -11.0160   -11.0149   -11.0115
                     A          A          A          A          A   
    1  N  1  S    0.000001   0.000000   0.000001  -0.000000   0.000016
    2  N  1  S   -0.000008  -0.000000  -0.000008  -0.000000  -0.000112
    3  N  1  X   -0.000001   0.000000  -0.000000   0.000000  -0.000091
    4  N  1  Y    0.000000  -0.000000   0.000003   0.000000  -0.000012
    5  N  1  Z    0.000004   0.000000   0.000001  -0.000000   0.000020
    6  C  2  S   -0.000060  -0.000001  -0.000089  -0.000000   0.000507
    7  C  2  S    0.000036  -0.000000   0.000077   0.000003   0.000071
    8  C  2  X    0.000000   0.000000   0.000010   0.000001  -0.000271
    9  C  2  Y   -0.000022   0.000000  -0.000047  -0.000001   0.000000
   10  C  2  Z   -0.000025  -0.000000  -0.000018   0.000001   0.000032
   11  C  3  S   -0.000001  -0.000000  -0.000007  -0.000000   0.000209
   12  C  3  S    0.000001   0.000000  -0.000001  -0.000000  -0.000102
   13  C  3  X   -0.000001  -0.000000   0.000009   0.000001  -0.000178
   14  C  3  Y    0.000001  -0.000000  -0.000004  -0.000000  -0.000003
   15  C  3  Z   -0.000001  -0.000000  -0.000002  -0.000000   0.000106
   16  O  4  S   -0.000000   0.000000  -0.000000  -0.000000  -0.000003
   17  O  4  S    0.000000  -0.000000  -0.000001  -0.000000   0.000061
   18  O  4  X   -0.000000  -0.000000   0.000003   0.000000  -0.000063
   19  O  4  Y   -0.000000  -0.000000  -0.000000  -0.000000   0.000017
   20  O  4  Z   -0.000000   0.000000  -0.000003  -0.000000   0.000021
   21  C  5  S    0.000077  -0.000000   0.000102   0.000012   0.002837
   22  C  5  S   -0.000025   0.000000   0.000268   0.000023  -0.005338
   23  C  5  X   -0.000033   0.000000   0.000052   0.000008  -0.003916
   24  C  5  Y    0.000009  -0.000001   0.000006   0.000006   0.000427
   25  C  5  Z    0.000013  -0.000001  -0.000099  -0.000002   0.000992
   26  H  6  S   -0.000005   0.000000  -0.000060  -0.000005  -0.000059
   27  H  7  S    0.000008   0.000002  -0.000170  -0.000017  -0.000133
   28  C  8  S    0.000061  -0.000099  -0.005219  -0.001645   0.992066
   29  C  8  S    0.000105  -0.000018  -0.006571  -0.000338   0.036468
   30  C  8  X   -0.000092  -0.000001  -0.001291  -0.000033   0.002438
   31  C  8  Y   -0.000030   0.000008   0.002288   0.000107   0.000230
   32  C  8  Z   -0.000036   0.000011   0.003362   0.000155   0.000261
   33  C  9  S    0.000184  -0.000027   0.001399   0.000052  -0.006205
   34  C  9  S   -0.000044   0.000000   0.000196   0.000014  -0.008291
   35  C  9  X    0.000001  -0.000004  -0.000130  -0.000005   0.003869
   36  C  9  Y    0.000030  -0.000005   0.000104  -0.000001   0.001723
   37  C  9  Z    0.000042  -0.000006   0.000156  -0.000001   0.002179
   38  N 10  S    0.000004   0.000013   0.000022   0.000007   0.000021
   39  N 10  S   -0.000012  -0.000133   0.000286  -0.000055   0.000309
   40  N 10  X    0.000068  -0.000026   0.000093   0.000011   0.000004
   41  N 10  Y    0.000016   0.000054  -0.000057   0.000025   0.000078
   42  N 10  Z    0.000018   0.000075  -0.000071   0.000034   0.000127
   43  H 11  S   -0.000034   0.000004  -0.000079  -0.000003  -0.000080
   44  C 12  S    0.000121   0.001282  -0.002331   0.000806   0.000984
   45  C 12  S   -0.001864   0.001357  -0.007579  -0.000370   0.000170
   46  C 12  X   -0.000723   0.000498   0.004635   0.000230   0.000023
   47  C 12  Y    0.000650  -0.000259   0.000357   0.000160  -0.000114
   48  C 12  Z    0.000977  -0.000405   0.000180   0.000212  -0.000167
   49  C 13  S    0.009045  -0.004408   0.991497   0.031152   0.006187
   50  C 13  S   -0.006395  -0.000398   0.036881   0.001552  -0.006380
   51  C 13  X    0.001874  -0.000085   0.001515  -0.000101   0.001549
   52  C 13  Y    0.002288   0.000142   0.000042  -0.000040  -0.002345
   53  C 13  Z    0.003154   0.000208  -0.000096  -0.000053  -0.003462
   54  C 14  S    0.951835   0.014189  -0.008502  -0.020950  -0.000226
   55  C 14  S    0.034930   0.000758  -0.006952  -0.008463   0.000129
   56  C 14  X    0.001140   0.000040  -0.001924  -0.002731  -0.000168
   57  C 14  Y   -0.000041   0.000005  -0.002341   0.001978   0.000048
   58  C 14  Z   -0.000136   0.000003  -0.003218   0.003004   0.000083
   59  H 15  S   -0.006575  -0.000170   0.000093   0.000252  -0.000130
   60  C 16  S    0.020098   0.010605  -0.031263   0.991366   0.001487
   61  C 16  S   -0.006559  -0.006642  -0.000897   0.036873   0.000038
   62  C 16  X    0.002287  -0.004345  -0.000142   0.000212  -0.000021
   63  C 16  Y   -0.002029  -0.000381  -0.000018   0.000720  -0.000014
   64  C 16  Z   -0.003047  -0.000256  -0.000018   0.001015  -0.000020
   65  H 17  S   -0.000061   0.000023   0.000122  -0.006888  -0.000018
   66  C 18  S    0.028252   0.980785   0.005174  -0.009032   0.000153
   67  C 18  S   -0.000963   0.037205   0.000277  -0.007368  -0.000002
   68  C 18  X   -0.000542   0.000063  -0.000049   0.004469   0.000016
   69  C 18  Y   -0.000695   0.001006  -0.000114   0.000184  -0.000009
   70  C 18  Z   -0.000952   0.001412  -0.000161  -0.000031  -0.000014
   71  H 19  S   -0.000252  -0.006805  -0.000097   0.000148  -0.000009
   72  C 20  S    0.277814  -0.148052   0.001358   0.002669   0.000243
   73  C 20  S    0.010050  -0.012875   0.000356   0.000463  -0.000096
   74  C 20  X   -0.000210   0.002404  -0.000085  -0.000062   0.000072
   75  C 20  Y    0.000034   0.002358   0.000050  -0.000051  -0.000022
   76  C 20  Z    0.000067   0.003187   0.000077  -0.000067  -0.000036
   77  H 21  S   -0.001955   0.001128  -0.000070  -0.000096  -0.000009
   78  H 22  S   -0.000010   0.000003  -0.000117  -0.000003   0.000199
   79  H 23  S    0.000007   0.000000   0.000010   0.000001  -0.000019
   80  H 24  S   -0.000054   0.000001  -0.000158  -0.000006  -0.000189
   81  H 25  S    0.000002  -0.000000   0.000005   0.000000  -0.000004
   82  O 26  S    0.000000   0.000000  -0.000000  -0.000000   0.000003
   83  O 26  S   -0.000000  -0.000000   0.000002   0.000000  -0.000029
   84  O 26  X    0.000000   0.000000   0.000001   0.000000   0.000003
   85  O 26  Y    0.000000   0.000000  -0.000001  -0.000000   0.000023
   86  O 26  Z   -0.000000  -0.000000  -0.000002  -0.000000   0.000015
   87  H 27  S    0.000001   0.000000   0.000001   0.000000  -0.000004

                     16         17         18         19         20
                   -1.3477    -1.2578    -1.2200    -1.1538    -1.0745
                     A          A          A          A          A   
    1  N  1  S   -0.014864  -0.016168  -0.003936  -0.192010   0.005905
    2  N  1  S    0.045341   0.051429   0.012857   0.642899  -0.020390
    3  N  1  X    0.009871   0.006467   0.001667   0.038007   0.000937
    4  N  1  Y   -0.004064  -0.003044  -0.001005  -0.059445   0.002163
    5  N  1  Z   -0.000556  -0.000056  -0.001803  -0.080578   0.002039
    6  C  2  S   -0.026647  -0.004843  -0.005311  -0.113262  -0.001364
    7  C  2  S    0.065574   0.008453   0.013398   0.295156   0.003841
    8  C  2  X    0.007828  -0.012239   0.000599  -0.080461   0.005237
    9  C  2  Y   -0.000604   0.005299   0.002727   0.018050   0.001670
   10  C  2  Z    0.026938   0.000803  -0.001989   0.007469  -0.003201
   11  C  3  S   -0.134606   0.033474   0.001078  -0.006477  -0.000247
   12  C  3  S    0.316154  -0.071208  -0.002429   0.016220   0.000689
   13  C  3  X    0.048074  -0.170404  -0.003405  -0.022651  -0.000355
   14  C  3  Y   -0.015480   0.115830   0.002258  -0.001902   0.000506
   15  C  3  Z    0.059778   0.045798  -0.002775  -0.057640  -0.000610
   16  O  4  S   -0.144966   0.163653   0.003895   0.010335   0.000472
   17  O  4  S    0.498667  -0.575285  -0.013718  -0.036577  -0.001815
   18  O  4  X   -0.109493   0.094624   0.002767   0.003736   0.000002
   19  O  4  Y    0.064432  -0.052165  -0.000942  -0.004544  -0.000055
   20  O  4  Z   -0.013351   0.025968  -0.000493  -0.007776  -0.000185
   21  C  5  S   -0.006145  -0.001044  -0.012878  -0.047196  -0.008370
   22  C  5  S    0.014434   0.002735   0.034891   0.122489   0.022921
   23  C  5  X   -0.001553  -0.002154   0.012529  -0.019791   0.004318
   24  C  5  Y   -0.004349  -0.000107  -0.002502  -0.025565  -0.002463
   25  C  5  Z    0.004138   0.001150  -0.003013   0.017364  -0.003955
   26  H  6  S    0.002763   0.000981   0.005518   0.024090   0.003284
   27  H  7  S    0.001601   0.000507   0.005243   0.025188   0.006459
   28  C  8  S   -0.002114   0.001432  -0.059386  -0.012587  -0.012113
   29  C  8  S    0.004874  -0.003588   0.137265   0.030577   0.034101
   30  C  8  X   -0.001031  -0.000770   0.051447  -0.014194  -0.010107
   31  C  8  Y   -0.000369   0.000599   0.001660   0.000057  -0.021737
   32  C  8  Z    0.001417  -0.000942  -0.001302   0.004443  -0.029917
   33  C  9  S   -0.001187   0.001704  -0.097167   0.000547   0.038226
   34  C  9  S    0.002974  -0.004209   0.224720  -0.000366  -0.097945
   35  C  9  X   -0.000807   0.000233   0.043015  -0.009459  -0.041105
   36  C  9  Y   -0.001024   0.001334  -0.039097  -0.000249   0.006702
   37  C  9  Z    0.000225   0.000000  -0.060923   0.001114   0.013486
   38  N 10  S   -0.000580   0.001778  -0.178031   0.011363   0.070159
   39  N 10  S    0.001747  -0.005624   0.575738  -0.037879  -0.239636
   40  N 10  X   -0.000382   0.000808  -0.061294   0.000969   0.006042
   41  N 10  Y   -0.000038   0.000205  -0.024221   0.001741  -0.020802
   42  N 10  Z    0.000045   0.000022  -0.014968   0.001414  -0.037176
   43  H 11  S    0.000208  -0.000811   0.090030  -0.007226  -0.057168
   44  C 12  S   -0.000332   0.001002  -0.103971   0.005664  -0.058937
   45  C 12  S    0.000695  -0.002250   0.240490  -0.013664   0.154581
   46  C 12  X   -0.000143   0.000198  -0.010113  -0.002156  -0.031506
   47  C 12  Y    0.000121  -0.000418   0.044038  -0.002978  -0.055633
   48  C 12  Z    0.000193  -0.000620   0.061987  -0.003920  -0.076976
   49  C 13  S   -0.000539   0.000803  -0.061724  -0.001809  -0.085955
   50  C 13  S    0.001246  -0.001826   0.142775   0.005023   0.218933
   51  C 13  X   -0.000070  -0.000279   0.039158  -0.004963   0.013196
   52  C 13  Y    0.000176  -0.000162   0.017252   0.001256  -0.032078
   53  C 13  Z    0.000533  -0.000529   0.021241   0.002764  -0.047325
   54  C 14  S   -0.000122   0.000192  -0.018029  -0.001111  -0.108176
   55  C 14  S    0.000320  -0.000480   0.045332   0.002978   0.274830
   56  C 14  X    0.000044  -0.000127   0.012336  -0.000387   0.062741
   57  C 14  Y    0.000070  -0.000095   0.007889   0.000625  -0.002793
   58  C 14  Z    0.000115  -0.000148   0.010459   0.001103  -0.008155
   59  H 15  S    0.000029  -0.000065   0.006218   0.000979   0.051475
   60  C 16  S   -0.000029   0.000086  -0.010426   0.000068  -0.113296
   61  C 16  S    0.000065  -0.000202   0.024716  -0.000148   0.285820
   62  C 16  X   -0.000008  -0.000005   0.001908  -0.000511   0.025121
   63  C 16  Y    0.000017  -0.000045   0.004702   0.000044   0.034202
   64  C 16  Z    0.000024  -0.000059   0.006573   0.000127   0.047002
   65  H 17  S    0.000007  -0.000023   0.003053  -0.000002   0.052959
   66  C 18  S   -0.000021   0.000094  -0.012609   0.000760  -0.111658
   67  C 18  S    0.000048  -0.000220   0.029992  -0.001866   0.282627
   68  C 18  X   -0.000004   0.000005  -0.000437  -0.000276  -0.034159
   69  C 18  Y    0.000011  -0.000047   0.006222  -0.000442   0.028936
   70  C 18  Z    0.000015  -0.000068   0.008822  -0.000612   0.043086
   71  H 19  S    0.000005  -0.000026   0.003805  -0.000286   0.052329
   72  C 20  S   -0.000058   0.000241  -0.029683   0.002109  -0.097315
   73  C 20  S    0.000150  -0.000617   0.075701  -0.005414   0.245285
   74  C 20  X   -0.000052   0.000183  -0.020974   0.001177  -0.059397
   75  C 20  Y    0.000032  -0.000120   0.013522  -0.000930  -0.016832
   76  C 20  Z    0.000053  -0.000189   0.020672  -0.001392  -0.020047
   77  H 21  S    0.000017  -0.000086   0.011494  -0.001009   0.044354
   78  H 22  S    0.000746  -0.000898   0.034382   0.000057  -0.022020
   79  H 23  S    0.004946   0.006577   0.002270   0.125788  -0.004515
   80  H 24  S    0.008423  -0.001222   0.002738   0.053726   0.002202
   81  H 25  S    0.005883   0.007658   0.002071   0.124809  -0.004951
   82  O 26  S   -0.150375  -0.165880   0.000470   0.041604  -0.000322
   83  O 26  S    0.531214   0.601123  -0.001738  -0.156775   0.001278
   84  O 26  X   -0.004546  -0.043972  -0.000461  -0.000754   0.000212
   85  O 26  Y   -0.028419  -0.002597   0.000426   0.001980   0.000049
   86  O 26  Z   -0.094022  -0.080355  -0.000056   0.005671  -0.000082
   87  H 27  S    0.081226   0.113369   0.000117  -0.014229  -0.000292

                     21         22         23         24         25
                   -1.0255    -0.9593    -0.9368    -0.9133    -0.8376
                     A          A          A          A          A   
    1  N  1  S    0.060826   0.057919   0.020956  -0.045847   0.039006
    2  N  1  S   -0.214051  -0.209226  -0.076381   0.168681  -0.147357
    3  N  1  X    0.028683   0.059955   0.026932  -0.072306   0.128732
    4  N  1  Y    0.025855   0.026720   0.009399  -0.017383  -0.030881
    5  N  1  Z    0.019526   0.018031   0.006988  -0.016704   0.053876
    6  C  2  S   -0.041883  -0.074108  -0.031065   0.078902  -0.117009
    7  C  2  S    0.118473   0.216453   0.091812  -0.236271   0.366757
    8  C  2  X    0.066239   0.066978   0.023592  -0.049050   0.039351
    9  C  2  Y    0.036159   0.034670   0.009862  -0.005976  -0.117286
   10  C  2  Z   -0.032755  -0.022846  -0.004806   0.004646   0.110803
   11  C  3  S   -0.008489  -0.021288  -0.010005   0.028129  -0.077293
   12  C  3  S    0.025256   0.063275   0.030054  -0.084554   0.243105
   13  C  3  X   -0.014269  -0.030755  -0.014374   0.040846  -0.110862
   14  C  3  Y    0.014578   0.017960   0.007466  -0.013134   0.017027
   15  C  3  Z   -0.028859  -0.055395  -0.024712   0.063297  -0.145974
   16  O  4  S    0.012465   0.017085   0.007346  -0.017633   0.043553
   17  O  4  S   -0.047307  -0.066696  -0.028885   0.070383  -0.179285
   18  O  4  X    0.003743  -0.002119  -0.001487   0.009387  -0.039074
   19  O  4  Y    0.001649   0.002077   0.001132  -0.000427   0.004918
   20  O  4  Z   -0.008481  -0.014845  -0.006847   0.017264  -0.053421
   21  C  5  S   -0.123799  -0.102099  -0.029507   0.038575   0.117786
   22  C  5  S    0.344313   0.288463   0.083291  -0.109159  -0.353749
   23  C  5  X    0.046280  -0.023245  -0.019285   0.066549   0.000222
   24  C  5  Y   -0.013973  -0.018366  -0.006334   0.036253  -0.090584
   25  C  5  Z   -0.006885   0.025757   0.016583  -0.025517   0.068096
   26  H  6  S    0.078960   0.079785   0.026991  -0.025438  -0.130664
   27  H  7  S    0.078477   0.073336   0.021654  -0.038969  -0.153456
   28  C  8  S   -0.138997   0.014013   0.031683  -0.085810   0.006768
   29  C  8  S    0.359819  -0.040078  -0.083648   0.231264  -0.021239
   30  C  8  X   -0.003059  -0.085982  -0.033836   0.103811   0.139386
   31  C  8  Y    0.003754   0.024576   0.033484   0.054369  -0.013841
   32  C  8  Z    0.010728   0.050244   0.054064   0.059036   0.000294
   33  C  9  S   -0.060169   0.020088  -0.039946  -0.124270  -0.052727
   34  C  9  S    0.159961  -0.050528   0.115258   0.346897   0.148644
   35  C  9  X   -0.102151   0.008719   0.074575  -0.079580  -0.008398
   36  C  9  Y   -0.023616   0.012503   0.015378  -0.015484  -0.017518
   37  C  9  Z   -0.025860   0.019955   0.016691  -0.021755  -0.014852
   38  N 10  S    0.067133  -0.017041  -0.066432   0.043265   0.027109
   39  N 10  S   -0.238180   0.064846   0.241637  -0.159445  -0.104204
   40  N 10  X   -0.057978   0.049479   0.037479  -0.106368  -0.111862
   41  N 10  Y    0.019832  -0.011184   0.073827   0.059273   0.015079
   42  N 10  Z    0.024876  -0.016472   0.112152   0.084871   0.025335
   43  H 11  S   -0.073476   0.033685   0.101301  -0.072570  -0.080980
   44  C 12  S    0.039117  -0.023143   0.114563   0.060757   0.004635
   45  C 12  S   -0.104029   0.063919  -0.316245  -0.173507  -0.016318
   46  C 12  X   -0.075254   0.112405   0.047260   0.006817  -0.064671
   47  C 12  Y   -0.004813  -0.024971   0.038766  -0.026674  -0.006364
   48  C 12  Z   -0.000976  -0.043040   0.052840  -0.038144  -0.002548
   49  C 13  S   -0.066106   0.088813   0.084456   0.044231  -0.016433
   50  C 13  S    0.172244  -0.233847  -0.229012  -0.122905   0.042043
   51  C 13  X   -0.042566   0.025168  -0.089592  -0.017342   0.037833
   52  C 13  Y    0.029941   0.018878  -0.039254   0.056057   0.013386
   53  C 13  Z    0.046217   0.027854  -0.048154   0.079073   0.024526
   54  C 14  S   -0.024656   0.102936  -0.069696   0.072876   0.018898
   55  C 14  S    0.067421  -0.277280   0.186908  -0.197754  -0.052606
   56  C 14  X   -0.001001  -0.024867   0.016529  -0.007534   0.012552
   57  C 14  Y    0.021140  -0.014215  -0.067963  -0.017971   0.002416
   58  C 14  Z    0.030577  -0.018086  -0.097876  -0.026056   0.005543
   59  H 15  S    0.019509  -0.072924   0.055851  -0.060736  -0.027201
   60  C 16  S    0.014839   0.031198  -0.135066  -0.012540   0.001329
   61  C 16  S   -0.038161  -0.082005   0.363784   0.035760  -0.003782
   62  C 16  X   -0.028452   0.080129  -0.006027   0.087317   0.025794
   63  C 16  Y    0.002394  -0.024931   0.012771  -0.022752  -0.005331
   64  C 16  Z    0.005342  -0.040777   0.018524  -0.038410  -0.008694
   65  H 17  S   -0.008017  -0.021751   0.106040   0.012022  -0.002387
   66  C 18  S    0.045450  -0.079634  -0.051656  -0.096237  -0.017306
   67  C 18  S   -0.117954   0.212467   0.141908   0.262646   0.048465
   68  C 18  X   -0.006975   0.055299  -0.096189   0.018711  -0.000697
   69  C 18  Y   -0.015668   0.033091  -0.035086   0.009641  -0.002435
   70  C 18  Z   -0.021655   0.043092  -0.043636   0.012148  -0.003348
   71  H 19  S   -0.025746   0.057617   0.041997   0.082906   0.018787
   72  C 20  S    0.059515  -0.111794   0.071839  -0.044527   0.007157
   73  C 20  S   -0.154573   0.298208  -0.194784   0.121153  -0.019757
   74  C 20  X    0.020930  -0.020934   0.022591  -0.003689  -0.010153
   75  C 20  Y   -0.000235  -0.015762  -0.046252  -0.059151  -0.018128
   76  C 20  Z   -0.001682  -0.021035  -0.067037  -0.083989  -0.024682
   77  H 21  S   -0.036906   0.083235  -0.053270   0.034420  -0.014138
   78  H 22  S    0.033847  -0.006718   0.045917   0.102301   0.043143
   79  H 23  S   -0.052349  -0.061240  -0.024365   0.059909  -0.110969
   80  H 24  S    0.030404   0.054545   0.024237  -0.070953   0.137844
   81  H 25  S   -0.060535  -0.072157  -0.028052   0.065111  -0.050932
   82  O 26  S    0.002908   0.010346   0.004918  -0.013068   0.033735
   83  O 26  S   -0.011081  -0.041376  -0.019891   0.053392  -0.142785
   84  O 26  X    0.004140   0.007660   0.003458  -0.008812   0.022645
   85  O 26  Y    0.001605  -0.001018  -0.000983   0.005626  -0.031710
   86  O 26  Z   -0.004110  -0.012289  -0.006317   0.018261  -0.063740
   87  H 27  S   -0.007927  -0.014612  -0.006412   0.016736  -0.038713

                     26         27         28         29         30
                   -0.7831    -0.7494    -0.7106    -0.6926    -0.6692
                     A          A          A          A          A   
    1  N  1  S    0.000046   0.001616  -0.008177  -0.018650  -0.003853
    2  N  1  S   -0.000124  -0.006881   0.031974   0.076138   0.015914
    3  N  1  X    0.003437  -0.001346  -0.053473  -0.082026  -0.036327
    4  N  1  Y   -0.008359  -0.012579  -0.079893   0.006557  -0.097267
    5  N  1  Z    0.007524  -0.002756   0.048060   0.024385   0.090546
    6  C  2  S   -0.003423  -0.004730   0.013425   0.055495   0.002794
    7  C  2  S    0.011066   0.015160  -0.043942  -0.182036  -0.011470
    8  C  2  X    0.001937  -0.000146   0.035496   0.040982   0.036923
    9  C  2  Y   -0.016623  -0.031027  -0.088793   0.092051  -0.086086
   10  C  2  Z    0.016997  -0.021342   0.070452   0.194173   0.040064
   11  C  3  S   -0.007174   0.004297  -0.037112  -0.130736   0.019648
   12  C  3  S    0.023657  -0.015053   0.126154   0.454821  -0.072032
   13  C  3  X   -0.008768   0.000803  -0.035191  -0.079735  -0.003489
   14  C  3  Y    0.002918  -0.012046  -0.000609   0.105826  -0.042343
   15  C  3  Z   -0.011343   0.003825  -0.014998   0.102056  -0.106974
   16  O  4  S    0.004345  -0.001760   0.022114   0.071617  -0.012429
   17  O  4  S   -0.018257   0.007298  -0.099056  -0.324808   0.058639
   18  O  4  X   -0.003534  -0.000915  -0.044914  -0.147127   0.029692
   19  O  4  Y    0.002706  -0.006713   0.015415   0.119711  -0.041189
   20  O  4  Z   -0.005677   0.001130  -0.015700   0.048690  -0.065026
   21  C  5  S    0.014997   0.011270   0.030962  -0.018820   0.010878
   22  C  5  S   -0.047375  -0.035282  -0.096652   0.061156  -0.035692
   23  C  5  X    0.017388   0.006883   0.177276   0.037764   0.159415
   24  C  5  Y   -0.000048  -0.044126  -0.031569   0.113002  -0.010830
   25  C  5  Z    0.010441  -0.053312  -0.049919   0.037256  -0.008798
   26  H  6  S   -0.010114  -0.057272  -0.085335   0.101692  -0.032534
   27  H  7  S   -0.024763   0.013110  -0.077159  -0.002812  -0.079397
   28  C  8  S    0.011404  -0.013684  -0.107953   0.004747  -0.047776
   29  C  8  S   -0.025033   0.050263   0.328894  -0.012414   0.160694
   30  C  8  X   -0.004398  -0.047145  -0.026681  -0.037714  -0.089322
   31  C  8  Y    0.043040  -0.099637  -0.018121   0.026782   0.008646
   32  C  8  Z    0.064297  -0.135000  -0.015128   0.011353   0.038041
   33  C  9  S   -0.079376   0.054547   0.057867   0.004860   0.006830
   34  C  9  S    0.245928  -0.164558  -0.184522  -0.014012  -0.017967
   35  C  9  X    0.025223   0.088076  -0.170195  -0.000587  -0.097169
   36  C  9  Y    0.067827  -0.015638  -0.078258   0.032903   0.073405
   37  C  9  Z    0.095134  -0.025250  -0.092157   0.034944   0.128948
   38  N 10  S    0.004158  -0.038097  -0.012171  -0.003073   0.003599
   39  N 10  S   -0.011448   0.146005   0.046933   0.012965  -0.012970
   40  N 10  X    0.058202   0.128935   0.171371   0.067152   0.337165
   41  N 10  Y    0.107008   0.079231  -0.086326   0.022592   0.053816
   42  N 10  Z    0.152741   0.119965  -0.123846   0.026174   0.085818
   43  H 11  S    0.067379   0.156197   0.088056   0.055306   0.244182
   44  C 12  S    0.041322   0.088337   0.020134  -0.003810  -0.014178
   45  C 12  S   -0.120908  -0.265878  -0.060883   0.012521   0.044943
   46  C 12  X    0.116277  -0.091886   0.188072  -0.037571   0.016520
   47  C 12  Y   -0.092464   0.022130   0.051120  -0.017066  -0.101846
   48  C 12  Z   -0.137036   0.041614   0.062095  -0.025919  -0.133479
   49  C 13  S    0.016619  -0.087470   0.036075  -0.017415  -0.026684
   50  C 13  S   -0.045313   0.260179  -0.100452   0.053156   0.088591
   51  C 13  X   -0.117936  -0.141777  -0.146631   0.022711   0.009557
   52  C 13  Y   -0.089028  -0.005893   0.081176  -0.021462  -0.025185
   53  C 13  Z   -0.117424   0.003345   0.130072  -0.044939  -0.025843
   54  C 14  S   -0.098292  -0.007896  -0.016021   0.007791   0.047610
   55  C 14  S    0.283644   0.028500   0.053512  -0.025711  -0.152715
   56  C 14  X   -0.053316  -0.030349  -0.119103   0.054765   0.156671
   57  C 14  Y    0.026440   0.121866  -0.054179   0.029817   0.032634
   58  C 14  Z    0.041760   0.177225  -0.068300   0.033126   0.040407
   59  H 15  S    0.136803   0.020375   0.100779  -0.051989  -0.176519
   60  C 16  S    0.070345   0.082326  -0.028375   0.007254  -0.025792
   61  C 16  S   -0.205605  -0.240655   0.089602  -0.023373   0.077668
   62  C 16  X   -0.121988   0.122657  -0.097657   0.049508   0.107694
   63  C 16  Y    0.060861   0.005899  -0.041799   0.014815   0.005709
   64  C 16  Z    0.095107   0.000725  -0.052904   0.016119   0.002501
   65  H 17  S   -0.104686  -0.128699   0.100656  -0.036165  -0.000525
   66  C 18  S    0.058312  -0.093073   0.020389  -0.009216   0.013049
   67  C 18  S   -0.171984   0.275514  -0.057363   0.026960  -0.043376
   68  C 18  X    0.126055   0.119632   0.036774  -0.027847  -0.164863
   69  C 18  Y    0.078782  -0.013636  -0.018930   0.001304   0.012063
   70  C 18  Z    0.103984  -0.027275  -0.029226   0.003062   0.029729
   71  H 19  S   -0.088486   0.161044   0.006124   0.000317  -0.095499
   72  C 20  S   -0.100040   0.015864  -0.036876   0.017741   0.022056
   73  C 20  S    0.286415  -0.049241   0.116855  -0.056988  -0.075443
   74  C 20  X    0.050116   0.023807   0.136839  -0.053408  -0.138618
   75  C 20  Y    0.015281  -0.122152   0.030356  -0.004070   0.056132
   76  C 20  Z    0.018710  -0.174158   0.034394  -0.003362   0.093017
   77  H 21  S    0.139826  -0.010890   0.137625  -0.058398  -0.119780
   78  H 22  S    0.157696  -0.083595  -0.158062   0.025927   0.088357
   79  H 23  S   -0.008146  -0.004242  -0.031242   0.039305  -0.075310
   80  H 24  S    0.008529   0.033077   0.014265  -0.193383   0.036167
   81  H 25  S    0.004693   0.005699   0.084823   0.049697   0.096892
   82  O 26  S    0.003060  -0.003184   0.011466   0.045429  -0.002472
   83  O 26  S   -0.013291   0.014180  -0.051093  -0.204993   0.010877
   84  O 26  X    0.003271  -0.006325   0.039849   0.295885  -0.137705
   85  O 26  Y   -0.003703  -0.000490  -0.042930  -0.182379   0.064053
   86  O 26  Z   -0.007298   0.008899  -0.036788  -0.170176   0.022038
   87  H 27  S   -0.003866   0.003276  -0.038991  -0.239713   0.109466

                     31         32         33         34         35
                   -0.6484    -0.6169    -0.6023    -0.5984    -0.5808
                     A          A          A          A          A   
    1  N  1  S   -0.020560  -0.010144   0.000839  -0.003086  -0.004472
    2  N  1  S    0.094497   0.048145  -0.004772   0.017722   0.029116
    3  N  1  X    0.047304   0.124377  -0.017725   0.100268   0.400451
    4  N  1  Y    0.035419   0.392991   0.050249  -0.084662  -0.092446
    5  N  1  Z    0.214877  -0.187062  -0.058128   0.131449   0.100549
    6  C  2  S    0.028508  -0.018311  -0.004902   0.008413  -0.030241
    7  C  2  S   -0.096239   0.070903   0.016519  -0.027216   0.120246
    8  C  2  X    0.012540  -0.040809   0.019288  -0.093160  -0.338065
    9  C  2  Y    0.144596   0.227276   0.002047   0.009886   0.039835
   10  C  2  Z    0.279280   0.023307  -0.029406   0.081143   0.010970
   11  C  3  S   -0.002342   0.003963   0.004321  -0.006980   0.045310
   12  C  3  S   -0.001024  -0.013641  -0.014470   0.024407  -0.152340
   13  C  3  X   -0.060708   0.018264   0.026025  -0.067820  -0.107161
   14  C  3  Y   -0.001441   0.084635   0.018996  -0.024812   0.029074
   15  C  3  Z   -0.256401  -0.027112  -0.002461   0.017788   0.230001
   16  O  4  S   -0.022069  -0.010809   0.000920  -0.006493  -0.044824
   17  O  4  S    0.110021   0.053563  -0.004828   0.033688   0.221739
   18  O  4  X    0.060362   0.057203   0.010776  -0.002096   0.135218
   19  O  4  Y   -0.056739   0.025583   0.017188  -0.037340  -0.083916
   20  O  4  Z   -0.137620  -0.001825  -0.005517   0.029246   0.243818
[...]
   19             0.010337   0.006320   0.052914   0.000062   0.000003
   20             0.071551   0.196277   0.149549   0.000218   0.010162
   21             0.017364   0.014891   0.113883   0.000234   0.000002
   22             0.004905   0.001420   0.010869   0.000024   0.000015
   23             0.000547   0.000032   0.000429   0.008322   0.000124
   24             0.063531   0.000103   0.003251   0.089240   0.001851
   25             0.005480   0.002669   0.004039   0.024451   0.000454
   26             0.334623   0.001364   0.013198   0.179413   0.962452
   27             0.071446  -0.000000   0.001683   0.000721   0.000273

                     51         52         53         54

                  2.000000   2.000000   2.000000   2.000000

    1             0.027551   0.125546   0.000104   0.002014
    2             0.051731   0.251798   0.000243   0.027049
    3             0.008028   0.065648   0.000145   0.000677
    4             0.151933   1.001376   0.000424   0.003232
    5             0.011750   0.020573   0.000177   0.004306
    6             0.006710   0.002148   0.000004   0.002704
    7             0.004312   0.021811   0.000095   0.009625
    8             0.340865   0.022141   0.003001   0.468113
    9             0.101896   0.010127   0.180836   0.301788
   10             0.155835   0.007399   0.192009   0.274642
   11             0.000079   0.000002   0.000127   0.000187
   12             0.096396   0.008477   0.445593   0.032659
   13             0.264545   0.034240   0.402258   0.027516
   14             0.246161   0.041184   0.028618   0.309529
   15             0.000000   0.000004   0.000001   0.000000
   16             0.022053   0.004904   0.490595   0.043787
   17             0.000005   0.000002   0.000000   0.000000
   18             0.135601   0.021490   0.176581   0.223269
   19             0.000005   0.000001   0.000001   0.000001
   20             0.316318   0.048379   0.079022   0.266579
   21             0.000005   0.000002   0.000000   0.000003
   22             0.000025   0.000001   0.000001   0.000006
   23             0.001432   0.019566   0.000004   0.000228
   24             0.008778   0.024675   0.000011   0.000103
   25             0.003977   0.000872   0.000001   0.000939
   26             0.043911   0.267417   0.000149   0.001045
   27             0.000097   0.000220   0.000001  -0.000000

               ----- POPULATIONS IN EACH AO -----
                             MULLIKEN      LOWDIN
              1  N  1  S      1.99547     1.99204
              2  N  1  S      1.59145     1.39974
              3  N  1  X      1.04124     1.06928
              4  N  1  Y      1.28829     1.30476
              5  N  1  Z      1.48889     1.49901
              6  C  2  S      1.99230     1.98468
              7  C  2  S      1.18165     1.06417
              8  C  2  X      0.84220     0.89193
              9  C  2  Y      0.99671     1.02129
             10  C  2  Z      0.96790     1.00517
             11  C  3  S      1.99389     1.98596
             12  C  3  S      1.10329     1.07485
             13  C  3  X      0.85975     0.91395
             14  C  3  Y      0.86824     0.89409
             15  C  3  Z      0.87591     0.91912
             16  O  4  S      1.99807     1.99722
             17  O  4  S      1.86592     1.75331
             18  O  4  X      1.27629     1.31657
             19  O  4  Y      1.27999     1.29378
             20  O  4  Z      1.84050     1.84327
             21  C  5  S      1.99204     1.98505
             22  C  5  S      1.18051     1.02698
             23  C  5  X      0.97474     1.00903
             24  C  5  Y      0.96602     0.99783
             25  C  5  Z      0.99269     1.01926
             26  H  6  S      0.93336     0.96707
             27  H  7  S      0.93921     0.97128
             28  C  8  S      1.99261     1.98604
             29  C  8  S      1.11138     1.02360
             30  C  8  X      0.91126     0.96493
             31  C  8  Y      1.04058     1.06032
             32  C  8  Z      0.97982     1.01789
             33  C  9  S      1.99294     1.98643
             34  C  9  S      1.11337     1.02317
             35  C  9  X      0.85906     0.92682
             36  C  9  Y      1.01656     1.02952
             37  C  9  Z      0.97469     1.00043
             38  N 10  S      1.99472     1.99043
             39  N 10  S      1.43682     1.24319
             40  N 10  X      1.09511     1.10429
             41  N 10  Y      1.50894     1.51099
             42  N 10  Z      1.28597     1.29799
             43  H 11  S      0.78370     0.85159
             44  C 12  S      1.99279     1.98609
             45  C 12  S      1.08857     1.01365
             46  C 12  X      0.96645     1.01277
             47  C 12  Y      0.94948     0.97440
             48  C 12  Z      0.89701     0.94137
             49  C 13  S      1.99264     1.98635
             50  C 13  S      1.11176     1.02080
             51  C 13  X      0.92973     0.98834
             52  C 13  Y      1.01300     1.02839
             53  C 13  Z      0.97654     1.00754
             54  C 14  S      1.99274     1.98670
             55  C 14  S      1.13155     1.01786
             56  C 14  X      0.97792     1.01047
             57  C 14  Y      0.98880     1.00687
             58  C 14  Z      0.97388     1.01056
             59  H 15  S      0.94476     0.97461
             60  C 16  S      1.99271     1.98662
             61  C 16  S      1.12630     1.01540
             62  C 16  X      0.94984     1.00163
             63  C 16  Y      1.01461     1.02719
             64  C 16  Z      0.99171     1.01838
             65  H 17  S      0.94300     0.97363
             66  C 18  S      1.99275     1.98669
             67  C 18  S      1.13136     1.01831
             68  C 18  X      0.96272     1.00924
             69  C 18  Y      0.99120     1.00558
             70  C 18  Z      0.98132     1.00843
             71  H 19  S      0.93924     0.97078
             72  C 20  S      1.99266     1.98657
             73  C 20  S      1.12228     1.01205
             74  C 20  X      0.97256     1.00622
             75  C 20  Y      1.01681     1.03619
             76  C 20  Z      0.97830     1.01809
             77  H 21  S      0.93842     0.96931
             78  H 22  S      0.92269     0.95780
             79  H 23  S      0.83674     0.89248
             80  H 24  S      0.93400     0.97193
             81  H 25  S      0.83889     0.89422
             82  O 26  S      1.99765     1.99591
             83  O 26  S      1.82812     1.69483
             84  O 26  X      1.30397     1.32054
             85  O 26  Y      1.68529     1.69176
             86  O 26  Z      1.49722     1.51598
             87  H 27  S      0.76598     0.82912

          ----- MULLIKEN ATOMIC OVERLAP POPULATIONS -----
          (OFF-DIAGONAL ELEMENTS NEED TO BE MULTIPLIED BY 2)

             1           2           3           4           5

    1    6.4824137
    2    0.3167840   4.7801280
    3   -0.0243801   0.3362838   4.7592805
    4    0.0001120  -0.0224582   0.4385541   7.8623135
    5   -0.0196672   0.3502216  -0.0191489  -0.0002055   4.7186769
    6   -0.0007702  -0.0229940  -0.0025033   0.0000203   0.3828171
    7   -0.0022561  -0.0228331   0.0010797  -0.0000054   0.3817529
    8    0.0003875  -0.0210671  -0.0011929  -0.0000483   0.3805309
    9   -0.0000007  -0.0002713  -0.0000457  -0.0000339  -0.0232251
   10    0.0000000   0.0000004  -0.0000002  -0.0000001   0.0005923
   11   -0.0000000   0.0000002   0.0000000  -0.0000001  -0.0000187
   12    0.0000000  -0.0000006   0.0000000   0.0000003   0.0008347
   13   -0.0000004  -0.0004258   0.0000047  -0.0000012  -0.0196044
   14    0.0000000  -0.0000224   0.0000008   0.0000000  -0.0009104
   15    0.0000014  -0.0000701   0.0000001   0.0000000   0.0001213
   16   -0.0000000   0.0000004  -0.0000000   0.0000000  -0.0000005
   17   -0.0000000   0.0000000   0.0000000  -0.0000000   0.0000000
   18    0.0000000  -0.0000000  -0.0000000  -0.0000000  -0.0000002
   19   -0.0000000   0.0000000  -0.0000000   0.0000000   0.0000000
   20   -0.0000000  -0.0000000   0.0000000   0.0000000  -0.0000043
   21    0.0000000  -0.0000000  -0.0000000   0.0000000   0.0000001
   22   -0.0000003   0.0000238  -0.0000075  -0.0000121  -0.0014853
   23    0.3337392  -0.0298148   0.0017191  -0.0000075  -0.0046302
   24   -0.0183504   0.3788703  -0.0233820  -0.0004219  -0.0223939
   25    0.3320990  -0.0298539   0.0001976  -0.0000013   0.0017005
   26   -0.0069230  -0.0224951   0.2802872  -0.0185997   0.0000043
   27    0.0121612  -0.0092347  -0.0456652   0.0015628   0.0000417

             6           7           8           9          10

    6    0.6205599
    7   -0.0227060   0.6290731
    8   -0.0208013  -0.0223058   4.8383280
    9   -0.0036164   0.0010057   0.5744126   4.7521357
   10    0.0000100  -0.0000109  -0.0485122   0.4031050   6.3003199
   11   -0.0000009   0.0000005   0.0019138  -0.0264106   0.3542287
   12   -0.0000210   0.0000147  -0.0490116  -0.0612090   0.4012468
   13    0.0010153  -0.0025017   0.4444122  -0.0543953  -0.0503844
   14    0.0000015   0.0000415  -0.0187916   0.0009200   0.0008104
   15   -0.0000074   0.0000122  -0.0019274  -0.0000000  -0.0000137
   16    0.0000001  -0.0000022   0.0006999  -0.0000116   0.0000284
   17   -0.0000000   0.0000004  -0.0000134   0.0000002   0.0000003
   18    0.0000000  -0.0000001   0.0000406  -0.0000125   0.0005016
   19   -0.0000000  -0.0000000   0.0000005   0.0000003  -0.0000082
   20    0.0000001  -0.0000004   0.0010448   0.0011378  -0.0192642
   21   -0.0000000   0.0000000  -0.0000247  -0.0000015  -0.0014775
   22    0.0003113   0.0000039  -0.0205103   0.3931181  -0.0196137
   23    0.0000218   0.0006468   0.0000222  -0.0000002   0.0000000
   24    0.0017762  -0.0018264  -0.0019120   0.0000076  -0.0000005
   25    0.0000052   0.0000588  -0.0000255   0.0000000  -0.0000000
   26    0.0001192  -0.0000088   0.0000061   0.0000001   0.0000000
   27    0.0001228  -0.0000209   0.0000016   0.0000001   0.0000000

            11          12          13          14          15

   11    0.4803907
   12   -0.0262069   4.7337316
   13    0.0020933   0.5048120   4.8035128
   14   -0.0000287  -0.0296590   0.4855654   4.7659747
   15    0.0000007   0.0014152  -0.0252457   0.3930019   0.6058978
   16   -0.0000004  -0.0127277  -0.0319657   0.5324874  -0.0257271
   17   -0.0000000   0.0000566   0.0014720  -0.0265746  -0.0040435
   18   -0.0000111  -0.0332773  -0.0114357  -0.0303450   0.0014207
   19   -0.0000001   0.0015233   0.0000439   0.0013797  -0.0000321
   20   -0.0010585   0.4861397  -0.0263307  -0.0089202   0.0000071
   21    0.0005037  -0.0250874   0.0012228   0.0000115   0.0000021
   22   -0.0016959   0.0017269   0.0016131  -0.0000145  -0.0000003
   23   -0.0000000   0.0000000   0.0000002  -0.0000001  -0.0000001
   24    0.0000000  -0.0000066   0.0001840  -0.0000357  -0.0000549
   25    0.0000000  -0.0000000   0.0000001   0.0000001  -0.0000003
   26   -0.0000000   0.0000000  -0.0000000  -0.0000000  -0.0000000
   27    0.0000000   0.0000000  -0.0000000  -0.0000000  -0.0000000

            16          17          18          19          20

   16    4.7831582
   17    0.3956319   0.6047588
   18    0.4879085  -0.0259293   4.7674914
   19   -0.0254545  -0.0037001   0.3949296   0.6011925
   20   -0.0302088   0.0013756   0.5321426  -0.0266949   4.7793388
   21    0.0013594  -0.0000305  -0.0240662  -0.0039376   0.3939130
   22    0.0000002  -0.0000000   0.0000003  -0.0000000  -0.0000164
   23   -0.0000000  -0.0000000   0.0000000   0.0000000   0.0000000
   24    0.0000005   0.0000000   0.0000000  -0.0000000   0.0000001
   25    0.0000000   0.0000000  -0.0000000  -0.0000000   0.0000000
   26    0.0000000   0.0000000  -0.0000000   0.0000000  -0.0000000
   27    0.0000000   0.0000000   0.0000000   0.0000000  -0.0000000

            21          22          23          24          25

   21    0.5960291
   22   -0.0000004   0.5692447
   23    0.0000000  -0.0000000   0.5702207
   24   -0.0000000   0.0000009  -0.0000179   0.6256425
   25   -0.0000000   0.0000000  -0.0349140  -0.0047990   0.5753312
   26    0.0000000  -0.0000008   0.0001010   0.0003877   0.0001760
   27    0.0000000  -0.0000000  -0.0003490   0.0003345  -0.0010853

            26          27

   26    7.8193034
   27    0.2598808   0.5482247

          TOTAL MULLIKEN AND LOWDIN ATOMIC POPULATIONS
       ATOM         MULL.POP.    CHARGE          LOW.POP.     CHARGE
    1 N             7.405350   -0.405350         7.264840   -0.264840
    2 C             5.980772    0.019228         5.967245    0.032755
    3 C             5.701082    0.298918         5.787979    0.212021
    4 O             8.260768   -0.260768         8.204165   -0.204165
    5 C             6.106000   -0.106000         6.038159   -0.038159
    6 H             0.933361    0.066639         0.967065    0.032935
    7 H             0.939213    0.060787         0.971279    0.028721
    8 C             6.035657   -0.035657         6.052782   -0.052782
    9 C             5.956609    0.043391         5.966359    0.033641
   10 N             7.321558   -0.321558         7.146889   -0.146889
   11 H             0.783700    0.216300         0.851590    0.148410
   12 C             5.894295    0.105705         5.928283    0.071717
   13 C             6.023661   -0.023661         6.031416   -0.031416
   14 C             6.064893   -0.064893         6.032463   -0.032463
   15 H             0.944758    0.055242         0.974610    0.025390
   16 C             6.075176   -0.075176         6.049217   -0.049217
   17 H             0.943004    0.056996         0.973631    0.026369
   18 C             6.059358   -0.059358         6.028246   -0.028246
   19 H             0.939242    0.060758         0.970779    0.029221
   20 C             6.082601   -0.082601         6.059119   -0.059119
   21 H             0.938416    0.061584         0.969312    0.030688
   22 H             0.922686    0.077314         0.957802    0.042198
   23 H             0.836737    0.163263         0.892485    0.107515
   24 H             0.934003    0.065997         0.971935    0.028065
   25 H             0.838889    0.161111         0.894221    0.105779
   26 O             8.312238   -0.312238         8.219012   -0.219012
   27 H             0.765975    0.234025         0.829118    0.170882

          -------------------------------
          BOND ORDER AND VALENCE ANALYSIS     BOND ORDER THRESHOLD=0.050
          -------------------------------

                   BOND                       BOND                       BOND
  ATOM PAIR DIST  ORDER      ATOM PAIR DIST  ORDER      ATOM PAIR DIST  ORDER
    1   2  1.491  0.968        1  23  1.031  0.944        1  25  1.032  0.949
    2   3  1.567  0.908        2   5  1.559  0.966        2  24  1.094  0.960
    3   4  1.216  1.927        3  26  1.385  1.030        4  26  2.272  0.144
    5   6  1.089  0.973        5   7  1.090  0.969        5   8  1.517  1.000
    8   9  1.345  1.685        8  10  2.249  0.077        8  13  1.456  1.137
    9  10  1.399  1.104        9  12  2.267  0.060        9  22  1.082  0.970
   10  11  1.019  0.914       10  12  1.396  1.092       12  13  1.400  1.339
   12  16  2.749  0.086       12  20  1.403  1.305       13  14  1.405  1.308
   13  18  2.782  0.089       14  15  1.083  0.971       14  16  1.371  1.538
   14  20  2.828  0.109       16  17  1.082  0.972       16  18  1.410  1.329
   18  19  1.083  0.972       18  20  1.370  1.535       20  21  1.082  0.971
   26  27  0.991  0.883

                       TOTAL       BONDED        FREE
      ATOM            VALENCE     VALENCE     VALENCE
    1 N                 2.964       2.964      -0.000
    2 C                 3.936       3.936      -0.000
    3 C                 3.909       3.909       0.000
    4 O                 2.157       2.157       0.000
    5 C                 3.963       3.963      -0.000
    6 H                 0.996       0.996       0.000
    7 H                 0.996       0.996      -0.000
    8 C                 3.964       3.964      -0.000
    9 C                 3.929       3.929       0.000
   10 N                 3.305       3.305       0.000
   11 H                 0.953       0.953       0.000
   12 C                 3.940       3.940       0.000
   13 C                 3.977       3.977       0.000
   14 C                 3.980       3.980      -0.000
   15 H                 0.997       0.997       0.000
   16 C                 3.978       3.978      -0.000
   17 H                 0.997       0.997       0.000
   18 C                 3.979       3.979      -0.000
   19 H                 0.996       0.996       0.000
   20 C                 3.976       3.976      -0.000
   21 H                 0.996       0.996      -0.000
   22 H                 0.994       0.994      -0.000
   23 H                 0.973       0.973      -0.000
   24 H                 0.996       0.996       0.000
   25 H                 0.974       0.974       0.000
   26 O                 2.125       2.125      -0.000
   27 H                 0.945       0.945      -0.000

          ---------------------
          ELECTROSTATIC MOMENTS
          ---------------------

 POINT   1           X           Y           Z (BOHR)    CHARGE
                 6.317789    0.497269   -2.037318        0.00 (A.U.)
         DX          DY          DZ         /D/  (DEBYE)
    -1.207507    0.954752   -2.231578    2.711008
 ...... END OF PROPERTY EVALUATION ......
 CPU     0: STEP CPU TIME=     0.03 TOTAL CPU TIME=        3.5 (    0.1 MIN)
 TOTAL WALL CLOCK TIME=        5.2 SECONDS, CPU UTILIZATION IS  67.18%

          ---------------------
          ELECTROSTATIC MOMENTS
          ---------------------

 POINT   1           X           Y           Z (BOHR)    CHARGE
                 6.317789    0.497269   -2.037318        0.00 (A.U.)
         DX          DY          DZ         /D/  (DEBYE)
    -1.207507    0.954752   -2.231578    2.711008

     ------------------------------------------
     TIME-DEPENDENT HARTREE-FOCK NLO PROPERTIES
     ------------------------------------------

 ......................................................................
 ALPHA AT    0.00000 A.U.
 ......................................................................

      ALPHA XX =       95.1154      UA CONV. TO 4.11E-06 IN  16 ITER.
      ALPHA YX =       -2.2776
      ALPHA ZX =       -3.7757
      ALPHA YY =       49.9963      UA CONV. TO 4.78E-06 IN  16 ITER.
      ALPHA XY =       -2.2776
      ALPHA ZY =       30.4190
      ALPHA ZZ =       77.2608      UA CONV. TO 2.93E-06 IN  16 ITER.
      ALPHA XZ =       -3.7757
      ALPHA YZ =       30.4190

  ISOTROPIC AVERAGE ALPHA =       74.1242 A.U.

 ....DONE WITH POLARIZABILITY....
 CPU     0: STEP CPU TIME=    26.21 TOTAL CPU TIME=       29.7 (    0.5 MIN)
 TOTAL WALL CLOCK TIME=       44.8 SECONDS, CPU UTILIZATION IS  66.35%

 AN AIMPAC INPUT FILE IS BEING WRITTEN TO FILE   7

               580000  WORDS OF DYNAMIC MEMORY USED
 EXECUTION OF GAMESS TERMINATED NORMALLY Mon Aug 14 21:05:09 2017
 DDI: 263640 bytes (0.3 MB / 0 MWords) used by master data server.

 ----------------------------------------
 CPU timing information for all processes
 ========================================
 0: 29.564 + 0.200 = 29.764
 1: 30.652 + 0.144 = 30.796
 2: 29.852 + 0.144 = 29.996
 3: 30.640 + 0.124 = 30.764
 ----------------------------------------
 ddikick.x: exited gracefully.
----- accounting info -----
Files used on the master node firzens were:
-rw-rw-r-- 1 sagar sagar    1893 Aug 14 21:04 /scr/sagar/Trp_polar_tdhf.F05
-rw-rw-r-- 1 sagar sagar 2028640 Aug 14 21:05 /scr/sagar/Trp_polar_tdhf.F10
-rw-rw-r-- 1 sagar sagar 2097152 Aug 14 21:05 /scr/sagar/Trp_polar_tdhf.F20
Mon Aug 14 21:05:12 IST 2017
0.112u 0.004s 0:48.01 0.2%	0+0k 0+16io 0pf+0w
