Jobname.Temp
FREQ      R                             STO-3G              
Number of atoms                            I               20
Charge                                     I                0
Multiplicity                               I                1
Number of electrons                        I               70
Number of alpha electrons                  I               35
Number of beta electrons                   I               35
Atomic numbers                             I   N=          20
           6           6           6           6           6           6
           1           1           1           1           6           6
           1           1           6           6           1           1
           1           1
Current cartesian coordinates              R   N=          60
  2.67034820E+00  4.59510511E-01  1.65914892E-16 -2.67034820E+00 -4.59510511E-01
 -1.65914892E-16  9.12897190E-01  2.49242890E+00  1.21763979E-15 -9.12897190E-01
 -2.49242890E+00 -1.21763979E-15 -1.69953387E+00  2.04612953E+00  1.05693646E-15
  1.69953387E+00 -2.04612953E+00 -1.05693646E-15  1.62151337E+00  4.44403987E+00
  2.17121593E-15 -1.62151337E+00 -4.44403987E+00 -2.17121593E-15 -3.01531497E+00
  3.64808984E+00  1.88408854E-15  3.01531497E+00 -3.64808984E+00 -1.88408854E-15
 -5.44183577E+00 -1.03455530E+00 -3.86895344E-16  5.44183577E+00  1.03455530E+00
  3.86895344E-16 -5.90659769E+00 -3.06254630E+00 -1.38414930E-15  5.90659769E+00
  3.06254630E+00  1.38414930E-15 -7.33852123E+00  6.55230446E-01  4.97514447E-16
  7.33852123E+00 -6.55230446E-01 -4.97514447E-16 -7.00692309E+00  2.69960494E+00
  1.50603013E-15  7.00692309E+00 -2.69960494E+00 -1.50603013E-15 -9.32029844E+00
  4.90851051E-02  2.42586678E-16  9.32029844E+00 -4.90851051E-02 -2.42586678E-16
Nuclear charges                            R   N=          20
  6.00000000E+00  6.00000000E+00  6.00000000E+00  6.00000000E+00  6.00000000E+00
  6.00000000E+00  1.00000000E+00  1.00000000E+00  1.00000000E+00  1.00000000E+00
  6.00000000E+00  6.00000000E+00  1.00000000E+00  1.00000000E+00  6.00000000E+00
  6.00000000E+00  1.00000000E+00  1.00000000E+00  1.00000000E+00  1.00000000E+00
Number of basis functions                  I               60
Number of contracted shells                I               30
Number of primitive shells                 I               90
Highest angular momentum                   I                1
Largest degree of contraction              I                3
Shell types                                I   N=          30
           0          -1           0          -1           0          -1
           0          -1           0          -1           0          -1
           0           0           0           0           0          -1
           0          -1           0           0           0          -1
           0          -1           0           0           0           0
Number of primitives per shell             I   N=          30
           3           3           3           3           3           3
           3           3           3           3           3           3
           3           3           3           3           3           3
           3           3           3           3           3           3
           3           3           3           3           3           3
Shell to atom map                          I   N=          30
           1           1           2           2           3           3
           4           4           5           5           6           6
           7           8           9          10          11          11
          12          12          13          14          15          15
          16          16          17          18          19          20
Primitive exponents                        R   N=          90
  7.16168370E+01  1.30450960E+01  3.53051220E+00  2.94124940E+00  6.83483100E-01
  2.22289900E-01  7.16168370E+01  1.30450960E+01  3.53051220E+00  2.94124940E+00
  6.83483100E-01  2.22289900E-01  7.16168370E+01  1.30450960E+01  3.53051220E+00
  2.94124940E+00  6.83483100E-01  2.22289900E-01  7.16168370E+01  1.30450960E+01
  3.53051220E+00  2.94124940E+00  6.83483100E-01  2.22289900E-01  7.16168370E+01
  1.30450960E+01  3.53051220E+00  2.94124940E+00  6.83483100E-01  2.22289900E-01
  7.16168370E+01  1.30450960E+01  3.53051220E+00  2.94124940E+00  6.83483100E-01
  2.22289900E-01  3.42525091E+00  6.23913730E-01  1.68855400E-01  3.42525091E+00
  6.23913730E-01  1.68855400E-01  3.42525091E+00  6.23913730E-01  1.68855400E-01
  3.42525091E+00  6.23913730E-01  1.68855400E-01  7.16168370E+01  1.30450960E+01
  3.53051220E+00  2.94124940E+00  6.83483100E-01  2.22289900E-01  7.16168370E+01
  1.30450960E+01  3.53051220E+00  2.94124940E+00  6.83483100E-01  2.22289900E-01
  3.42525091E+00  6.23913730E-01  1.68855400E-01  3.42525091E+00  6.23913730E-01
  1.68855400E-01  7.16168370E+01  1.30450960E+01  3.53051220E+00  2.94124940E+00
  6.83483100E-01  2.22289900E-01  7.16168370E+01  1.30450960E+01  3.53051220E+00
  2.94124940E+00  6.83483100E-01  2.22289900E-01  3.42525091E+00  6.23913730E-01
  1.68855400E-01  3.42525091E+00  6.23913730E-01  1.68855400E-01  3.42525091E+00
  6.23913730E-01  1.68855400E-01  3.42525091E+00  6.23913730E-01  1.68855400E-01
Contraction coefficients                   R   N=          90
  1.54328970E-01  5.35328140E-01  4.44634540E-01 -9.99672301E-02  3.99512830E-01
  7.00115471E-01  1.54328970E-01  5.35328140E-01  4.44634540E-01 -9.99672301E-02
  3.99512830E-01  7.00115471E-01  1.54328970E-01  5.35328140E-01  4.44634540E-01
 -9.99672301E-02  3.99512830E-01  7.00115471E-01  1.54328970E-01  5.35328140E-01
  4.44634540E-01 -9.99672301E-02  3.99512830E-01  7.00115471E-01  1.54328970E-01
  5.35328140E-01  4.44634540E-01 -9.99672301E-02  3.99512830E-01  7.00115471E-01
  1.54328970E-01  5.35328140E-01  4.44634540E-01 -9.99672301E-02  3.99512830E-01
  7.00115471E-01  1.54328971E-01  5.35328142E-01  4.44634542E-01  1.54328971E-01
  5.35328142E-01  4.44634542E-01  1.54328971E-01  5.35328142E-01  4.44634542E-01
  1.54328971E-01  5.35328142E-01  4.44634542E-01  1.54328970E-01  5.35328140E-01
  4.44634540E-01 -9.99672301E-02  3.99512830E-01  7.00115471E-01  1.54328970E-01
  5.35328140E-01  4.44634540E-01 -9.99672301E-02  3.99512830E-01  7.00115471E-01
  1.54328971E-01  5.35328142E-01  4.44634542E-01  1.54328971E-01  5.35328142E-01
  4.44634542E-01  1.54328970E-01  5.35328140E-01  4.44634540E-01 -9.99672301E-02
  3.99512830E-01  7.00115471E-01  1.54328970E-01  5.35328140E-01  4.44634540E-01
 -9.99672301E-02  3.99512830E-01  7.00115471E-01  1.54328971E-01  5.35328142E-01
  4.44634542E-01  1.54328971E-01  5.35328142E-01  4.44634542E-01  1.54328971E-01
  5.35328142E-01  4.44634542E-01  1.54328971E-01  5.35328142E-01  4.44634542E-01
P(S=P) Contraction coefficients            R   N=          90
  0.00000000E+00  0.00000000E+00  0.00000000E+00  1.55916272E-01  6.07683728E-01
  3.91957395E-01  0.00000000E+00  0.00000000E+00  0.00000000E+00  1.55916272E-01
  6.07683728E-01  3.91957395E-01  0.00000000E+00  0.00000000E+00  0.00000000E+00
  1.55916272E-01  6.07683728E-01  3.91957395E-01  0.00000000E+00  0.00000000E+00
  0.00000000E+00  1.55916272E-01  6.07683728E-01  3.91957395E-01  0.00000000E+00
  0.00000000E+00  0.00000000E+00  1.55916272E-01  6.07683728E-01  3.91957395E-01
  0.00000000E+00  0.00000000E+00  0.00000000E+00  1.55916272E-01  6.07683728E-01
  3.91957395E-01  0.00000000E+00  0.00000000E+00  0.00000000E+00  0.00000000E+00
  0.00000000E+00  0.00000000E+00  0.00000000E+00  0.00000000E+00  0.00000000E+00
  0.00000000E+00  0.00000000E+00  0.00000000E+00  0.00000000E+00  0.00000000E+00
  0.00000000E+00  1.55916272E-01  6.07683728E-01  3.91957395E-01  0.00000000E+00
  0.00000000E+00  0.00000000E+00  1.55916272E-01  6.07683728E-01  3.91957395E-01
  0.00000000E+00  0.00000000E+00  0.00000000E+00  0.00000000E+00  0.00000000E+00
  0.00000000E+00  0.00000000E+00  0.00000000E+00  0.00000000E+00  1.55916272E-01
  6.07683728E-01  3.91957395E-01  0.00000000E+00  0.00000000E+00  0.00000000E+00
  1.55916272E-01  6.07683728E-01  3.91957395E-01  0.00000000E+00  0.00000000E+00
  0.00000000E+00  0.00000000E+00  0.00000000E+00  0.00000000E+00  0.00000000E+00
  0.00000000E+00  0.00000000E+00  0.00000000E+00  0.00000000E+00  0.00000000E+00
Coordinates of each shell                  R   N=          90
  2.67034820E+00  4.59510511E-01  1.65914892E-16  2.67034820E+00  4.59510511E-01
  1.65914892E-16 -2.67034820E+00 -4.59510511E-01 -1.65914892E-16 -2.67034820E+00
 -4.59510511E-01 -1.65914892E-16  9.12897190E-01  2.49242890E+00  1.21763979E-15
  9.12897190E-01  2.49242890E+00  1.21763979E-15 -9.12897190E-01 -2.49242890E+00
 -1.21763979E-15 -9.12897190E-01 -2.49242890E+00 -1.21763979E-15 -1.69953387E+00
  2.04612953E+00  1.05693646E-15 -1.69953387E+00  2.04612953E+00  1.05693646E-15
  1.69953387E+00 -2.04612953E+00 -1.05693646E-15  1.69953387E+00 -2.04612953E+00
 -1.05693646E-15  1.62151337E+00  4.44403987E+00  2.17121593E-15 -1.62151337E+00
 -4.44403987E+00 -2.17121593E-15 -3.01531497E+00  3.64808984E+00  1.88408854E-15
  3.01531497E+00 -3.64808984E+00 -1.88408854E-15 -5.44183577E+00 -1.03455530E+00
 -3.86895344E-16 -5.44183577E+00 -1.03455530E+00 -3.86895344E-16  5.44183577E+00
  1.03455530E+00  3.86895344E-16  5.44183577E+00  1.03455530E+00  3.86895344E-16
 -5.90659769E+00 -3.06254630E+00 -1.38414930E-15  5.90659769E+00  3.06254630E+00
  1.38414930E-15 -7.33852123E+00  6.55230446E-01  4.97514447E-16 -7.33852123E+00
  6.55230446E-01  4.97514447E-16  7.33852123E+00 -6.55230446E-01 -4.97514447E-16
  7.33852123E+00 -6.55230446E-01 -4.97514447E-16 -7.00692309E+00  2.69960494E+00
  1.50603013E-15  7.00692309E+00 -2.69960494E+00 -1.50603013E-15 -9.32029844E+00
  4.90851051E-02  2.42586678E-16  9.32029844E+00 -4.90851051E-02 -2.42586678E-16
Overlap Matrix                             R   N=        1830
  1.00000000E+00  2.48362390E-01  1.00000000E+00 -6.93381563E-18  5.47747084E-17
  1.00000000E+00  2.37881912E-17 -9.08856080E-17  3.56180687E-33  1.00000000E+00
 -9.62979446E-33 -3.36410549E-32  0.00000000E+00  3.00466199E-48  1.00000000E+00
  6.04744194E-24  3.02758412E-04 -8.13551986E-04 -1.39995109E-04 -5.05478609E-20
  1.00000000E+00  3.02758412E-04  2.18695333E-02 -3.52171599E-02 -6.06012920E-03
 -2.18812335E-18  2.48362390E-01  1.00000000E+00  8.13551986E-04  3.52171599E-02
 -5.25886593E-02 -1.04807165E-02 -3.78425935E-18  6.93381563E-18 -5.47747084E-17
  1.00000000E+00  1.39995109E-04  6.06012920E-03 -1.04807165E-02  6.51429947E-03
 -6.51191086E-19 -2.37881912E-17  9.08856080E-17  3.56180687E-33  1.00000000E+00
  5.05478609E-20  2.18812335E-18 -3.78425935E-18 -6.51191086E-19  8.31780936E-03
  9.62979446E-33  3.36410549E-32  0.00000000E+00  3.00466199E-48  1.00000000E+00
  5.75846721E-07  3.55711633E-02 -3.85945060E-02  4.46439078E-02  2.30964064E-17
  5.91749655E-18  1.58642306E-03  2.86518263E-03  2.36038691E-03  1.10629789E-18
  1.00000000E+00  3.55711633E-02  3.53710363E-01 -2.48436068E-01  2.87376574E-01
  1.48673503E-16  1.58642306E-03  5.61884479E-02  6.44440809E-02  5.30901464E-02
  2.48830041E-17  2.48362390E-01  1.00000000E+00  3.85945060E-02  2.48436068E-01
 -2.26837639E-02  2.62966588E-01  1.36045061E-16 -2.86518263E-03 -6.44440809E-02
 -5.80579900E-02 -6.70302067E-02 -3.14166191E-17 -1.40191442E-18 -1.06322221E-16
  1.00000000E+00 -4.46439078E-02 -2.87376574E-01  2.62966588E-01 -9.95346908E-02
 -1.57369113E-16 -2.36038691E-03 -5.30901464E-02 -6.70302067E-02 -3.19132489E-02
 -2.58815532E-17 -1.27969659E-17  1.99859001E-17  7.12361375E-33  1.00000000E+00
 -2.30964064E-17 -1.48673503E-16  1.36045061E-16 -1.57369113E-16  2.04649954E-01
 -1.10629789E-18 -2.48830041E-17 -3.14166191E-17 -2.58815532E-17  2.33073925E-02
 -3.07923271E-33 -1.38930157E-31  1.29847160E-47  6.51291322E-47  1.00000000E+00
  5.91749655E-18  1.58642306E-03 -2.86518263E-03 -2.36038691E-03 -1.10629789E-18
  5.75846721E-07  3.55711633E-02  3.85945060E-02 -4.46439078E-02 -2.30964064E-17
  4.90089431E-23  3.89188508E-04 -3.57572693E-04 -9.76259457E-04 -4.76937319E-19
  1.00000000E+00  1.58642306E-03  5.61884479E-02 -6.44440809E-02 -5.30901464E-02
 -2.48830041E-17  3.55711633E-02  3.53710363E-01  2.48436068E-01 -2.87376574E-01
 -1.48673503E-16  3.89188508E-04  2.51918532E-02 -1.39766606E-02 -3.81596453E-02
 -1.86423381E-17  2.48362390E-01  1.00000000E+00  2.86518263E-03  6.44440809E-02
 -5.80579900E-02 -6.70302067E-02 -3.14166191E-17 -3.85945060E-02 -2.48436068E-01
 -2.26837639E-02  2.62966588E-01  1.36045061E-16  3.57572693E-04  1.39766606E-02
  1.33610605E-03 -2.28083474E-02 -1.11426855E-17  1.40191442E-18  1.06322221E-16
  1.00000000E+00  2.36038691E-03  5.30901464E-02 -6.70302067E-02 -3.19132489E-02
 -2.58815532E-17  4.46439078E-02  2.87376574E-01  2.62966588E-01 -9.95346908E-02
 -1.57369113E-16  9.76259457E-04  3.81596453E-02 -2.28083474E-02 -5.25821983E-02
 -3.04222114E-17  1.27969659E-17 -1.99859001E-17  7.12361375E-33  1.00000000E+00
  1.10629789E-18  2.48830041E-17 -3.14166191E-17 -2.58815532E-17  2.33073925E-02
  2.30964064E-17  1.48673503E-16  1.36045061E-16 -1.57369113E-16  2.04649954E-01
  4.76937319E-19  1.86423381E-17 -1.11426855E-17 -3.04222114E-17  9.69007603E-03
  3.07923271E-33  1.38930157E-31  1.29847160E-47  6.51291322E-47  1.00000000E+00
  5.32621975E-18  1.56648107E-03 -3.45015574E-03  1.25268431E-03  7.03488815E-19
  5.76537565E-07  3.55769088E-02  2.13239630E-02  5.50364510E-02  2.68599628E-17
  8.16140979E-07  3.72887279E-02 -6.09456425E-02 -1.04117587E-02 -3.74906271E-18
  1.07138866E-17  1.70373041E-03 -6.75630399E-04  3.89809951E-03  1.95359929E-18
  1.00000000E+00  1.56648107E-03  5.57790223E-02 -7.79764918E-02  2.83117446E-02
  1.58994532E-17  3.55769088E-02  3.53743227E-01  1.37251121E-01  3.54240654E-01
  1.72883436E-16  3.72887279E-02  3.63410795E-01 -3.81471200E-01 -6.51693202E-02
 -2.34661477E-17  1.70373041E-03  5.85562521E-02 -1.47894967E-02  8.53290940E-02
  4.27641360E-17  2.48362390E-01  1.00000000E+00  3.45015574E-03  7.79764918E-02
 -9.68502194E-02  4.35585769E-02  2.44618467E-17 -2.13239630E-02 -1.37251121E-01
  1.35294950E-01 -1.79067471E-01 -8.73920013E-17  6.09456425E-02  3.81471200E-01
 -3.12520418E-01 -8.96201417E-02 -3.22703916E-17  6.75630399E-04  1.47894967E-02
  2.02815689E-02  2.37579524E-02  1.19067045E-17  3.19530795E-17  2.12644442E-16
  1.00000000E+00 -1.25268431E-03 -2.83117446E-02  4.35585769E-02  7.30398080E-03
 -8.88161985E-18 -5.50364510E-02 -3.54240654E-01 -1.79067471E-01 -2.57492349E-01
 -2.25555896E-16  1.04117587E-02  6.51693202E-02 -8.96201417E-02  1.96764217E-01
 -5.51297053E-18 -3.89809951E-03 -8.53290940E-02  2.37579524E-02 -1.12673893E-01
 -6.86966113E-17  5.66738058E-17 -2.47021272E-16 -7.27251897E-32  1.00000000E+00
 -7.03488815E-19 -1.58994532E-17  2.44618467E-17 -8.88161985E-18  2.31192512E-02
 -2.68599628E-17 -1.72883436E-16 -8.73920013E-17 -2.25555896E-16  2.04674935E-01
  3.74906271E-18  2.34661477E-17 -3.22703916E-17 -5.51297053E-18  2.12074635E-01
 -1.95359929E-18 -4.27641360E-17  1.19067045E-17 -6.86966113E-17  2.43993690E-02
 -2.68953854E-32 -1.85055898E-31 -2.59694320E-47  5.19388641E-47  1.00000000E+00
  5.76537565E-07  3.55769088E-02 -2.13239630E-02 -5.50364510E-02 -2.68599628E-17
  5.32621975E-18  1.56648107E-03  3.45015574E-03 -1.25268431E-03 -7.03488815E-19
  1.07138866E-17  1.70373041E-03  6.75630399E-04 -3.89809951E-03 -1.95359929E-18
  8.16140979E-07  3.72887279E-02  6.09456425E-02  1.04117587E-02  3.74906271E-18
  3.97995522E-23  3.79585669E-04  6.49255573E-04 -7.81661977E-04 -4.03770644E-19
  1.00000000E+00  3.55769088E-02  3.53743227E-01 -1.37251121E-01 -3.54240654E-01
 -1.72883436E-16  1.56648107E-03  5.57790223E-02  7.79764918E-02 -2.83117446E-02
 -1.58994532E-17  1.70373041E-03  5.85562521E-02  1.47894967E-02 -8.53290940E-02
 -4.27641360E-17  3.72887279E-02  3.63410795E-01  3.81471200E-01  6.51693202E-02
  2.34661477E-17  3.79585669E-04  2.48392990E-02  2.56358114E-02 -3.08638692E-02
 -1.59428560E-17  2.48362390E-01  1.00000000E+00  2.13239630E-02  1.37251121E-01
  1.35294950E-01 -1.79067471E-01 -8.73920013E-17 -3.45015574E-03 -7.79764918E-02
 -9.68502194E-02  4.35585769E-02  2.44618467E-17 -6.75630399E-04 -1.47894967E-02
  2.02815689E-02  2.37579524E-02  1.19067045E-17 -6.09456425E-02 -3.81471200E-01
 -3.12520418E-01 -8.96201417E-02 -3.22703916E-17 -6.49255573E-04 -2.56358114E-02
 -1.89511718E-02  3.43057571E-02  1.77207771E-17 -3.19530795E-17 -2.12644442E-16
  1.00000000E+00  5.50364510E-02  3.54240654E-01 -1.79067471E-01 -2.57492349E-01
 -2.25555896E-16  1.25268431E-03  2.83117446E-02  4.35585769E-02  7.30398080E-03
 -8.88161985E-18  3.89809951E-03  8.53290940E-02  2.37579524E-02 -1.12673893E-01
 -6.86966113E-17 -1.04117587E-02 -6.51693202E-02 -8.96201417E-02  1.96764217E-01
 -5.51297053E-18  7.81661977E-04  3.08638692E-02  3.43057571E-02 -3.17584232E-02
 -2.13346765E-17 -5.66738058E-17  2.47021272E-16 -7.27251897E-32  1.00000000E+00
  2.68599628E-17  1.72883436E-16 -8.73920013E-17 -2.25555896E-16  2.04674935E-01
  7.03488815E-19  1.58994532E-17  2.44618467E-17 -8.88161985E-18  2.31192512E-02
  1.95359929E-18  4.27641360E-17  1.19067045E-17 -6.86966113E-17  2.43993690E-02
 -3.74906271E-18 -2.34661477E-17 -3.22703916E-17 -5.51297053E-18  2.12074635E-01
  4.03770644E-19  1.59428560E-17  1.77207771E-17 -2.13346765E-17  9.54350321E-03
  2.68953854E-32  1.85055898E-31 -2.59694320E-47  5.19388641E-47  1.00000000E+00
  5.09264186E-03  9.30077220E-02 -3.07210238E-02  1.16709340E-01  5.87365127E-17
  7.98536109E-05  5.90153288E-03  6.48355045E-03  7.40760525E-03  3.53061377E-18
  6.10207531E-02  4.85749403E-01  1.58449928E-01  4.36389443E-01  2.13224134E-16
  1.11946135E-05  1.75462634E-03  1.08704348E-03  2.97514668E-03  1.45352674E-18
  5.26063299E-03  9.52004108E-02  9.98534231E-02  7.20976063E-02  3.35028717E-17
  8.43496379E-05  6.10765113E-03 -1.22176711E-04  1.01633229E-02  5.05514617E-18
  1.00000000E+00  7.98536109E-05  5.90153288E-03 -6.48355045E-03 -7.40760525E-03
 -3.53061377E-18  5.09264186E-03  9.30077220E-02  3.07210238E-02 -1.16709340E-01
 -5.87365127E-17  1.11946135E-05  1.75462634E-03 -1.08704348E-03 -2.97514668E-03
 -1.45352674E-18  6.10207531E-02  4.85749403E-01 -1.58449928E-01 -4.36389443E-01
 -2.13224134E-16  8.43496379E-05  6.10765113E-03  1.22176711E-04 -1.01633229E-02
 -5.05514617E-18  5.26063299E-03  9.52004108E-02 -9.98534231E-02 -7.20976063E-02
 -3.35028717E-17  1.05655005E-04  1.00000000E+00  7.94785513E-05  5.88415450E-03
 -8.56263700E-03  4.80201632E-03  2.58757805E-18  5.08021235E-03  9.28448030E-02
 -1.00844407E-02  1.20077805E-01  5.99279117E-17  5.27184025E-03  9.53460895E-02
 -1.18312002E-01  3.48068165E-02  2.00724611E-17  8.43806082E-05  6.10905722E-03
 -3.29308867E-03  9.61810392E-03  4.85834285E-18  6.12640490E-02  4.86726187E-01
 -2.95047180E-01  3.59219228E-01  1.85478335E-16  1.09851402E-05  1.73452756E-03
 -1.99841139E-03  2.41352231E-03  1.24656761E-18  5.04935476E-02  7.12472705E-04
  1.00000000E+00  5.08021235E-03  9.28448030E-02  1.00844407E-02 -1.20077805E-01
 -5.99279117E-17  7.94785513E-05  5.88415450E-03  8.56263700E-03 -4.80201632E-03
 -2.58757805E-18  8.43806082E-05  6.10905722E-03  3.29308867E-03 -9.61810392E-03
 -4.85834285E-18  5.27184025E-03  9.53460895E-02  1.18312002E-01 -3.48068165E-02
 -2.00724611E-17  1.09851402E-05  1.73452756E-03  1.99841139E-03 -2.41352231E-03
 -1.24656761E-18  6.12640490E-02  4.86726187E-01  2.95047180E-01 -3.59219228E-01
 -1.85478335E-16  7.12472705E-04  5.04935476E-02  1.04866657E-04  1.00000000E+00
  1.36124646E-53  8.49001076E-08 -3.45405845E-07 -6.36153060E-08 -2.35379137E-23
  1.42576545E-07  2.95500705E-02 -4.82614545E-02 -1.00135748E-02 -3.84805552E-18
  6.31401796E-42  2.11522067E-06 -6.74913457E-06 -3.74588377E-06 -1.70411937E-21
  8.74580360E-19  1.26082577E-03 -2.87677372E-03  9.26038714E-04  5.27687392E-19
  1.92060114E-19  1.05092722E-03 -1.98081282E-03 -1.63061671E-03 -7.64224964E-19
  2.59101410E-41  2.50493638E-06 -8.98258522E-06  1.27238221E-06  8.42793707E-22
  1.80872981E-07  1.12513095E-03  8.67553614E-04  2.32772278E-07  1.00000000E+00
  8.49001076E-08  2.59629898E-04 -5.65764782E-04 -1.04200031E-04 -3.85544217E-20
  2.95500705E-02  3.17606221E-01 -3.44647968E-01 -7.15096190E-02 -2.74799948E-17
  2.11522067E-06  1.44484885E-03 -2.52299013E-03 -1.40030217E-03 -6.37041136E-19
  1.26082577E-03  4.92144229E-02 -7.06584007E-02  2.27450682E-02  1.29608898E-17
  1.05092722E-03  4.43248252E-02 -5.22032483E-02 -4.29740197E-02 -2.01407348E-17
  2.50493638E-06  1.58229753E-03 -3.11049447E-03  4.40601201E-04  2.91843061E-19
  1.46649261E-04  3.26199508E-02  2.74123708E-02  1.70462402E-04  2.48362390E-01
  1.00000000E+00  3.45405845E-07  5.65764782E-04 -1.16482905E-03 -2.29907409E-04
 -8.50666466E-20  4.82614545E-02  3.44647968E-01 -2.99350450E-01 -9.90240582E-02
 -3.80533506E-17  6.74913457E-06  2.52299013E-03 -4.04570837E-03 -2.51193261E-03
 -1.14275650E-18  2.87677372E-03  7.06584007E-02 -9.10706215E-02  3.57958498E-02
  2.03976555E-17  1.98081282E-03  5.22032483E-02 -4.92453570E-02 -5.53070497E-02
 -2.59208849E-17  8.98258522E-06  3.11049447E-03 -5.76091347E-03  8.90708447E-04
  5.89982685E-19  2.41762287E-04  3.54605814E-02  1.86756944E-02  3.37018260E-04
 -5.48692868E-17  6.03591961E-16  1.00000000E+00  6.36153060E-08  1.04200031E-04
 -2.29907409E-04  4.11335419E-05 -1.56671951E-20  1.00135748E-02  7.15096190E-02
 -9.90240582E-02  1.57360086E-01 -7.89553647E-18  3.74588377E-06  1.40030217E-03
 -2.51193261E-03 -9.14006561E-04 -6.34249173E-19 -9.26038714E-04 -2.27450682E-02
  3.57958498E-02  8.60776857E-03 -6.56604254E-18  1.63061671E-03  4.29740197E-02
 -5.53070497E-02 -2.75894875E-02 -2.13382242E-17 -1.27238221E-06 -4.40601201E-04
  8.90708447E-04  4.01016152E-04 -8.35709828E-20  1.87519783E-04 -3.16471472E-02
  3.60399342E-02 -1.04149600E-04  4.38352745E-17  0.00000000E+00  0.00000000E+00
  1.00000000E+00  2.35379137E-23  3.85544217E-20 -8.50666466E-20 -1.56671951E-20
  8.34768617E-05  3.84805552E-18  2.74799948E-17 -3.80533506E-17 -7.89553647E-18
  1.77906189E-01  1.70411937E-21  6.37041136E-19 -1.14275650E-18 -6.34249173E-19
  4.80158499E-04 -5.27687392E-19 -1.29608898E-17  2.03976555E-17 -6.56604254E-18
  2.01305180E-02  7.64224964E-19  2.01407348E-17 -2.59208849E-17 -2.13382242E-17
  1.79395996E-02 -8.42793707E-22 -2.91843061E-19  5.89982685E-19 -8.35709828E-20
  5.27184906E-04  8.75582983E-20 -1.65622266E-17  1.74786060E-17 -5.96632909E-20
 -1.87334807E-33  6.67667564E-33  0.00000000E+00  0.00000000E+00  1.00000000E+00
  1.42576545E-07  2.95500705E-02  4.82614545E-02  1.00135748E-02  3.84805552E-18
  1.36124646E-53  8.49001076E-08  3.45405845E-07  6.36153060E-08  2.35379137E-23
  8.74580360E-19  1.26082577E-03  2.87677372E-03 -9.26038714E-04 -5.27687392E-19
  6.31401796E-42  2.11522067E-06  6.74913457E-06  3.74588377E-06  1.70411937E-21
  2.59101410E-41  2.50493638E-06  8.98258522E-06 -1.27238221E-06 -8.42793707E-22
  1.92060114E-19  1.05092722E-03  1.98081282E-03  1.63061671E-03  7.64224964E-19
  1.12513095E-03  1.80872981E-07  2.32772278E-07  8.67553614E-04  1.59192625E-95
  8.35158763E-13  4.54285512E-12  8.63648787E-13  3.22980988E-28  1.00000000E+00
  2.95500705E-02  3.17606221E-01  3.44647968E-01  7.15096190E-02  2.74799948E-17
  8.49001076E-08  2.59629898E-04  5.65764782E-04  1.04200031E-04  3.85544217E-20
  1.26082577E-03  4.92144229E-02  7.06584007E-02 -2.27450682E-02 -1.29608898E-17
  2.11522067E-06  1.44484885E-03  2.52299013E-03  1.40030217E-03  6.37041136E-19
  2.50493638E-06  1.58229753E-03  3.11049447E-03 -4.40601201E-04 -2.91843061E-19
  1.05092722E-03  4.43248252E-02  5.22032483E-02  4.29740197E-02  2.01407348E-17
  3.26199508E-02  1.46649261E-04  1.70462402E-04  2.74123708E-02  8.35158763E-13
  5.83875669E-07  1.67871366E-06  3.19142694E-07  1.19350625E-22  2.48362390E-01
  1.00000000E+00 -4.82614545E-02 -3.44647968E-01 -2.99350450E-01 -9.90240582E-02
 -3.80533506E-17 -3.45405845E-07 -5.65764782E-04 -1.16482905E-03 -2.29907409E-04
 -8.50666466E-20 -2.87677372E-03 -7.06584007E-02 -9.10706215E-02  3.57958498E-02
  2.03976555E-17 -6.74913457E-06 -2.52299013E-03 -4.04570837E-03 -2.51193261E-03
 -1.14275650E-18 -8.98258522E-06 -3.11049447E-03 -5.76091347E-03  8.90708447E-04
  5.89982685E-19 -1.98081282E-03 -5.22032483E-02 -4.92453570E-02 -5.53070497E-02
 -2.59208849E-17 -3.54605814E-02 -2.41762287E-04 -3.37018260E-04 -1.86756944E-02
 -4.54285512E-12 -1.67871366E-06 -4.64617134E-06 -9.18122276E-07 -3.43352580E-22
  5.48692868E-17 -6.03591961E-16  1.00000000E+00 -1.00135748E-02 -7.15096190E-02
 -9.90240582E-02  1.57360086E-01 -7.89553647E-18 -6.36153060E-08 -1.04200031E-04
 -2.29907409E-04  4.11335419E-05 -1.56671951E-20  9.26038714E-04  2.27450682E-02
  3.57958498E-02  8.60776857E-03 -6.56604254E-18 -3.74588377E-06 -1.40030217E-03
 -2.51193261E-03 -9.14006561E-04 -6.34249173E-19  1.27238221E-06  4.40601201E-04
  8.90708447E-04  4.01016152E-04 -8.35709828E-20 -1.63061671E-03 -4.29740197E-02
 -5.53070497E-02 -2.75894875E-02 -2.13382242E-17  3.16471472E-02 -1.87519783E-04
  1.04149600E-04 -3.60399342E-02 -8.63648787E-13 -3.19142694E-07 -9.18122276E-07
  8.67271055E-09 -6.52752580E-23 -4.38352745E-17  0.00000000E+00  0.00000000E+00
  1.00000000E+00 -3.84805552E-18 -2.74799948E-17 -3.80533506E-17 -7.89553647E-18
  1.77906189E-01 -2.35379137E-23 -3.85544217E-20 -8.50666466E-20 -1.56671951E-20
  8.34768617E-05  5.27687392E-19  1.29608898E-17  2.03976555E-17 -6.56604254E-18
  2.01305180E-02 -1.70411937E-21 -6.37041136E-19 -1.14275650E-18 -6.34249173E-19
  4.80158499E-04  8.42793707E-22  2.91843061E-19  5.89982685E-19 -8.35709828E-20
  5.27184906E-04 -7.64224964E-19 -2.01407348E-17 -2.59208849E-17 -2.13382242E-17
  1.79395996E-02  1.65622266E-17 -8.75582983E-20  5.96632909E-20 -1.74786060E-17
 -3.22980988E-28 -1.19350625E-22 -3.43352580E-22 -6.52752580E-23  1.83218271E-07
  1.87334807E-33 -6.67667564E-33  0.00000000E+00  0.00000000E+00  1.00000000E+00
  6.75189016E-08  8.15459380E-05 -1.62366630E-04 -6.66746070E-05 -2.93436269E-20
  4.86941882E-03  9.00670119E-02 -9.14395642E-02 -7.35482413E-02 -3.44209629E-17
  2.73446179E-07  1.87659717E-04 -2.99500714E-04 -2.43965143E-04 -1.14266189E-19
  1.31508971E-03  3.62377939E-02 -5.19302321E-02 -5.92873540E-03 -1.73155713E-18
  6.42770443E-05  5.15279470E-03 -5.51473550E-03 -6.69659343E-03 -3.19984266E-18
  5.51783492E-06  1.14126001E-03 -2.09701176E-03 -2.80226275E-04 -9.02126370E-20
  1.42940387E-05  6.15263328E-02  2.47868604E-03  2.40294255E-04  6.06983134E-02
  4.84450132E-01 -1.03532495E-01 -4.51764561E-01 -2.22152858E-16  4.23706671E-12
  2.63508570E-07 -6.82599355E-07 -2.46437442E-07 -1.06526944E-22  1.00000000E+00
  4.86941882E-03  9.00670119E-02  9.14395642E-02  7.35482413E-02  3.44209629E-17
  6.75189016E-08  8.15459380E-05  1.62366630E-04  6.66746070E-05  2.93436269E-20
  1.31508971E-03  3.62377939E-02  5.19302321E-02  5.92873540E-03  1.73155713E-18
  2.73446179E-07  1.87659717E-04  2.99500714E-04  2.43965143E-04  1.14266189E-19
  5.51783492E-06  1.14126001E-03  2.09701176E-03  2.80226275E-04  9.02126370E-20
  6.42770443E-05  5.15279470E-03  5.51473550E-03  6.69659343E-03  3.19984266E-18
  6.15263328E-02  1.42940387E-05  2.40294255E-04  2.47868604E-03  4.23706671E-12
  2.63508570E-07  6.82599355E-07  2.46437442E-07  1.06526944E-22  6.06983134E-02
  4.84450132E-01  1.03532495E-01  4.51764561E-01  2.22152858E-16  6.36323830E-08
  1.00000000E+00  2.92743470E-78  9.57802794E-11 -4.79733590E-10  9.38102230E-12
  1.58938476E-26  4.33336040E-19  1.15882986E-03 -2.72496366E-03  6.50710372E-04
  3.87265175E-19  3.24278881E-56  4.12248134E-08 -1.70553924E-07 -3.79742476E-08
 -1.48847382E-23  1.11364091E-40  2.98298815E-06 -9.62540578E-06  4.71510600E-06
  2.56925326E-21  2.72317631E-27  1.20103424E-04 -3.40609707E-04 -8.40139727E-05
 -3.37905646E-20  1.19505944E-69  1.02214649E-09 -4.62632373E-09  1.38274946E-09
  7.95679272E-25  1.65096825E-08  5.69994158E-06  8.91603239E-04  1.06134653E-10
  2.23951617E-06  4.28357069E-02 -5.30393215E-02  4.72535335E-02  2.47318263E-17
  0.00000000E+00  1.58983529E-16 -1.01362341E-15 -3.00846492E-17  8.77331615E-33
  6.10974931E-03  1.30885284E-14  1.00000000E+00  9.57802794E-11  7.15018918E-06
 -1.89446710E-05  3.70456406E-07  6.27647761E-22  1.15882986E-03  4.68835400E-02
 -6.91449846E-02  1.65115444E-02  9.82671619E-18  4.12248134E-08  1.76915288E-04
 -3.90950694E-04 -8.70461266E-05 -3.41194069E-20  2.98298815E-06  1.73815088E-03
 -3.08023961E-03  1.50888769E-03  8.22190340E-19  1.20103424E-04  1.30482560E-02
 -2.16287813E-02 -5.33490327E-03 -2.14570729E-18  1.02214649E-09  2.49850581E-05
 -5.99305102E-05  1.79124690E-05  1.03074206E-20  3.53096845E-05  1.16394799E-03
  2.79163299E-02  1.77380165E-06  4.28357069E-02  3.93153736E-01 -3.04505980E-01
  2.71288982E-01  1.41988788E-16  1.58983529E-16  6.29779683E-09 -2.12469093E-08
 -6.30614689E-10  1.83900500E-25  1.06039842E-01  8.59797557E-09  2.48362390E-01
  1.00000000E+00  4.79733590E-10  1.89446710E-05 -4.80507651E-05  9.83623484E-07
  1.66650939E-21  2.72496366E-03  6.91449846E-02 -9.25367791E-02  2.66541761E-02
  1.58630239E-17  1.70553924E-07  3.90950694E-04 -8.16304843E-04 -1.94361508E-04
 -7.61837387E-20  9.62540578E-06  3.08023961E-03 -5.03901791E-03  2.75288268E-03
  1.50004110E-18  3.40609707E-04  2.16287813E-02 -3.33189933E-02 -9.39814076E-03
 -3.77994841E-18  4.62632373E-09  5.99305102E-05 -1.36432131E-04  4.31369969E-05
  2.48224392E-20  7.30337935E-05  1.60831314E-03  3.39316741E-02  4.20048942E-06
  5.30393215E-02  3.04505980E-01 -7.88068844E-02  2.80009182E-01  1.46552817E-16
  1.01362341E-15  2.12469093E-08 -6.97109385E-08 -2.12763479E-09  6.20463032E-25
  4.86174896E-02  2.59631013E-08 -4.94883129E-17  1.51623537E-15  1.00000000E+00
 -9.38102230E-12 -3.70456406E-07  9.83623484E-07  2.23125873E-06 -3.25880073E-23
 -6.50710372E-04 -1.65115444E-02  2.66541761E-02  1.27173420E-02 -3.78802635E-18
  3.79742476E-08  8.70461266E-05 -1.94361508E-04  1.33568828E-05 -1.69624954E-20