Jobname.Temp
SP        R                             STO-3G              
Number of atoms                            I               20
Charge                                     I                0
Multiplicity                               I                1
Number of electrons                        I               70
Number of alpha electrons                  I               35
Number of beta electrons                   I               35
Atomic numbers                             I   N=          20
           6           6           6           6           6           6
           1           1           1           1           6           6
           1           1           1           6           6           1
           1           1
Current cartesian coordinates              R   N=          60
  5.26627894E-01 -2.58293742E+00  0.00000000E+00  2.50016513E+00 -8.34759587E-01
  0.00000000E+00  1.97352614E+00  1.74771279E+00  0.00000000E+00 -5.26627894E-01
  2.58293742E+00  0.00000000E+00 -2.50016513E+00  8.34759587E-01  0.00000000E+00
 -1.97352614E+00 -1.74771279E+00  0.00000000E+00  4.47100590E+00 -1.49359656E+00
  0.00000000E+00  3.52898973E+00  3.12575813E+00  0.00000000E+00 -4.47100590E+00
  1.49359656E+00  0.00000000E+00 -3.52898973E+00 -3.12575813E+00  0.00000000E+00
 -1.10849764E+00  5.43466206E+00  0.00000000E+00  6.86918999E-01  7.18240340E+00
  0.00000000E+00 -3.13028915E+00  5.90339693E+00  0.00000000E+00  2.72679165E-01
  9.21606647E+00  0.00000000E+00  2.70871052E+00  6.71366854E+00  0.00000000E+00
  1.10849764E+00 -5.43466206E+00  0.00000000E+00 -6.86918999E-01 -7.18240340E+00
  0.00000000E+00  3.13028915E+00 -5.90339693E+00  0.00000000E+00 -2.72679165E-01
 -9.21606647E+00  0.00000000E+00 -2.70871052E+00 -6.71366854E+00  0.00000000E+00
Nuclear charges                            R   N=          20
  6.00000000E+00  6.00000000E+00  6.00000000E+00  6.00000000E+00  6.00000000E+00
  6.00000000E+00  1.00000000E+00  1.00000000E+00  1.00000000E+00  1.00000000E+00
  6.00000000E+00  6.00000000E+00  1.00000000E+00  1.00000000E+00  1.00000000E+00
  6.00000000E+00  6.00000000E+00  1.00000000E+00  1.00000000E+00  1.00000000E+00
Number of basis functions                  I               60
Number of contracted shells                I               30
Number of primitive shells                 I               90
Highest angular momentum                   I                1
Largest degree of contraction              I                3
Shell types                                I   N=          30
           0          -1           0          -1           0          -1
           0          -1           0          -1           0          -1
           0           0           0           0           0          -1
           0          -1           0           0           0           0
          -1           0          -1           0           0           0
Number of primitives per shell             I   N=          30
           3           3           3           3           3           3
           3           3           3           3           3           3
           3           3           3           3           3           3
           3           3           3           3           3           3
           3           3           3           3           3           3
Shell to atom map                          I   N=          30
           1           1           2           2           3           3
           4           4           5           5           6           6
           7           8           9          10          11          11
          12          12          13          14          15          16
          16          17          17          18          19          20
Primitive exponents                        R   N=          90
  7.16168370E+01  1.30450960E+01  3.53051220E+00  2.94124940E+00  6.83483100E-01
  2.22289900E-01  7.16168370E+01  1.30450960E+01  3.53051220E+00  2.94124940E+00
  6.83483100E-01  2.22289900E-01  7.16168370E+01  1.30450960E+01  3.53051220E+00
  2.94124940E+00  6.83483100E-01  2.22289900E-01  7.16168370E+01  1.30450960E+01
  3.53051220E+00  2.94124940E+00  6.83483100E-01  2.22289900E-01  7.16168370E+01
  1.30450960E+01  3.53051220E+00  2.94124940E+00  6.83483100E-01  2.22289900E-01
  7.16168370E+01  1.30450960E+01  3.53051220E+00  2.94124940E+00  6.83483100E-01
  2.22289900E-01  3.42525091E+00  6.23913730E-01  1.68855400E-01  3.42525091E+00
  6.23913730E-01  1.68855400E-01  3.42525091E+00  6.23913730E-01  1.68855400E-01
  3.42525091E+00  6.23913730E-01  1.68855400E-01  7.16168370E+01  1.30450960E+01
  3.53051220E+00  2.94124940E+00  6.83483100E-01  2.22289900E-01  7.16168370E+01
  1.30450960E+01  3.53051220E+00  2.94124940E+00  6.83483100E-01  2.22289900E-01
  3.42525091E+00  6.23913730E-01  1.68855400E-01  3.42525091E+00  6.23913730E-01
  1.68855400E-01  3.42525091E+00  6.23913730E-01  1.68855400E-01  7.16168370E+01
  1.30450960E+01  3.53051220E+00  2.94124940E+00  6.83483100E-01  2.22289900E-01
  7.16168370E+01  1.30450960E+01  3.53051220E+00  2.94124940E+00  6.83483100E-01
  2.22289900E-01  3.42525091E+00  6.23913730E-01  1.68855400E-01  3.42525091E+00
  6.23913730E-01  1.68855400E-01  3.42525091E+00  6.23913730E-01  1.68855400E-01
Contraction coefficients                   R   N=          90
  1.54328970E-01  5.35328140E-01  4.44634540E-01 -9.99672301E-02  3.99512830E-01
  7.00115471E-01  1.54328970E-01  5.35328140E-01  4.44634540E-01 -9.99672301E-02
  3.99512830E-01  7.00115471E-01  1.54328970E-01  5.35328140E-01  4.44634540E-01
 -9.99672301E-02  3.99512830E-01  7.00115471E-01  1.54328970E-01  5.35328140E-01
  4.44634540E-01 -9.99672301E-02  3.99512830E-01  7.00115471E-01  1.54328970E-01
  5.35328140E-01  4.44634540E-01 -9.99672301E-02  3.99512830E-01  7.00115471E-01
  1.54328970E-01  5.35328140E-01  4.44634540E-01 -9.99672301E-02  3.99512830E-01
  7.00115471E-01  1.54328971E-01  5.35328142E-01  4.44634542E-01  1.54328971E-01
  5.35328142E-01  4.44634542E-01  1.54328971E-01  5.35328142E-01  4.44634542E-01
  1.54328971E-01  5.35328142E-01  4.44634542E-01  1.54328970E-01  5.35328140E-01
  4.44634540E-01 -9.99672301E-02  3.99512830E-01  7.00115471E-01  1.54328970E-01
  5.35328140E-01  4.44634540E-01 -9.99672301E-02  3.99512830E-01  7.00115471E-01
  1.54328971E-01  5.35328142E-01  4.44634542E-01  1.54328971E-01  5.35328142E-01
  4.44634542E-01  1.54328971E-01  5.35328142E-01  4.44634542E-01  1.54328970E-01
  5.35328140E-01  4.44634540E-01 -9.99672301E-02  3.99512830E-01  7.00115471E-01
  1.54328970E-01  5.35328140E-01  4.44634540E-01 -9.99672301E-02  3.99512830E-01
  7.00115471E-01  1.54328971E-01  5.35328142E-01  4.44634542E-01  1.54328971E-01
  5.35328142E-01  4.44634542E-01  1.54328971E-01  5.35328142E-01  4.44634542E-01
P(S=P) Contraction coefficients            R   N=          90
  0.00000000E+00  0.00000000E+00  0.00000000E+00  1.55916272E-01  6.07683728E-01
  3.91957395E-01  0.00000000E+00  0.00000000E+00  0.00000000E+00  1.55916272E-01
  6.07683728E-01  3.91957395E-01  0.00000000E+00  0.00000000E+00  0.00000000E+00
  1.55916272E-01  6.07683728E-01  3.91957395E-01  0.00000000E+00  0.00000000E+00
  0.00000000E+00  1.55916272E-01  6.07683728E-01  3.91957395E-01  0.00000000E+00
  0.00000000E+00  0.00000000E+00  1.55916272E-01  6.07683728E-01  3.91957395E-01
  0.00000000E+00  0.00000000E+00  0.00000000E+00  1.55916272E-01  6.07683728E-01
  3.91957395E-01  0.00000000E+00  0.00000000E+00  0.00000000E+00  0.00000000E+00
  0.00000000E+00  0.00000000E+00  0.00000000E+00  0.00000000E+00  0.00000000E+00
  0.00000000E+00  0.00000000E+00  0.00000000E+00  0.00000000E+00  0.00000000E+00
  0.00000000E+00  1.55916272E-01  6.07683728E-01  3.91957395E-01  0.00000000E+00
  0.00000000E+00  0.00000000E+00  1.55916272E-01  6.07683728E-01  3.91957395E-01
  0.00000000E+00  0.00000000E+00  0.00000000E+00  0.00000000E+00  0.00000000E+00
  0.00000000E+00  0.00000000E+00  0.00000000E+00  0.00000000E+00  0.00000000E+00
  0.00000000E+00  0.00000000E+00  1.55916272E-01  6.07683728E-01  3.91957395E-01
  0.00000000E+00  0.00000000E+00  0.00000000E+00  1.55916272E-01  6.07683728E-01
  3.91957395E-01  0.00000000E+00  0.00000000E+00  0.00000000E+00  0.00000000E+00
  0.00000000E+00  0.00000000E+00  0.00000000E+00  0.00000000E+00  0.00000000E+00
Coordinates of each shell                  R   N=          90
  5.26627894E-01 -2.58293742E+00  0.00000000E+00  5.26627894E-01 -2.58293742E+00
  0.00000000E+00  2.50016513E+00 -8.34759587E-01  0.00000000E+00  2.50016513E+00
 -8.34759587E-01  0.00000000E+00  1.97352614E+00  1.74771279E+00  0.00000000E+00
  1.97352614E+00  1.74771279E+00  0.00000000E+00 -5.26627894E-01  2.58293742E+00
  0.00000000E+00 -5.26627894E-01  2.58293742E+00  0.00000000E+00 -2.50016513E+00
  8.34759587E-01  0.00000000E+00 -2.50016513E+00  8.34759587E-01  0.00000000E+00
 -1.97352614E+00 -1.74771279E+00  0.00000000E+00 -1.97352614E+00 -1.74771279E+00
  0.00000000E+00  4.47100590E+00 -1.49359656E+00  0.00000000E+00  3.52898973E+00
  3.12575813E+00  0.00000000E+00 -4.47100590E+00  1.49359656E+00  0.00000000E+00
 -3.52898973E+00 -3.12575813E+00  0.00000000E+00 -1.10849764E+00  5.43466206E+00
  0.00000000E+00 -1.10849764E+00  5.43466206E+00  0.00000000E+00  6.86918999E-01
  7.18240340E+00  0.00000000E+00  6.86918999E-01  7.18240340E+00  0.00000000E+00
 -3.13028915E+00  5.90339693E+00  0.00000000E+00  2.72679165E-01  9.21606647E+00
  0.00000000E+00  2.70871052E+00  6.71366854E+00  0.00000000E+00  1.10849764E+00
 -5.43466206E+00  0.00000000E+00  1.10849764E+00 -5.43466206E+00  0.00000000E+00
 -6.86918999E-01 -7.18240340E+00  0.00000000E+00 -6.86918999E-01 -7.18240340E+00
  0.00000000E+00  3.13028915E+00 -5.90339693E+00  0.00000000E+00 -2.72679165E-01
 -9.21606647E+00  0.00000000E+00 -2.70871052E+00 -6.71366854E+00  0.00000000E+00
Overlap Matrix                             R   N=        1830
  1.00000000E+00  2.48362390E-01  1.00000000E+00  4.45284984E-18  0.00000000E+00
  1.00000000E+00  6.80093027E-18  3.01795980E-16  0.00000000E+00  1.00000000E+00
  0.00000000E+00  0.00000000E+00  0.00000000E+00  0.00000000E+00  1.00000000E+00
  9.28499134E-07  3.79483091E-02  4.70946664E-02  4.17168982E-02  0.00000000E+00
  1.00000000E+00  3.79483091E-02  3.67071367E-01  2.91668929E-01  2.58363079E-01
  0.00000000E+00  2.48362390E-01  1.00000000E+00 -4.70946664E-02 -2.91668929E-01
 -8.93534743E-02 -2.69513400E-01  0.00000000E+00 -1.67631304E-16  0.00000000E+00
  1.00000000E+00 -4.17168982E-02 -2.58363079E-01 -2.69513400E-01 -2.38343277E-02
  0.00000000E+00 -1.15670820E-18  7.82107253E-17  0.00000000E+00  1.00000000E+00
  0.00000000E+00  0.00000000E+00  0.00000000E+00  0.00000000E+00  2.14903175E-01
  0.00000000E+00  0.00000000E+00  0.00000000E+00  0.00000000E+00  1.00000000E+00
  2.05608024E-17  1.84257566E-03  1.34428765E-03  4.02353075E-03  0.00000000E+00
  9.35849267E-07  3.79890711E-02 -1.25846851E-02  6.17113479E-02  0.00000000E+00
  1.00000000E+00  1.84257566E-03  6.12758480E-02  2.85653167E-02  8.54976465E-02
  0.00000000E+00  3.79890711E-02  3.67296441E-01 -7.78892942E-02  3.81944664E-01
  0.00000000E+00  2.48362390E-01  1.00000000E+00 -1.34428765E-03 -2.85653167E-02
  1.09584198E-02 -4.40078086E-02  0.00000000E+00  1.25846851E-02  7.78892942E-02
  1.93390289E-01  1.06347628E-01  0.00000000E+00 -6.86737295E-18 -3.79058842E-16
  1.00000000E+00 -4.02353075E-03 -8.54976465E-02 -4.40078086E-02 -1.06056205E-01
  0.00000000E+00 -6.17113479E-02 -3.81944664E-01  1.06347628E-01 -3.06417833E-01
  0.00000000E+00 -1.53041826E-17 -2.13877879E-16  7.25791332E-32  1.00000000E+00
  0.00000000E+00  0.00000000E+00  0.00000000E+00  0.00000000E+00  2.56617133E-02
  0.00000000E+00  0.00000000E+00  0.00000000E+00  0.00000000E+00  2.15077571E-01
  0.00000000E+00  0.00000000E+00  0.00000000E+00  0.00000000E+00  1.00000000E+00
  9.69956201E-23  4.22422021E-04 -2.23900206E-04  1.09815721E-03  0.00000000E+00
  2.07766842E-17  1.84489037E-03 -2.81568317E-03  3.17932276E-03  0.00000000E+00
  9.32781797E-07  3.79720925E-02 -5.97097195E-02  1.99471823E-02  0.00000000E+00
  1.00000000E+00  4.22422021E-04  2.63846608E-02 -8.46673430E-03  4.15265601E-02
  0.00000000E+00  1.84489037E-03  6.13204774E-02 -5.98031886E-02  6.75266452E-02
  0.00000000E+00  3.79720925E-02  3.67202707E-01 -3.69656474E-01  1.23490868E-01
  0.00000000E+00  2.48362390E-01  1.00000000E+00  2.23900206E-04  8.46673430E-03
  7.25750653E-03  1.43711500E-02  0.00000000E+00  2.81568317E-03  5.98031886E-02
 -3.87166815E-02  7.27162015E-02  0.00000000E+00  5.97097195E-02  3.69656474E-01
 -2.73572859E-01  1.63218827E-01  0.00000000E+00 -4.45284984E-18  0.00000000E+00
  1.00000000E+00 -1.09815721E-03 -4.15265601E-02  1.43711500E-02 -6.02981859E-02
  0.00000000E+00 -3.17932276E-03 -6.75266452E-02  7.27162015E-02 -5.64248463E-02
  0.00000000E+00 -1.99471823E-02 -1.23490868E-01  1.63218827E-01  1.60478542E-01
  0.00000000E+00 -6.80093027E-18 -3.01795980E-16  0.00000000E+00  1.00000000E+00
  0.00000000E+00  0.00000000E+00  0.00000000E+00  0.00000000E+00  1.01876001E-02
  0.00000000E+00  0.00000000E+00  0.00000000E+00  0.00000000E+00  2.56825005E-02
  0.00000000E+00  0.00000000E+00  0.00000000E+00  0.00000000E+00  2.15004936E-01
  0.00000000E+00  0.00000000E+00  0.00000000E+00  0.00000000E+00  1.00000000E+00
  2.07766842E-17  1.84489037E-03 -2.81568317E-03  3.17932276E-03  0.00000000E+00
  9.78578782E-23  4.22871018E-04 -1.06409643E-03  3.55282411E-04  0.00000000E+00
  2.05843583E-17  1.84282927E-03 -4.15700144E-03 -8.48325813E-04  0.00000000E+00
  9.28499134E-07  3.79483091E-02 -4.70946664E-02 -4.17168982E-02  0.00000000E+00
  1.00000000E+00  1.84489037E-03  6.13204774E-02 -5.98031886E-02  6.75266452E-02
  0.00000000E+00  4.22871018E-04  2.64005007E-02 -4.02213190E-02  1.34291656E-02
  0.00000000E+00  1.84282927E-03  6.12807388E-02 -8.83292202E-02 -1.80254827E-02
  0.00000000E+00  3.79483091E-02  3.67071367E-01 -2.91668929E-01 -2.58363079E-01
  0.00000000E+00  2.48362390E-01  1.00000000E+00  2.81568317E-03  5.98031886E-02
 -3.87166815E-02  7.27162015E-02  0.00000000E+00  1.06409643E-03  4.02213190E-02
 -5.58914849E-02  2.20648141E-02  0.00000000E+00  4.15700144E-03  8.83292202E-02
 -1.14912245E-01 -2.86876133E-02  0.00000000E+00  4.70946664E-02  2.91668929E-01
 -8.93534743E-02 -2.69513400E-01  0.00000000E+00  1.67631304E-16  0.00000000E+00
  1.00000000E+00 -3.17932276E-03 -6.75266452E-02  7.27162015E-02 -5.64248463E-02
  0.00000000E+00 -3.55282411E-04 -1.34291656E-02  2.20648141E-02  2.82718420E-03
  0.00000000E+00  8.48325813E-04  1.80254827E-02 -2.86876133E-02  1.98096649E-02
  0.00000000E+00  4.17168982E-02  2.58363079E-01 -2.69513400E-01 -2.38343277E-02
  0.00000000E+00  1.15670820E-18 -7.82107253E-17  0.00000000E+00  1.00000000E+00
  0.00000000E+00  0.00000000E+00  0.00000000E+00  0.00000000E+00  2.56825005E-02
  0.00000000E+00  0.00000000E+00  0.00000000E+00  0.00000000E+00  1.01942236E-02
  0.00000000E+00  0.00000000E+00  0.00000000E+00  0.00000000E+00  2.56639912E-02
  0.00000000E+00  0.00000000E+00  0.00000000E+00  0.00000000E+00  2.14903175E-01
  0.00000000E+00  0.00000000E+00  0.00000000E+00  0.00000000E+00  1.00000000E+00
  9.32781797E-07  3.79720925E-02 -5.97097195E-02  1.99471823E-02  0.00000000E+00
  2.05843583E-17  1.84282927E-03 -4.15700144E-03 -8.48325813E-04  0.00000000E+00
  9.67201526E-23  4.22277838E-04 -8.38774398E-04 -7.42800772E-04  0.00000000E+00
  2.05608024E-17  1.84257566E-03 -1.34428765E-03 -4.02353075E-03  0.00000000E+00
  9.35849267E-07  3.79890711E-02  1.25846851E-02 -6.17113479E-02  0.00000000E+00
  1.00000000E+00  3.79720925E-02  3.67202707E-01 -3.69656474E-01  1.23490868E-01
  0.00000000E+00  1.84282927E-03  6.12807388E-02 -8.83292202E-02 -1.80254827E-02
  0.00000000E+00  4.22277838E-04  2.63795728E-02 -3.17224275E-02 -2.80927073E-02
  0.00000000E+00  1.84257566E-03  6.12758480E-02 -2.85653167E-02 -8.54976465E-02
  0.00000000E+00  3.79890711E-02  3.67296441E-01  7.78892942E-02 -3.81944664E-01
  0.00000000E+00  2.48362390E-01  1.00000000E+00  5.97097195E-02  3.69656474E-01
 -2.73572859E-01  1.63218827E-01  0.00000000E+00  4.15700144E-03  8.83292202E-02
 -1.14912245E-01 -2.86876133E-02  0.00000000E+00  8.38774398E-04  3.17224275E-02
 -3.09545292E-02 -3.64327110E-02  0.00000000E+00  1.34428765E-03  2.85653167E-02
  1.09584198E-02 -4.40078086E-02  0.00000000E+00 -1.25846851E-02 -7.78892942E-02
  1.93390289E-01  1.06347628E-01  0.00000000E+00  6.86737295E-18  3.79058842E-16
  1.00000000E+00 -1.99471823E-02 -1.23490868E-01  1.63218827E-01  1.60478542E-01
  0.00000000E+00  8.48325813E-04  1.80254827E-02 -2.86876133E-02  1.98096649E-02
  0.00000000E+00  7.42800772E-04  2.80927073E-02 -3.64327110E-02 -2.20785615E-02
  0.00000000E+00  4.02353075E-03  8.54976465E-02 -4.40078086E-02 -1.06056205E-01
  0.00000000E+00  6.17113479E-02  3.81944664E-01  1.06347628E-01 -3.06417833E-01
  0.00000000E+00  1.53041826E-17  2.13877879E-16  7.25791332E-32  1.00000000E+00
  0.00000000E+00  0.00000000E+00  0.00000000E+00  0.00000000E+00  2.15004936E-01
  0.00000000E+00  0.00000000E+00  0.00000000E+00  0.00000000E+00  2.56639912E-02
  0.00000000E+00  0.00000000E+00  0.00000000E+00  0.00000000E+00  1.01854727E-02
  0.00000000E+00  0.00000000E+00  0.00000000E+00  0.00000000E+00  2.56617133E-02
  0.00000000E+00  0.00000000E+00  0.00000000E+00  0.00000000E+00  2.15077571E-01
  0.00000000E+00  0.00000000E+00  0.00000000E+00  0.00000000E+00  1.00000000E+00
  5.29064196E-03  9.55903186E-02  1.19140825E-01  3.29037858E-02  0.00000000E+00
  6.08874056E-02  4.85212737E-01  4.40005045E-01 -1.47090316E-01  0.00000000E+00
  5.29176583E-03  9.56049108E-02  7.54498765E-02 -9.79212703E-02  0.00000000E+00
  9.20087288E-05  6.45003130E-03  8.28639513E-03 -6.75915298E-03  0.00000000E+00
  1.21817086E-05  1.84747902E-03  3.15317165E-03 -1.05315256E-03  0.00000000E+00
  9.19773482E-05  6.44864958E-03  1.06830450E-02  4.21246282E-04  0.00000000E+00
  1.00000000E+00  9.18753929E-05  6.44415921E-03  4.97335629E-03  9.45634753E-03
  0.00000000E+00  5.29116529E-03  9.55971136E-02  3.10783603E-02  1.19637883E-01
  0.00000000E+00  6.08838508E-02  4.85198418E-01  3.47254556E-01  3.07646240E-01
  0.00000000E+00  5.29246541E-03  9.56139936E-02  1.22534932E-01  1.64005844E-02
  0.00000000E+00  9.19352199E-05  6.44679435E-03  9.99146362E-03  3.79662310E-03
  0.00000000E+00  1.21620392E-05  1.84565734E-03  2.48634651E-03  2.20210859E-03
  0.00000000E+00  5.00066312E-02  1.00000000E+00  9.20087288E-05  6.45003130E-03
 -8.28639513E-03  6.75915298E-03  0.00000000E+00  1.21817086E-05  1.84747902E-03
 -3.15317165E-03  1.05315256E-03  0.00000000E+00  9.19773482E-05  6.44864958E-03
 -1.06830450E-02 -4.21246282E-04  0.00000000E+00  5.29064196E-03  9.55903186E-02
 -1.19140825E-01 -3.29037858E-02  0.00000000E+00  6.08874056E-02  4.85212737E-01
 -4.40005045E-01  1.47090316E-01  0.00000000E+00  5.29176583E-03  9.56049108E-02
 -7.54498765E-02  9.79212703E-02  0.00000000E+00  1.11528442E-04  7.61637367E-04
  1.00000000E+00  5.29246541E-03  9.56139936E-02 -1.22534932E-01 -1.64005844E-02
  0.00000000E+00  9.19352199E-05  6.44679435E-03 -9.99146362E-03 -3.79662310E-03
  0.00000000E+00  1.21620392E-05  1.84565734E-03 -2.48634651E-03 -2.20210859E-03
  0.00000000E+00  9.18753929E-05  6.44415921E-03 -4.97335629E-03 -9.45634753E-03
  0.00000000E+00  5.29116529E-03  9.55971136E-02 -3.10783603E-02 -1.19637883E-01
  0.00000000E+00  6.08838508E-02  4.85198418E-01 -3.47254556E-01 -3.07646240E-01
  0.00000000E+00  7.61637367E-04  1.11398406E-04  5.00066312E-02  1.00000000E+00
  9.22885273E-53  1.06745412E-07 -8.75425165E-08  4.29251956E-07  0.00000000E+00
  1.51058218E-41  2.34817294E-06 -4.25489439E-06  7.39213628E-06  0.00000000E+00
  3.91179352E-19  1.14467049E-03 -1.77706099E-03  2.12585437E-03  0.00000000E+00
  6.33881337E-08  2.65883849E-02 -8.91390579E-03  4.36867613E-02  0.00000000E+00
  3.88855300E-19  1.14385145E-03  8.01845134E-04  2.65035251E-03  0.00000000E+00
  1.49285301E-41  2.34485481E-06  1.01849417E-06  8.45660794E-06  0.00000000E+00
  2.05131400E-07  1.01737670E-03  1.01718898E-03  2.04866535E-07  1.00000000E+00
  1.06745412E-07  2.93227592E-04 -1.28934634E-04  6.32212166E-04  0.00000000E+00
  2.34817294E-06  1.52827564E-03 -1.51709288E-03  2.63568407E-03  0.00000000E+00
  1.14467049E-03  4.65534821E-02 -4.53072739E-02  5.41999777E-02  0.00000000E+00
  2.65883849E-02  2.98493812E-01 -6.72461792E-02  3.29571329E-01  0.00000000E+00
  1.14385145E-03  4.65343397E-02  2.04492035E-02  6.75911038E-02  0.00000000E+00
  2.34485481E-06  1.52711465E-03  3.63378998E-04  3.01715397E-03  0.00000000E+00
  1.58079960E-04  3.04893694E-02  3.04856017E-02  1.57958181E-04  2.48362390E-01
  1.00000000E+00  8.75425165E-08  1.28934634E-04  3.69825005E-05  2.81675887E-04
  0.00000000E+00  4.25489439E-06  1.51709288E-03 -1.03940603E-03  2.68953200E-03
  0.00000000E+00  1.77706099E-03  4.53072739E-02 -2.93192358E-02  5.77246122E-02
  0.00000000E+00  8.91390579E-03  6.72461792E-02  1.45183790E-01  9.37156439E-02
  0.00000000E+00 -8.01845134E-04 -2.04492035E-02  9.09203528E-03 -3.25037330E-02
  0.00000000E+00 -1.01849417E-06 -3.63378998E-04  4.19401547E-04 -7.37997206E-04
  0.00000000E+00  2.06022717E-04  4.00219258E-02 -2.90148797E-02 -8.93068821E-05
  4.68890013E-19  2.57426200E-16  1.00000000E+00 -4.29251956E-07 -6.32212166E-04
  2.81675887E-04 -1.28672856E-03  0.00000000E+00 -7.39213628E-06 -2.63568407E-03
  2.68953200E-03 -4.16391080E-03  0.00000000E+00 -2.12585437E-03 -5.41999777E-02
  5.77246122E-02 -5.01201557E-02  0.00000000E+00 -4.36867613E-02 -3.29571329E-01
  9.37156439E-02 -2.94991655E-01  0.00000000E+00 -2.65035251E-03 -6.75911038E-02
 -3.25037330E-02 -8.85093409E-02  0.00000000E+00 -8.45660794E-06 -3.01715397E-03
 -7.37997206E-04 -5.61934344E-03  0.00000000E+00 -2.55825389E-04 -1.99260449E-02
 -3.40072150E-02 -3.15846700E-04  1.12248808E-16 -7.45962098E-16 -2.63613692E-31
  1.00000000E+00  0.00000000E+00  0.00000000E+00  0.00000000E+00  0.00000000E+00
  9.44280535E-05  0.00000000E+00  0.00000000E+00  0.00000000E+00  0.00000000E+00
  5.08681584E-04  0.00000000E+00  0.00000000E+00  0.00000000E+00  0.00000000E+00
  1.89343784E-02  0.00000000E+00  0.00000000E+00  0.00000000E+00  0.00000000E+00
  1.64305657E-01  0.00000000E+00  0.00000000E+00  0.00000000E+00  0.00000000E+00
  1.89258065E-02  0.00000000E+00  0.00000000E+00  0.00000000E+00  0.00000000E+00
  5.08284212E-04  0.00000000E+00  0.00000000E+00  0.00000000E+00  0.00000000E+00
  0.00000000E+00  0.00000000E+00  0.00000000E+00  0.00000000E+00  1.00000000E+00
  1.47225269E-74  2.64963544E-10  2.12600673E-11  1.29521724E-09  0.00000000E+00
  3.15953083E-53  9.38978527E-08 -8.53908758E-08  3.77550823E-07  0.00000000E+00
  2.41845950E-25  2.05744450E-04 -1.33162222E-04  5.62483645E-04  0.00000000E+00
  8.88424003E-19  1.26320676E-03  7.72301042E-04  2.92709939E-03  0.00000000E+00
  4.15816653E-40  3.49292957E-06  5.59064526E-06  1.11347625E-05  0.00000000E+00
  5.40065264E-68  1.61150041E-09  2.14730894E-09  7.20771049E-09  0.00000000E+00
  3.74728460E-08  1.48084008E-03  5.44616203E-06  1.39591864E-10  3.04987037E-06
  4.47243006E-02  5.31738035E-02  5.17618322E-02  0.00000000E+00  1.00000000E+00
  2.64963544E-10  1.22404592E-05  5.19857643E-07  3.16710466E-05  0.00000000E+00
  9.38978527E-08  2.73906285E-04 -1.33476765E-04  5.90159803E-04  0.00000000E+00
  2.05744450E-04  1.76113287E-02 -6.75599695E-03  2.85376569E-02  0.00000000E+00
  1.26320676E-03  4.92679014E-02  1.89552304E-02  7.18422483E-02  0.00000000E+00
  3.49292957E-06  1.89227713E-03  1.66622023E-03  3.31857338E-03  0.00000000E+00
  1.61150041E-09  3.17846219E-05  2.24578858E-05  7.53826970E-05  0.00000000E+00
  5.74574688E-05  3.92739296E-02  1.13225153E-03  2.08624941E-06  4.47243006E-02
  4.02773183E-01  2.96818086E-01  2.88936411E-01  0.00000000E+00  2.48362390E-01
  1.00000000E+00 -2.12600673E-11 -5.19857643E-07  3.83555986E-06 -1.34883139E-06
  0.00000000E+00  8.53908758E-08  1.33476765E-04  2.22475229E-05  2.91282986E-04
  0.00000000E+00  1.33162222E-04  6.75599695E-03  3.81940633E-03  1.17040295E-02
  0.00000000E+00 -7.72301042E-04 -1.89552304E-02  1.21603106E-02 -3.02993578E-02
  0.00000000E+00 -5.59064526E-06 -1.66622023E-03 -8.78203772E-04 -3.01150872E-03
  0.00000000E+00 -2.14730894E-09 -2.24578858E-05 -5.88773205E-06 -5.35020010E-05
  0.00000000E+00  5.03428439E-05  3.22456560E-02 -1.41053535E-03 -2.01215524E-06
 -5.31738035E-02 -2.96818086E-01 -4.98335419E-02 -2.85321867E-01  0.00000000E+00
  9.70837261E-18 -9.04835320E-17  1.00000000E+00 -1.29521724E-09 -3.16710466E-05
 -1.34883139E-06 -7.83165307E-05  0.00000000E+00 -3.77550823E-07 -5.90159803E-04
  2.91282986E-04 -1.19976374E-03  0.00000000E+00 -5.62483645E-04 -2.85376569E-02
  1.17040295E-02 -4.28481699E-02  0.00000000E+00 -2.92709939E-03 -7.18422483E-02
 -3.02993578E-02 -9.46829938E-02  0.00000000E+00 -1.11347625E-05 -3.31857338E-03
 -3.01150872E-03 -5.36411165E-03  0.00000000E+00 -7.20771049E-09 -7.53826970E-05
 -5.35020010E-05 -1.69534651E-04  0.00000000E+00 -1.15424017E-04 -4.60260143E-02
 -1.55571539E-03 -4.91984590E-06 -5.17618322E-02 -2.88936411E-01 -2.85321867E-01
 -3.44740601E-02  0.00000000E+00 -1.30984981E-16  1.09549417E-16  1.42472275E-32
  1.00000000E+00  0.00000000E+00  0.00000000E+00  0.00000000E+00  0.00000000E+00
  3.85769997E-06  0.00000000E+00  0.00000000E+00  0.00000000E+00  0.00000000E+00
  8.81271550E-05  0.00000000E+00  0.00000000E+00  0.00000000E+00  0.00000000E+00
  6.59021501E-03  0.00000000E+00  0.00000000E+00  0.00000000E+00  0.00000000E+00
  2.01546499E-02  0.00000000E+00  0.00000000E+00  0.00000000E+00  0.00000000E+00
  6.33842575E-04  0.00000000E+00  0.00000000E+00  0.00000000E+00  0.00000000E+00
  1.00514938E-05  0.00000000E+00  0.00000000E+00  0.00000000E+00  0.00000000E+00
  0.00000000E+00  0.00000000E+00  0.00000000E+00  0.00000000E+00  2.43271401E-01
  0.00000000E+00  0.00000000E+00  0.00000000E+00  0.00000000E+00  1.00000000E+00
  7.41680357E-08  8.62330310E-05 -7.32399249E-05  1.69962425E-04  0.00000000E+00
  2.85181281E-07  1.92426967E-04 -2.53636043E-04  3.03534896E-04  0.00000000E+00
  6.94927241E-05  5.41006774E-03 -7.03972105E-03  5.73195843E-03  0.00000000E+00
  4.44493833E-03  8.43832650E-02 -6.83975105E-02  8.72276160E-02  0.00000000E+00
  1.14946288E-03  3.30926735E-02 -5.94040036E-03  4.77838239E-02  0.00000000E+00
  4.69613640E-06  1.03505424E-03 -2.88545672E-04  1.90851072E-03  0.00000000E+00
  1.49461234E-05  2.79609579E-03  5.54692997E-02  2.06833016E-04  6.10855877E-02
  4.86010000E-01 -4.52423181E-01  1.04890400E-01  0.00000000E+00  5.78115105E-03
  1.01890938E-01 -1.23890405E-01 -4.15111316E-02  0.00000000E+00  1.00000000E+00
  1.17574262E-11  4.82167354E-07 -2.79627769E-08  1.29921073E-06  0.00000000E+00
  2.61557139E-09  1.18376124E-05 -6.05766652E-06  2.73333047E-05  0.00000000E+00
  5.71623741E-06  1.16596450E-03 -4.79333603E-04  2.10473542E-03  0.00000000E+00
  5.60690729E-05  4.73213079E-03  9.58610238E-04  7.95512231E-03  0.00000000E+00
  2.49178438E-07  1.77533320E-04  1.15134120E-04  3.48008863E-04  0.00000000E+00
  1.14557940E-10  1.85585226E-06  9.53490631E-07  4.65400948E-06  0.00000000E+00
  2.78911359E-06  4.16626666E-03  1.98901712E-04  1.51794016E-07  5.78140572E-03
  1.01894175E-01  4.48287544E-02  1.22732766E-01  0.00000000E+00  6.10850997E-02
  4.86008040E-01 -9.26953347E-02  4.55077140E-01  0.00000000E+00  4.83128210E-02
  1.00000000E+00  2.89127762E-08  4.92515140E-05  2.48585392E-05  1.05908017E-04
  0.00000000E+00  7.47252899E-06  1.37187357E-03  6.94471527E-05  2.51368218E-03
  0.00000000E+00  1.32819924E-03  3.64817255E-02  7.70098396E-03  5.20178972E-02
  0.00000000E+00  9.08755527E-04  2.82732793E-02  2.57426777E-02  3.28670656E-02
  0.00000000E+00  3.49483382E-06  8.65694393E-04  1.08220547E-03  1.22141280E-03
  0.00000000E+00  1.98010905E-08  3.93342513E-05  4.25413464E-05  7.68774796E-05
  0.00000000E+00  5.46289495E-04  1.29837666E-01  2.65253357E-04  2.09214797E-06
  5.78115091E-03  1.01890936E-01  1.23890403E-01  4.15111308E-02  0.00000000E+00
  6.10855863E-02  4.86009995E-01  4.52423178E-01 -1.04890398E-01  0.00000000E+00
  1.41444010E-02  1.52206713E-01  1.00000000E+00  6.33881337E-08  2.65883849E-02
  8.91390579E-03 -4.36867613E-02  0.00000000E+00  3.88855300E-19  1.14385145E-03
 -8.01845134E-04 -2.65035251E-03  0.00000000E+00  1.49285301E-41  2.34485481E-06
 -1.01849417E-06 -8.45660794E-06  0.00000000E+00  9.22885273E-53  1.06745412E-07
  8.75425165E-08 -4.29251956E-07  0.00000000E+00  1.51058218E-41  2.34817294E-06
  4.25489439E-06 -7.39213628E-06  0.00000000E+00  3.91179352E-19  1.14467049E-03
  1.77706099E-03 -2.12585437E-03  0.00000000E+00  1.01718898E-03  2.04866535E-07
  2.05131400E-07  1.01737670E-03  9.02103110E-96  7.80481249E-13  8.64777418E-13
 -4.23976818E-12  0.00000000E+00  0.00000000E+00  3.77253242E-16  7.93530181E-17
 -2.37488839E-15  0.00000000E+00  3.63456933E-12  5.21668328E-17  2.01943026E-12
  1.00000000E+00  2.65883849E-02  2.98493812E-01  6.72461792E-02 -3.29571329E-01
  0.00000000E+00  1.14385145E-03  4.65343397E-02 -2.04492035E-02 -6.75911038E-02
  0.00000000E+00  2.34485481E-06  1.52711465E-03 -3.63378998E-04 -3.01715397E-03
  0.00000000E+00  1.06745412E-07  2.93227592E-04  1.28934634E-04 -6.32212166E-04
  0.00000000E+00  2.34817294E-06  1.52827564E-03  1.51709288E-03 -2.63568407E-03
  0.00000000E+00  1.14467049E-03  4.65534821E-02  4.53072739E-02 -5.41999777E-02
  0.00000000E+00  3.04856017E-02  1.57958181E-04  1.58079960E-04  3.04893694E-02
  7.80481249E-13  5.63355791E-07  3.29930155E-07 -1.61755770E-06  0.00000000E+00
  3.77253242E-16  9.94828373E-09  1.10713375E-09 -3.31344561E-08  0.00000000E+00
  2.40635377E-07  3.25513077E-10  1.69926553E-07  2.48362390E-01  1.00000000E+00
 -8.91390579E-03 -6.72461792E-02  1.45183790E-01  9.37156439E-02  0.00000000E+00
  8.01845134E-04  2.04492035E-02  9.09203528E-03 -3.25037330E-02  0.00000000E+00
  1.01849417E-06  3.63378998E-04  4.19401547E-04 -7.37997206E-04  0.00000000E+00