Jobname.Temp
SP        R                             non-standard        
Number of atoms                            I                6
Charge                                     I               -2
Multiplicity                               I                1
Number of electrons                        I               52
Number of alpha electrons                  I               26
Number of beta electrons                   I               26
Atomic numbers                             I   N=           6
          42           8          17          17          17          17
Current cartesian coordinates              R   N=          18
 -1.07200562E-05  5.58764520E-01  3.72929475E-15 -2.57584442E-06  3.75182343E+00
  9.05119947E-16 -4.57356150E+00 -7.86514277E-01  1.60647850E-09 -8.44404769E-06
 -7.86510728E-01 -4.57358243E+00  4.57360608E+00 -7.86505283E-01 -1.60649420E-09
 -8.44083472E-06 -7.86510728E-01  4.57358243E+00
Nuclear charges                            R   N=           6
  4.20000000E+01  8.00000000E+00  1.70000000E+01  1.70000000E+01  1.70000000E+01
  1.70000000E+01
Number of basis functions                  I               68
Number of contracted shells                I               28
Number of primitive shells                 I               53
Highest angular momentum                   I                2
Largest degree of contraction              I                6
Shell types                                I   N=          28
           0           0           0           1           1           1
          -2          -2           0          -1          -1          -2
           0           0           1           1           0           0
           1           1           0           0           1           1
           0           0           1           1
Number of primitives per shell             I   N=          28
           4           3           1           3           2           1
           3           1           6           3           1           1
           2           1           2           1           2           1
           2           1           2           1           2           1
           2           1           2           1
Shell to atom map                          I   N=          28
           1           1           1           1           1           1
           1           1           2           2           2           2
           3           3           3           3           4           4
           4           4           5           5           5           5
           6           6           6           6
Primitive exponents                        R   N=          53
  2.36100000E+00  1.30900000E+00  4.50000000E-01  1.68100000E-01  2.36100000E+00
  1.30900000E+00  4.50000000E-01  4.23000000E-02  4.89500000E+00  1.04400000E+00
  3.87700000E-01  4.99500000E-01  7.80000000E-02  2.47000000E-02  2.99300000E+00
  1.06300000E+00  3.72100000E-01  1.17800000E-01  5.48467170E+03  8.25234950E+02
  1.88046960E+02  5.29645000E+01  1.68975700E+01  5.79963530E+00  1.55396160E+01
  3.59993360E+00  1.01376180E+00  2.70005800E-01  8.00000000E-01  2.23100000E+00
  4.72000000E-01  1.63100000E-01  6.29600000E+00  6.33300000E-01  1.81900000E-01
  2.23100000E+00  4.72000000E-01  1.63100000E-01  6.29600000E+00  6.33300000E-01
  1.81900000E-01  2.23100000E+00  4.72000000E-01  1.63100000E-01  6.29600000E+00
  6.33300000E-01  1.81900000E-01  2.23100000E+00  4.72000000E-01  1.63100000E-01
  6.29600000E+00  6.33300000E-01  1.81900000E-01
Contraction coefficients                   R   N=          53
  8.13925842E-01 -1.13600832E+00 -1.16115912E+00  1.00647853E+00 -9.12175979E-01
  1.14774527E+00  6.09710886E-01  1.00000000E+00 -9.08257996E-02  7.04289897E-01
  3.97317898E-01 -1.08194499E-01  1.03680929E+00  1.00000000E+00  5.27063001E-02
  5.00390701E-01  5.79402401E-01  1.00000000E+00  1.83109981E-03  1.39500985E-02
  6.84450927E-02  2.32714275E-01  4.70192950E-01  3.58520862E-01 -1.10777504E-01
 -1.48026305E-01  1.13076704E+00  1.00000000E+00  1.00000000E+00 -4.90058909E-01
  1.25426842E+00  1.00000000E+00 -6.35640979E-02  1.01413547E+00  1.00000000E+00
 -4.90058909E-01  1.25426842E+00  1.00000000E+00 -6.35640979E-02  1.01413547E+00
  1.00000000E+00 -4.90058909E-01  1.25426842E+00  1.00000000E+00 -6.35640979E-02
  1.01413547E+00  1.00000000E+00 -4.90058909E-01  1.25426842E+00  1.00000000E+00
 -6.35640979E-02  1.01413547E+00  1.00000000E+00
P(S=P) Contraction coefficients            R   N=          53
  0.00000000E+00  0.00000000E+00  0.00000000E+00  0.00000000E+00  0.00000000E+00
  0.00000000E+00  0.00000000E+00  0.00000000E+00  0.00000000E+00  0.00000000E+00
  0.00000000E+00  0.00000000E+00  0.00000000E+00  0.00000000E+00  0.00000000E+00
  0.00000000E+00  0.00000000E+00  0.00000000E+00  0.00000000E+00  0.00000000E+00
  0.00000000E+00  0.00000000E+00  0.00000000E+00  0.00000000E+00  7.08742995E-02
  3.39752798E-01  7.27158595E-01  1.00000000E+00  0.00000000E+00  0.00000000E+00
  0.00000000E+00  0.00000000E+00  0.00000000E+00  0.00000000E+00  0.00000000E+00
  0.00000000E+00  0.00000000E+00  0.00000000E+00  0.00000000E+00  0.00000000E+00
  0.00000000E+00  0.00000000E+00  0.00000000E+00  0.00000000E+00  0.00000000E+00
  0.00000000E+00  0.00000000E+00  0.00000000E+00  0.00000000E+00  0.00000000E+00
  0.00000000E+00  0.00000000E+00  0.00000000E+00
Coordinates of each shell                  R   N=          84
 -1.07200562E-05  5.58764520E-01  3.72929475E-15 -1.07200562E-05  5.58764520E-01
  3.72929475E-15 -1.07200562E-05  5.58764520E-01  3.72929475E-15 -1.07200562E-05
  5.58764520E-01  3.72929475E-15 -1.07200562E-05  5.58764520E-01  3.72929475E-15
 -1.07200562E-05  5.58764520E-01  3.72929475E-15 -1.07200562E-05  5.58764520E-01
  3.72929475E-15 -1.07200562E-05  5.58764520E-01  3.72929475E-15 -2.57584442E-06
  3.75182343E+00  9.05119947E-16 -2.57584442E-06  3.75182343E+00  9.05119947E-16
 -2.57584442E-06  3.75182343E+00  9.05119947E-16 -2.57584442E-06  3.75182343E+00
  9.05119947E-16 -4.57356150E+00 -7.86514277E-01  1.60647850E-09 -4.57356150E+00
 -7.86514277E-01  1.60647850E-09 -4.57356150E+00 -7.86514277E-01  1.60647850E-09
 -4.57356150E+00 -7.86514277E-01  1.60647850E-09 -8.44404769E-06 -7.86510728E-01
 -4.57358243E+00 -8.44404769E-06 -7.86510728E-01 -4.57358243E+00 -8.44404769E-06
 -7.86510728E-01 -4.57358243E+00 -8.44404769E-06 -7.86510728E-01 -4.57358243E+00
  4.57360608E+00 -7.86505283E-01 -1.60649420E-09  4.57360608E+00 -7.86505283E-01
 -1.60649420E-09  4.57360608E+00 -7.86505283E-01 -1.60649420E-09  4.57360608E+00
 -7.86505283E-01 -1.60649420E-09 -8.44083472E-06 -7.86510728E-01  4.57358243E+00
 -8.44083472E-06 -7.86510728E-01  4.57358243E+00 -8.44083472E-06 -7.86510728E-01
  4.57358243E+00 -8.44083472E-06 -7.86510728E-01  4.57358243E+00
Overlap Matrix                             R   N=        2346
  1.00000000E+00 -8.03643499E-01  1.00000000E+00  1.11323197E-01  3.68725520E-01
  1.00000000E+00  2.58782018E-21 -4.17790202E-21  0.00000000E+00  1.00000000E+00
 -2.87805974E-16  3.05027324E-16  0.00000000E+00  2.81740686E-38  1.00000000E+00
 -2.25342082E-31  1.23516088E-30 -2.50897609E-32  0.00000000E+00  0.00000000E+00
  1.00000000E+00 -2.98632571E-22  1.35326363E-22  0.00000000E+00  2.26251625E-01
  0.00000000E+00  0.00000000E+00  1.00000000E+00 -5.04575852E-17 -1.23271074E-17
 -6.00010966E-17  0.00000000E+00  2.26251625E-01  0.00000000E+00  0.00000000E+00
  1.00000000E+00 -9.82100149E-32  0.00000000E+00 -4.74183834E-32  0.00000000E+00
  0.00000000E+00  2.26251625E-01  0.00000000E+00  0.00000000E+00  1.00000000E+00
  3.94784017E-23 -4.42438953E-23  5.04684017E-22  9.58325572E-02  0.00000000E+00
  0.00000000E+00  6.87735956E-01  0.00000000E+00  0.00000000E+00  1.00000000E+00
  7.19868648E-18  6.29884465E-18 -3.30749718E-17  0.00000000E+00  9.58325572E-02
  0.00000000E+00  0.00000000E+00  6.87735956E-01  0.00000000E+00  0.00000000E+00
  1.00000000E+00  1.36384925E-31  0.00000000E+00  0.00000000E+00  0.00000000E+00
  0.00000000E+00  9.58325572E-02  0.00000000E+00  0.00000000E+00  6.87735956E-01
  0.00000000E+00  0.00000000E+00  1.00000000E+00  0.00000000E+00  0.00000000E+00
  0.00000000E+00 -1.11966588E-21  7.12814436E-17 -3.40681595E-31 -3.67671207E-22
  4.77167431E-18 -6.78095704E-32 -6.33143819E-23  0.00000000E+00  2.28983983E-33
  1.00000000E+00 -2.84309510E-51  1.45441875E-51  0.00000000E+00 -2.95038916E-31
  1.52088667E-67  1.93931819E-21 -5.87248106E-32  0.00000000E+00  6.36825211E-22
  1.98305947E-33  0.00000000E+00  1.09663726E-22 -6.60797463E-52  1.00000000E+00
  1.86325080E-46 -9.53167875E-47  0.00000000E+00  1.52088667E-67 -2.95038916E-31
 -1.23463082E-16  0.00000000E+00 -5.87248106E-32 -8.26478234E-18  0.00000000E+00
  1.98305947E-33  0.00000000E+00  5.71118320E-47 -2.12430360E-37  1.00000000E+00
  2.53590214E-17 -5.06959125E-17  4.40432590E-18  1.93931819E-21  1.23463082E-16
 -7.81743706E-48  6.36825211E-22  8.26478234E-18 -8.29435584E-49  1.09663726E-22
  0.00000000E+00 -5.59850214E-50  2.47902802E-18 -1.14453478E-51 -9.89205947E-47
  1.00000000E+00 -4.75120136E-37  2.88733472E-37  0.00000000E+00 -1.23463082E-16
  1.93931819E-21  1.52088667E-67 -8.26478234E-18  6.36825211E-22  0.00000000E+00
  0.00000000E+00  1.09663726E-22  0.00000000E+00  2.45293451E-37  9.89205947E-47
 -1.14453478E-51 -7.05800770E-54  1.00000000E+00  0.00000000E+00  0.00000000E+00
  0.00000000E+00  1.75361356E-22 -1.16943919E-17  1.63317990E-31  0.00000000E+00
  2.60670989E-18  0.00000000E+00  0.00000000E+00  0.00000000E+00  0.00000000E+00
  4.19703203E-01  0.00000000E+00  0.00000000E+00  1.94312234E-17  0.00000000E+00
  1.00000000E+00  8.26141951E-52 -5.75553325E-52  0.00000000E+00  1.41437528E-31
 -2.68940583E-68 -3.03734779E-22  0.00000000E+00  0.00000000E+00  0.00000000E+00
  0.00000000E+00  0.00000000E+00  0.00000000E+00  0.00000000E+00  4.19703203E-01
  0.00000000E+00  0.00000000E+00  0.00000000E+00  0.00000000E+00  1.00000000E+00
 -5.41420389E-47  3.77194627E-47  0.00000000E+00 -2.68940583E-68  1.41437528E-31
  2.02552810E-17  0.00000000E+00  0.00000000E+00 -4.51495397E-18  0.00000000E+00
  0.00000000E+00  0.00000000E+00  0.00000000E+00  0.00000000E+00  4.19703203E-01
  0.00000000E+00  0.00000000E+00  0.00000000E+00  0.00000000E+00  1.00000000E+00
  1.35104026E-17 -5.92280510E-18 -2.81620819E-18 -3.03734779E-22 -2.02552810E-17
  4.83016977E-48  0.00000000E+00  4.51495397E-18  0.00000000E+00  0.00000000E+00
  0.00000000E+00  0.00000000E+00 -5.55343558E-18  0.00000000E+00  0.00000000E+00
  4.19703203E-01  0.00000000E+00  2.47902802E-17  0.00000000E+00  0.00000000E+00
  1.00000000E+00  9.62477466E-38 -5.85637218E-38  0.00000000E+00  2.02552810E-17
 -3.03734779E-22 -2.68940583E-68 -4.51495397E-18  0.00000000E+00  0.00000000E+00
  0.00000000E+00  0.00000000E+00  0.00000000E+00  0.00000000E+00  0.00000000E+00
  0.00000000E+00  0.00000000E+00  4.19703203E-01  0.00000000E+00  0.00000000E+00
  0.00000000E+00  0.00000000E+00  1.00000000E+00  1.88220350E-02  1.87647218E-03
  2.82355582E-02  1.92946375E-08  7.56474859E-03 -6.69081685E-18  1.42441089E-07
  5.58461400E-02 -4.93944102E-17  5.77004627E-08  2.26223215E-02 -2.00088355E-17
 -1.30021290E-02 -1.01608926E-22 -3.98372853E-17 -2.25203480E-02  1.14880738E-07
 -3.80486319E-02 -2.97342122E-22 -1.16577386E-16 -6.59021636E-02  3.36179939E-07
  1.00000000E+00  9.32256884E-02  2.76927859E-02  1.71560558E-01  1.85445994E-07
  7.27068501E-02 -6.43072552E-17  7.86728956E-07  3.08448746E-01 -2.72814627E-16
  3.47296546E-07  1.36162758E-01 -1.20432300E-16 -8.28263145E-02 -6.47270373E-22
 -2.53771942E-16 -1.43459385E-01  7.31814627E-07 -1.89080872E-01 -1.47762758E-21
 -5.79325790E-16 -3.27497677E-01  1.67063027E-06  2.33689906E-01  1.00000000E+00
 -6.71280072E-08 -1.06606438E-07 -8.57113918E-08  1.63324815E-02 -2.75914449E-07
  2.44038916E-22  7.36972298E-02 -2.45940734E-07  2.17527971E-22  3.21614292E-02
 -4.03994427E-08  3.57322215E-23  2.05220712E-07 -5.96049902E-17  9.32833538E-22
  6.99224382E-07  6.73903913E-02  1.99821597E-08 -1.40541152E-16  7.78151578E-22
  8.45180975E-07  1.58898159E-01  2.16766067E-22  3.30116513E-22  1.00000000E+00
 -2.63185301E-02 -4.17966338E-02 -3.36044214E-02 -2.75914449E-07 -9.18438674E-02
  9.56790737E-17 -2.45940734E-07 -2.27274798E-02  8.52850645E-17 -4.03994427E-08
  1.63222290E-02  1.40093470E-17  8.04598215E-02  9.32833538E-22  3.06126223E-16
  1.39360499E-01 -8.82791242E-07  7.83430184E-03  7.78151578E-22  1.64544707E-16
  1.35694088E-02 -4.74505661E-07 -1.55987782E-16  1.38408286E-16 -3.74479650E-37
  1.00000000E+00  2.32780326E-17  3.69679995E-17  2.97222077E-17  2.44038916E-22
  9.56790737E-17  1.63324815E-02  2.17527971E-22  8.52850645E-17  7.36972298E-02
  3.57322215E-23  1.40093470E-17  3.21614292E-02 -1.74403421E-16  1.71885841E-07
  6.73903913E-02 -1.82865607E-16  9.32833538E-22 -2.50353645E-16  4.05285430E-07
  1.58898159E-01 -1.52542929E-16  7.78151578E-22  2.21149637E-32 -1.84455294E-31
 -2.37658063E-52  0.00000000E+00  1.00000000E+00  9.44843332E-02  1.44042170E-01
  3.89967508E-01  5.11232768E-07  2.00436383E-01 -1.77280595E-16  1.43562461E-06
  5.62857905E-01 -4.97832692E-16  7.68287411E-07  3.01218465E-01 -2.66419638E-16
 -1.10337156E-01 -8.62261862E-22 -3.38062541E-16 -1.91109560E-01  9.74887573E-07
 -2.56977373E-01 -2.00822457E-21 -7.87354204E-16 -4.45097866E-01  2.27053203E-06
  1.67279760E-01  7.63640773E-01  0.00000000E+00  0.00000000E+00  0.00000000E+00
  1.00000000E+00  2.41596781E-07 -8.10055998E-07 -4.47048188E-07  1.20804491E-01
 -1.12917693E-06  9.98726653E-22  3.39238624E-01 -9.71505476E-07  8.59270487E-22
  1.81546597E-01 -2.13675860E-07  1.88990556E-22  2.41157610E-07 -2.03752795E-16
  1.77826716E-21  1.59284114E-06  2.30366292E-01 -1.29403997E-07 -4.74544204E-16
  2.02426208E-21  2.51279861E-06  5.36527554E-01 -2.02049753E-23  0.00000000E+00
  5.01520641E-01  0.00000000E+00  0.00000000E+00  0.00000000E+00  1.00000000E+00
  9.47215985E-02 -3.17594459E-01 -1.75271867E-01 -1.12917693E-06 -3.21906059E-01
  3.91565585E-16 -9.71505476E-07 -4.16544957E-02  3.36889729E-16 -2.13675860E-07
  9.77718098E-02  7.40965484E-17  9.45494148E-02  1.77826716E-21  4.93443200E-16
  1.63764390E-01 -1.42296642E-06 -5.07347549E-02  2.02426208E-21  3.19097745E-16
 -8.78751731E-02 -9.20197858E-07 -1.68743049E-17  0.00000000E+00  0.00000000E+00
  5.01520641E-01  0.00000000E+00  0.00000000E+00  0.00000000E+00  1.00000000E+00
 -8.37787085E-17  2.80903764E-16  1.55023257E-16  9.98726653E-22  3.91565585E-16
  1.20804491E-01  8.59270487E-22  3.36889729E-16  3.39238624E-01  1.88990556E-22
  7.40965484E-17  1.81546597E-01 -4.36536609E-16  5.87571952E-07  2.30366292E-01
 -3.48597997E-16  1.77826716E-21 -7.77061144E-16  1.36846645E-06  5.36527554E-01
 -3.96820974E-16  2.02426208E-21  0.00000000E+00  0.00000000E+00  0.00000000E+00
  0.00000000E+00  5.01520641E-01  0.00000000E+00  0.00000000E+00  0.00000000E+00
  1.00000000E+00  4.21140906E-02 -5.35562832E-02 -4.55243480E-03 -2.23536097E-07
 -8.76406394E-02  1.78407231E-16  5.55760557E-08  2.17894163E-02  6.13303642E-17
  1.01180058E-08  3.96691413E-03  1.04198356E-17  7.50661037E-02  1.14034717E-21
  4.47090007E-16  6.33277971E-02 -3.23047588E-07  5.73622084E-02  4.79768458E-22
  1.88100334E-16 -4.95134734E-02  2.52577997E-07  0.00000000E+00  0.00000000E+00
  0.00000000E+00 -4.90613279E-16  7.23332737E-32  0.00000000E+00  0.00000000E+00
  0.00000000E+00 -2.86532118E-31  1.00000000E+00  3.29112834E-22 -4.18531183E-22
 -3.55763284E-23  5.82497005E-17 -9.82036532E-22 -1.67977525E-07  4.65358851E-17
 -6.71089880E-23 -1.34197820E-07  8.04160276E-18 -1.00211957E-23 -2.31899653E-08
  1.14034717E-21  3.85037829E-02 -5.57863456E-07  1.97513923E-21  1.93450756E-16
  4.79768458E-22  8.59488256E-02 -4.59000495E-07  8.30983345E-22  1.59167968E-16
  0.00000000E+00  0.00000000E+00  6.26424526E-32  0.00000000E+00  0.00000000E+00
  0.00000000E+00 -2.48144093E-31  0.00000000E+00  0.00000000E+00  0.00000000E+00
  1.00000000E+00  1.29033564E-16 -1.64091353E-16 -1.39482268E-17 -9.82036532E-22
 -3.26772275E-16 -6.58580782E-02 -6.71089880E-23  2.02248118E-17 -5.26142441E-02
 -1.00211957E-23  4.11264446E-18 -9.09196957E-03  4.47090007E-16 -5.57863456E-07
 -1.80214852E-01  3.87481097E-16 -2.47003276E-21  1.88100334E-16 -4.59000495E-07
 -9.40091210E-02  7.46339948E-18 -4.44045877E-22  7.89451461E-48 -5.62138983E-47
  0.00000000E+00  6.26424526E-32  8.49767126E-16  0.00000000E+00  0.00000000E+00
 -2.48144093E-31  0.00000000E+00  0.00000000E+00  0.00000000E+00  1.00000000E+00
  7.29437447E-02 -9.27622035E-02 -7.88504837E-03 -7.23130927E-07 -1.51798040E-01
  1.92510988E-16 -1.72135088E-07  3.77403760E-02  1.31555366E-17 -2.88550304E-08
  6.87089683E-03  1.96447915E-18  6.33277971E-02  1.97513923E-21  3.87481097E-16
  1.48190745E-01 -1.67526175E-06 -4.95134734E-02  8.30983345E-22  7.46339948E-18
  1.88973964E-04 -4.80523068E-07 -1.52509568E-19 -1.49494695E-17  0.00000000E+00
 -8.49767126E-16 -1.54078684E-48 -3.94322612E-17  0.00000000E+00  0.00000000E+00
 -4.64939926E-48  2.47902802E-17  0.00000000E+00  0.00000000E+00  1.00000000E+00
 -3.72100433E-07  4.73198302E-07  4.02231875E-08 -6.58580782E-02  9.42329279E-07
 -9.82036532E-22 -5.26142441E-02 -5.83232843E-08 -6.71089880E-23 -9.09196957E-03
 -1.18598351E-08 -1.00211957E-23 -3.23047588E-07  1.93450756E-16 -2.47003276E-21
 -1.67526175E-06 -1.80214852E-01  2.52577997E-07  1.59167968E-16 -4.44045877E-22
 -4.80523068E-07 -9.40091210E-02  0.00000000E+00  0.00000000E+00  8.49767126E-16
  0.00000000E+00  0.00000000E+00  0.00000000E+00  0.00000000E+00  0.00000000E+00
  0.00000000E+00  0.00000000E+00  0.00000000E+00  0.00000000E+00  0.00000000E+00
  1.00000000E+00  4.91183080E-02  4.38364541E-03  1.84617947E-01 -1.33636936E-02
 -3.93083942E-03  4.69404139E-12 -3.12110841E-01 -9.18052772E-02  1.09629960E-10
 -2.50150528E-01 -7.35800733E-02  8.78661965E-11 -1.94298470E-02 -2.17591837E-11
 -6.40031560E-12  2.82937909E-02  1.82213683E-02 -1.77374224E-01 -1.98638636E-10
 -5.84282011E-11  2.58292780E-01  1.66342074E-01  3.00020831E-09  1.98717399E-06
 -3.75774803E-06 -3.72880942E-06  1.31992134E-15  9.36879985E-04 -2.81937965E-03
 -2.79766746E-03  9.90316360E-13 -2.79608785E-05 -1.71425855E-14 -1.70105696E-14
  3.74395367E-07  4.84282150E-05  1.00000000E+00  7.76711434E-02  4.46697561E-02
  3.39007993E-01 -6.30572704E-02 -1.85478664E-02  2.21490738E-11 -4.80385372E-01
 -1.41302084E-01  1.68736943E-10 -4.26112371E-01 -1.25338050E-01  1.49673373E-10
 -4.09246037E-02 -4.58308275E-11 -1.34808256E-11  5.95945084E-02  3.83792150E-02
 -2.15907375E-01 -2.41791313E-10 -7.11212671E-11  3.14404849E-01  2.02478578E-01
  1.52795124E-04  1.83200904E-03 -1.66760040E-03 -1.65475812E-03  5.85750117E-13
  1.40061128E-02 -2.50696576E-02 -2.48765949E-02  8.80579956E-12 -2.57882820E-03
 -1.58105844E-12 -1.56888263E-12  3.45304362E-05  4.46652800E-03  8.49094041E-01
  1.00000000E+00  4.66798838E-02  4.90150599E-03  6.30585285E-02 -1.56375345E-02
 -5.08978674E-03  6.07800702E-12 -1.25010940E-01 -5.63393888E-02  6.72781038E-11
  2.93852562E-04 -1.53395179E-02  1.83178004E-11 -2.38585054E-02 -2.94904725E-11
 -9.64413716E-12  3.32480421E-02  2.46956306E-02 -9.14796635E-02 -1.39706593E-10
 -5.41296059E-11  1.13118726E-01  1.16991764E-01  6.42911186E-11  4.62496017E-07
 -9.89487144E-07 -1.04600033E-06  3.70262460E-16  7.46698096E-04 -2.17363631E-03
 -2.46867594E-03  8.73860174E-13 -1.20557486E-05 -7.39542726E-15 -7.87072223E-15
 -1.35380992E-06  2.08922593E-05  0.00000000E+00  0.00000000E+00  1.00000000E+00
  1.37305697E-02  1.44174459E-03  1.85482365E-02 -5.08978674E-03  1.69111782E-04
  1.78780435E-12 -5.63393888E-02  4.99545029E-02  1.97893958E-11 -1.53395179E-02
  4.79316706E-02  5.38805618E-12 -7.01781679E-03 -9.64413716E-12  4.59989578E-13
  1.53011456E-02 -1.30956660E-03 -2.69081197E-02 -5.41296059E-11  2.83962333E-11
  1.07497965E-01 -8.08426112E-02  6.37960094E-11  4.58934312E-07 -1.04600033E-06
 -9.73314024E-07  3.67411050E-16  7.40947736E-04 -2.46867594E-03 -2.13546596E-03
  8.67130532E-13 -1.19629066E-05 -7.87072223E-15 -7.27373118E-15  1.68717850E-06
  2.07079378E-05  1.43039696E-17  0.00000000E+00  0.00000000E+00  1.00000000E+00
 -1.63964629E-11 -1.72167012E-12 -2.21495158E-11  6.07800702E-12  1.78780435E-12
  1.66623787E-03  6.72781038E-11  1.97893958E-11  6.65263502E-02  1.83178004E-11
  5.38805618E-12  5.24436853E-02  1.40905115E-11 -9.38566806E-03 -2.76073031E-03
 -1.49752311E-11 -9.64413716E-12  1.08893713E-10 -1.26171310E-01 -3.71124311E-02
 -8.40514130E-11 -5.41296059E-11 -2.25824666E-20 -1.62453245E-16  3.70262460E-16
  3.67411050E-16  6.46309990E-08 -2.62280159E-13  8.73860174E-13  8.67130532E-13
  3.14198581E-04  5.16365561E-15 -1.52704115E-06 -1.51528133E-06 -6.08480394E-17
 -7.87072223E-15  3.43932678E-27  1.15941947E-26  8.27545964E-41  0.00000000E+00
  1.00000000E+00  8.10985980E-02  1.05757701E-01  2.33553246E-01 -1.31376053E-01
 -4.70977362E-02  5.62421150E-11 -2.92012886E-01 -1.55703176E-01  1.85934116E-10
  1.86666220E-02 -5.53678416E-02  6.61179234E-11 -7.05603659E-02 -9.82453494E-11
 -3.56246230E-11  9.23817063E-02  8.22716846E-02 -1.27689948E-01 -2.47509428E-10
 -1.09367868E-10  1.29579679E-01  2.07266987E-01  2.98338457E-04  3.63314533E-03
 -3.07073016E-03 -3.60136987E-03  1.27481038E-12  2.48567277E-02 -3.70960571E-02
 -4.71891430E-02  1.67039797E-11 -5.10653205E-03 -3.13543430E-12 -3.70960904E-12
 -1.63496151E-03  8.85767706E-03 -9.48661841E-16 -7.55923606E-16  6.37683639E-01
 -5.09562821E-33  9.49134717E-42  1.00000000E+00  2.38546000E-02  3.11079070E-02
  6.86980958E-02 -4.70977362E-02  1.48888683E-02  1.65432349E-11 -1.55703176E-01
  1.91532921E-01  5.46912533E-11 -5.53678416E-02  1.90614865E-01  1.94481366E-11
 -2.07548508E-02 -3.56246230E-11  1.23891122E-11  6.54730075E-02 -3.52711632E-02
 -3.75591281E-02 -1.09367868E-10  9.21392235E-11  2.46310358E-01 -2.62315615E-01
  2.96040937E-04  3.60516629E-03 -3.60136987E-03 -3.01504625E-03  1.26499300E-12
  2.46653047E-02 -4.71891430E-02 -3.63664247E-02  1.65753415E-11 -5.06720639E-03
 -3.70960904E-12 -3.07807681E-12  1.78440687E-03  8.76312606E-03 -1.78069719E-17
 -9.44904508E-17 -5.09562821E-33  6.37683639E-01  1.18641840E-42  0.00000000E+00
  1.00000000E+00 -2.84861495E-11 -3.71477405E-11 -8.20363465E-11  5.62421150E-11
  1.65432349E-11  2.87423465E-02  1.85934116E-10  5.46912533E-11  2.37331950E-01
  6.61179234E-11  1.94481366E-11  2.06900939E-01  6.43928429E-11 -6.51035957E-02
 -1.91497791E-02 -5.53172308E-11 -3.56246230E-11  2.60161082E-10 -3.53901413E-01
 -1.04097689E-01 -1.69824326E-10 -1.09367868E-10 -1.04792363E-13 -1.27615423E-12
  1.27481038E-12  1.26499300E-12  5.58589292E-04 -8.73100724E-12  1.67039797E-11
  1.65753415E-11  1.04593123E-02  2.83805104E-12 -1.71660842E-03 -1.70338873E-03
 -2.86787452E-14 -3.70960904E-12  6.63361398E-26  3.52004360E-25  9.49134717E-42
  1.18641840E-42  6.37683639E-01  0.00000000E+00 -1.67048768E-41  1.00000000E+00
  4.91168970E-02  4.38335396E-03  1.84615961E-01  6.64997316E-09 -3.93058479E-03
 -1.33629557E-02  1.55317847E-07 -9.18033728E-02 -3.12107350E-01  1.24485554E-07
 -7.35793986E-02 -2.50150626E-01  3.42165699E-02 -3.08262151E-08  1.82203821E-02
 -2.67967501E-03 -9.06723444E-09  3.12371839E-01 -2.81420420E-07  1.66338539E-01
 -2.44634401E-02 -8.27771077E-08  2.99996595E-09  1.98705704E-06 -4.82117535E-12
 -3.72858672E-06 -3.75754585E-06  9.36850703E-04 -3.61735293E-09 -2.79757800E-03
 -2.81930619E-03  1.43042101E-05  6.26160205E-11  4.84257977E-05 -2.40262918E-05
  6.21334433E-11  8.10208870E-05  6.12560316E-03  4.74727059E-05  3.68347952E-11
 -4.74730108E-05  1.17368748E-02  9.10681981E-09 -1.17369502E-02  1.00000000E+00
  7.76701933E-02  4.46681993E-02  3.39004805E-01  3.13791066E-08 -1.85471784E-02
 -6.30555342E-02  2.39058328E-07 -1.41299672E-01 -4.80381765E-01  2.12051771E-07
 -1.25336967E-01 -4.26112761E-01  7.20713529E-02 -6.49301503E-08  3.83781189E-02
 -5.64427713E-03 -1.90985787E-08  3.80234584E-01 -3.42558973E-07  2.02475567E-01
 -2.97781196E-02 -1.00760425E-07  1.52790657E-04  1.83196220E-03 -2.13959526E-09
 -1.65471402E-03 -1.66756583E-03  1.40058524E-02 -3.21655661E-08 -2.48761130E-02
 -2.50693204E-02  1.31931437E-03  5.77523785E-09  4.46643683E-03 -2.21600716E-03
  5.73072850E-09  6.12560316E-03  3.29867993E-02  4.81622555E-03  3.73698272E-09
 -4.81625649E-03  5.04042008E-02  3.91093867E-08 -5.04045245E-02  8.49094041E-01
  1.00000000E+00 -2.32293570E-08 -2.43902867E-09 -3.13804655E-08  1.66612206E-03
  2.53272520E-09  8.61060031E-09  6.65250683E-02  2.80364621E-08  9.53166056E-08
  5.24433362E-02  7.63357621E-09  2.59521537E-08 -2.83540125E-08 -9.38510831E-03
 -1.36626839E-08  6.67980118E-09 -2.76053927E-03 -1.80263659E-07 -1.26168677E-01
 -7.66875077E-08  7.40653276E-08 -3.71113019E-02  8.24814113E-17  5.93373190E-13
  6.46263923E-08 -1.34199653E-12 -1.35241953E-12  9.58033921E-10  3.14187708E-04
 -3.16737576E-09 -3.19197609E-09  9.62305284E-12 -1.52695032E-06  2.87487448E-11
 -1.62227666E-11 -1.51518222E-06 -4.74727059E-05 -4.81622555E-03 -2.22378380E-05
 -1.86635700E-11  2.40537746E-05 -8.51722213E-03 -7.95469459E-09  1.02520810E-02
  0.00000000E+00 -1.98269866E-21  1.00000000E+00  1.37301242E-02  1.44163123E-03
  1.85479817E-02  2.53272520E-09  1.69109837E-04 -5.08944829E-03  2.80364621E-08
  4.99536193E-02 -5.63385732E-02  7.63357621E-09  4.79313754E-02 -1.53394815E-02
  1.67591429E-02 -1.36626839E-08 -1.30953623E-03  1.57286337E-03  6.51680735E-10
  1.06548038E-01 -7.66875077E-08 -8.08411630E-02  3.04449759E-02  4.02299893E-08
  6.37892365E-11  4.58901250E-07 -1.34199653E-12 -9.73243021E-07 -1.04593032E-06
  7.40921517E-04 -3.16737576E-09 -2.13538824E-03 -2.46860128E-03  7.44224891E-06
  2.87487448E-11  2.07066712E-05 -9.51595210E-06  2.65680039E-11 -3.68347952E-11
 -3.73698272E-09 -1.86635700E-11  1.81578214E-06  1.86636899E-11 -7.95469459E-09
  1.73479298E-03  7.95474569E-09  0.00000000E+00  0.00000000E+00 -8.47407067E-38
  1.00000000E+00  4.66788152E-02  4.90116745E-03  6.30582651E-02  8.61060031E-09
 -5.08944829E-03 -1.56366651E-02  9.53166056E-08 -5.63385732E-02 -1.25011280E-01
  2.59521537E-08 -1.53394815E-02  2.93128746E-04  4.07211986E-02 -4.17791084E-08
  2.46942843E-02 -4.03778604E-03 -1.36626839E-08  1.43704780E-01 -1.97930498E-07
  1.16990338E-01 -2.26637570E-02 -7.66875077E-08  6.42846739E-11  4.62465438E-07
 -1.35241953E-12 -1.04593032E-06 -9.89427448E-07  7.46676096E-04 -3.19197609E-09
 -2.46860128E-03 -2.17358667E-03  4.85529574E-06  2.70128538E-11  2.08911231E-05
 -1.11168108E-05  2.87487448E-11  4.74730108E-05  4.81625649E-03  2.40537746E-05
  1.86636899E-11 -2.22381470E-05  1.02520810E-02  7.95474569E-09 -8.51735384E-03
  0.00000000E+00  0.00000000E+00 -6.77925654E-37 -4.44285356E-32  1.00000000E+00
 -4.03585362E-08 -5.26278822E-08 -1.16225682E-07  2.87412749E-02  2.34370466E-08
  7.96798015E-08  2.37328407E-01  7.74837171E-08  2.63424283E-07  2.06899679E-01
  2.75533351E-08  9.36741008E-08 -1.13484393E-07 -6.51017386E-02 -5.04703813E-08
  3.98200730E-08 -1.91490498E-02 -3.92658635E-07 -3.53896778E-01 -1.54946895E-07
  1.98902106E-07 -1.04095331E-01  3.82777132E-10  4.66145457E-09  5.58573431E-04
 -4.62068025E-09 -4.65656808E-09  3.18923261E-08  1.04591044E-02 -6.05457958E-08
 -6.10160420E-08  5.27413913E-09 -1.71657073E-03  1.35502948E-08 -8.92540355E-09
 -1.70334124E-03 -1.17368748E-02 -5.04042008E-02 -8.51722213E-03 -7.95469459E-09
  1.02520810E-02 -6.24406331E-02 -6.57216628E-08  8.47026621E-02 -1.53771604E-21
 -1.44180986E-21  6.37683639E-01 -9.71913950E-39  0.00000000E+00  1.00000000E+00
  2.38546299E-02  3.11066448E-02  6.86972544E-02  2.34370466E-08  1.48883921E-02
 -4.70961623E-02  7.74837171E-08  1.91530279E-01 -1.55701603E-01  2.75533351E-08
  1.90613790E-01 -5.53677416E-02  6.70769665E-02 -5.04703813E-08 -3.52703230E-02
  1.47617379E-02  1.75520077E-08  2.32087862E-01 -1.54946895E-07 -2.62312663E-01
  9.06260378E-02  1.30537900E-07  2.96031077E-04  3.60506232E-03 -4.62068025E-09
 -3.01495496E-03 -3.60128322E-03  2.46647953E-02 -6.05457958E-08 -3.63656288E-02
 -4.71884110E-02  4.07889854E-03  1.35502948E-08  8.76291726E-03 -3.49602042E-03
  1.12433919E-08 -9.10681981E-09 -3.91093867E-08 -7.95469459E-09  1.73479298E-03
  7.95474569E-09 -6.57216628E-08  2.22614849E-02  6.57220850E-08  0.00000000E+00
 -9.44904508E-17 -9.71913950E-39  6.37683639E-01  0.00000000E+00  0.00000000E+00
  1.00000000E+00  8.10994749E-02  1.05754420E-01  2.33552618E-01  7.96798015E-08
 -4.70961623E-02 -1.31373305E-01  2.63424283E-07 -1.55701603E-01 -2.92016138E-01
  9.36741008E-08 -5.53677416E-02  1.86639028E-02  1.15284546E-01 -1.39188653E-07
  8.22699263E-02 -1.49157078E-02 -5.04703813E-08  1.76070561E-01 -3.50664700E-07
  2.07266601E-01 -4.57920576E-02 -1.54946895E-07  2.98330287E-04  3.63306207E-03
 -4.65656808E-09 -3.60128322E-03 -3.07068019E-03  2.48563615E-02 -6.10160420E-08
 -4.71884110E-02 -3.70958088E-02  1.13739075E-03  1.14530653E-08  8.85753869E-03
 -5.23974400E-03  1.35502948E-08  1.17369502E-02  5.04045245E-02  1.02520810E-02
  7.95474569E-09 -8.51735384E-03  8.47026621E-02  6.57220850E-08 -6.24417213E-02
 -1.42455775E-16 -7.55923606E-16  0.00000000E+00  0.00000000E+00  6.37683639E-01
  0.00000000E+00  0.00000000E+00  1.00000000E+00  4.91153866E-02  4.38304200E-03
  1.84613834E-01  1.33621672E-02 -3.93030742E-03 -4.69350513E-12  3.12103646E-01
 -9.18012219E-02 -1.09627431E-10  2.50150756E-01 -7.35785864E-02 -8.78662752E-11
 -1.94279931E-02 -2.17571802E-11  6.39959114E-12  2.82912995E-02 -1.82193061E-02
 -1.77369371E-01 -1.98633866E-10  5.84255641E-11  2.58287615E-01 -1.66334570E-01
  2.99971350E-09  1.98693521E-06  3.75733668E-06 -3.72835331E-06 -1.31977688E-15
  9.36820200E-04  2.81923073E-03 -2.79748373E-03 -9.90264082E-13 -2.79580316E-05
 -1.71410592E-14  1.70088364E-14  3.74979742E-07 -4.84232794E-05  4.17907620E-09
  3.98218587E-05  1.15845266E-09  1.13893684E-15 -4.06910308E-19  1.00467200E-04
  9.87746845E-11 -3.52894346E-14  8.10101429E-05  6.12519096E-03  4.74661263E-05