Jobname.Temp
SP        R                             STO-3G              
Number of atoms                            I               27
Charge                                     I                0
Multiplicity                               I                1
Number of electrons                        I              108
Number of alpha electrons                  I               54
Number of beta electrons                   I               54
Atomic numbers                             I   N=          27
           7           6           6           8           6           1
           1           6           6           7           1           6
           6           6           1           6           1           6
           1           6           1           1           1           1
           1           8           1
Current cartesian coordinates              R   N=          81
 -1.32248113E-01  6.27764598E-01  5.33145253E-01  2.59422272E+00  1.83438232E-01
 -2.44885336E-02  3.96261876E+00 -9.89447473E-02  2.58564654E+00  5.93043114E+00
 -1.24035666E+00  2.90642957E+00  3.69057174E+00  2.48237067E+00 -1.50347026E+00
  3.48517037E+00  4.16696044E+00 -3.40459066E-01  2.54279656E+00  2.75804300E+00
 -3.19093286E+00  6.43520661E+00  2.12983696E+00 -2.25218981E+00  8.47452399E+00
  3.06797755E+00 -1.05804216E+00  1.06786703E+01  2.33935364E+00 -2.32145497E+00
  1.24739526E+01  2.66684784E+00 -1.70616368E+00  1.00007367E+01  8.23216529E-01
 -4.37124210E+00  7.35897516E+00  6.72364181E-01 -4.39612956E+00  6.17168845E+00
 -7.24257865E-01 -6.31760190E+00  4.13175515E+00 -8.64938767E-01 -6.39028250E+00
  7.63104713E+00 -1.90626362E+00 -8.10144369E+00  6.74573467E+00 -2.99044683E+00
 -9.59142017E+00  1.02886440E+01 -1.73757950E+00 -8.03492706E+00  1.13818065E+01
 -2.69814596E+00 -9.47319840E+00  1.15026828E+01 -3.82489064E-01 -6.19219839E+00
  1.35411445E+01 -2.43351843E-01 -6.13379601E+00  8.59024552E+00  4.23776956E+00
  6.14913036E-01 -9.75056702E-01  1.41330838E+00 -1.03701764E+00  2.91405719E+00
 -1.53898156E+00 -1.12163999E+00 -1.00198547E+00 -1.10057454E+00  7.71860078E-01
  2.75443582E+00  1.13324746E+00  4.55301169E+00  1.13194885E+00  1.67097544E+00
  3.78849090E+00
Nuclear charges                            R   N=          27
  7.00000000E+00  6.00000000E+00  6.00000000E+00  8.00000000E+00  6.00000000E+00
  1.00000000E+00  1.00000000E+00  6.00000000E+00  6.00000000E+00  7.00000000E+00
  1.00000000E+00  6.00000000E+00  6.00000000E+00  6.00000000E+00  1.00000000E+00
  6.00000000E+00  1.00000000E+00  6.00000000E+00  1.00000000E+00  6.00000000E+00
  1.00000000E+00  1.00000000E+00  1.00000000E+00  1.00000000E+00  1.00000000E+00
  8.00000000E+00  1.00000000E+00
Number of basis functions                  I               87
Number of contracted shells                I               42
Number of primitive shells                 I              126
Highest angular momentum                   I                1
Largest degree of contraction              I                3
Shell types                                I   N=          42
           0          -1           0          -1           0          -1
           0          -1           0          -1           0           0
           0          -1           0          -1           0          -1
           0           0          -1           0          -1           0
          -1           0           0          -1           0           0
          -1           0           0          -1           0           0
           0           0           0           0          -1           0
Number of primitives per shell             I   N=          42
           3           3           3           3           3           3
           3           3           3           3           3           3
           3           3           3           3           3           3
           3           3           3           3           3           3
           3           3           3           3           3           3
           3           3           3           3           3           3
           3           3           3           3           3           3
Shell to atom map                          I   N=          42
           1           1           2           2           3           3
           4           4           5           5           6           7
           8           8           9           9          10          10
          11          12          12          13          13          14
          14          15          16          16          17          18
          18          19          20          20          21          22
          23          24          25          26          26          27
Primitive exponents                        R   N=         126
  9.91061690E+01  1.80523120E+01  4.88566020E+00  3.78045590E+00  8.78496600E-01
  2.85714400E-01  7.16168370E+01  1.30450960E+01  3.53051220E+00  2.94124940E+00
  6.83483100E-01  2.22289900E-01  7.16168370E+01  1.30450960E+01  3.53051220E+00
  2.94124940E+00  6.83483100E-01  2.22289900E-01  1.30709320E+02  2.38088610E+01
  6.44360830E+00  5.03315130E+00  1.16959610E+00  3.80389000E-01  7.16168370E+01
  1.30450960E+01  3.53051220E+00  2.94124940E+00  6.83483100E-01  2.22289900E-01
  3.42525091E+00  6.23913730E-01  1.68855400E-01  3.42525091E+00  6.23913730E-01
  1.68855400E-01  7.16168370E+01  1.30450960E+01  3.53051220E+00  2.94124940E+00
  6.83483100E-01  2.22289900E-01  7.16168370E+01  1.30450960E+01  3.53051220E+00
  2.94124940E+00  6.83483100E-01  2.22289900E-01  9.91061690E+01  1.80523120E+01
  4.88566020E+00  3.78045590E+00  8.78496600E-01  2.85714400E-01  3.42525091E+00
  6.23913730E-01  1.68855400E-01  7.16168370E+01  1.30450960E+01  3.53051220E+00
  2.94124940E+00  6.83483100E-01  2.22289900E-01  7.16168370E+01  1.30450960E+01
  3.53051220E+00  2.94124940E+00  6.83483100E-01  2.22289900E-01  7.16168370E+01
  1.30450960E+01  3.53051220E+00  2.94124940E+00  6.83483100E-01  2.22289900E-01
  3.42525091E+00  6.23913730E-01  1.68855400E-01  7.16168370E+01  1.30450960E+01
  3.53051220E+00  2.94124940E+00  6.83483100E-01  2.22289900E-01  3.42525091E+00
  6.23913730E-01  1.68855400E-01  7.16168370E+01  1.30450960E+01  3.53051220E+00
  2.94124940E+00  6.83483100E-01  2.22289900E-01  3.42525091E+00  6.23913730E-01
  1.68855400E-01  7.16168370E+01  1.30450960E+01  3.53051220E+00  2.94124940E+00
  6.83483100E-01  2.22289900E-01  3.42525091E+00  6.23913730E-01  1.68855400E-01
  3.42525091E+00  6.23913730E-01  1.68855400E-01  3.42525091E+00  6.23913730E-01
  1.68855400E-01  3.42525091E+00  6.23913730E-01  1.68855400E-01  3.42525091E+00
  6.23913730E-01  1.68855400E-01  1.30709320E+02  2.38088610E+01  6.44360830E+00
  5.03315130E+00  1.16959610E+00  3.80389000E-01  3.42525091E+00  6.23913730E-01
  1.68855400E-01
Contraction coefficients                   R   N=         126
  1.54328970E-01  5.35328141E-01  4.44634541E-01 -9.99672284E-02  3.99512824E-01
  7.00115459E-01  1.54328970E-01  5.35328140E-01  4.44634540E-01 -9.99672301E-02
  3.99512830E-01  7.00115471E-01  1.54328970E-01  5.35328140E-01  4.44634540E-01
 -9.99672301E-02  3.99512830E-01  7.00115471E-01  1.54328969E-01  5.35328136E-01
  4.44634536E-01 -9.99672287E-02  3.99512825E-01  7.00115461E-01  1.54328970E-01
  5.35328140E-01  4.44634540E-01 -9.99672301E-02  3.99512830E-01  7.00115471E-01
  1.54328971E-01  5.35328142E-01  4.44634542E-01  1.54328971E-01  5.35328142E-01
  4.44634542E-01  1.54328970E-01  5.35328140E-01  4.44634540E-01 -9.99672301E-02
  3.99512830E-01  7.00115471E-01  1.54328970E-01  5.35328140E-01  4.44634540E-01
 -9.99672301E-02  3.99512830E-01  7.00115471E-01  1.54328970E-01  5.35328141E-01
  4.44634541E-01 -9.99672284E-02  3.99512824E-01  7.00115459E-01  1.54328971E-01
  5.35328142E-01  4.44634542E-01  1.54328970E-01  5.35328140E-01  4.44634540E-01
 -9.99672301E-02  3.99512830E-01  7.00115471E-01  1.54328970E-01  5.35328140E-01
  4.44634540E-01 -9.99672301E-02  3.99512830E-01  7.00115471E-01  1.54328970E-01
  5.35328140E-01  4.44634540E-01 -9.99672301E-02  3.99512830E-01  7.00115471E-01
  1.54328971E-01  5.35328142E-01  4.44634542E-01  1.54328970E-01  5.35328140E-01
  4.44634540E-01 -9.99672301E-02  3.99512830E-01  7.00115471E-01  1.54328971E-01
  5.35328142E-01  4.44634542E-01  1.54328970E-01  5.35328140E-01  4.44634540E-01
 -9.99672301E-02  3.99512830E-01  7.00115471E-01  1.54328971E-01  5.35328142E-01
  4.44634542E-01  1.54328970E-01  5.35328140E-01  4.44634540E-01 -9.99672301E-02
  3.99512830E-01  7.00115471E-01  1.54328971E-01  5.35328142E-01  4.44634542E-01
  1.54328971E-01  5.35328142E-01  4.44634542E-01  1.54328971E-01  5.35328142E-01
  4.44634542E-01  1.54328971E-01  5.35328142E-01  4.44634542E-01  1.54328971E-01
  5.35328142E-01  4.44634542E-01  1.54328969E-01  5.35328136E-01  4.44634536E-01
 -9.99672287E-02  3.99512825E-01  7.00115461E-01  1.54328971E-01  5.35328142E-01
  4.44634542E-01
P(S=P) Contraction coefficients            R   N=         126
  0.00000000E+00  0.00000000E+00  0.00000000E+00  1.55916269E-01  6.07683714E-01
  3.91957386E-01  0.00000000E+00  0.00000000E+00  0.00000000E+00  1.55916272E-01
  6.07683728E-01  3.91957395E-01  0.00000000E+00  0.00000000E+00  0.00000000E+00
  1.55916272E-01  6.07683728E-01  3.91957395E-01  0.00000000E+00  0.00000000E+00
  0.00000000E+00  1.55916268E-01  6.07683714E-01  3.91957386E-01  0.00000000E+00
  0.00000000E+00  0.00000000E+00  1.55916272E-01  6.07683728E-01  3.91957395E-01
  0.00000000E+00  0.00000000E+00  0.00000000E+00  0.00000000E+00  0.00000000E+00
  0.00000000E+00  0.00000000E+00  0.00000000E+00  0.00000000E+00  1.55916272E-01
  6.07683728E-01  3.91957395E-01  0.00000000E+00  0.00000000E+00  0.00000000E+00
  1.55916272E-01  6.07683728E-01  3.91957395E-01  0.00000000E+00  0.00000000E+00
  0.00000000E+00  1.55916269E-01  6.07683714E-01  3.91957386E-01  0.00000000E+00
  0.00000000E+00  0.00000000E+00  0.00000000E+00  0.00000000E+00  0.00000000E+00
  1.55916272E-01  6.07683728E-01  3.91957395E-01  0.00000000E+00  0.00000000E+00
  0.00000000E+00  1.55916272E-01  6.07683728E-01  3.91957395E-01  0.00000000E+00
  0.00000000E+00  0.00000000E+00  1.55916272E-01  6.07683728E-01  3.91957395E-01
  0.00000000E+00  0.00000000E+00  0.00000000E+00  0.00000000E+00  0.00000000E+00
  0.00000000E+00  1.55916272E-01  6.07683728E-01  3.91957395E-01  0.00000000E+00
  0.00000000E+00  0.00000000E+00  0.00000000E+00  0.00000000E+00  0.00000000E+00
  1.55916272E-01  6.07683728E-01  3.91957395E-01  0.00000000E+00  0.00000000E+00
  0.00000000E+00  0.00000000E+00  0.00000000E+00  0.00000000E+00  1.55916272E-01
  6.07683728E-01  3.91957395E-01  0.00000000E+00  0.00000000E+00  0.00000000E+00
  0.00000000E+00  0.00000000E+00  0.00000000E+00  0.00000000E+00  0.00000000E+00
  0.00000000E+00  0.00000000E+00  0.00000000E+00  0.00000000E+00  0.00000000E+00
  0.00000000E+00  0.00000000E+00  0.00000000E+00  0.00000000E+00  0.00000000E+00
  1.55916268E-01  6.07683714E-01  3.91957386E-01  0.00000000E+00  0.00000000E+00
  0.00000000E+00
Coordinates of each shell                  R   N=         126
 -1.32248113E-01  6.27764598E-01  5.33145253E-01 -1.32248113E-01  6.27764598E-01
  5.33145253E-01  2.59422272E+00  1.83438232E-01 -2.44885336E-02  2.59422272E+00
  1.83438232E-01 -2.44885336E-02  3.96261876E+00 -9.89447473E-02  2.58564654E+00
  3.96261876E+00 -9.89447473E-02  2.58564654E+00  5.93043114E+00 -1.24035666E+00
  2.90642957E+00  5.93043114E+00 -1.24035666E+00  2.90642957E+00  3.69057174E+00
  2.48237067E+00 -1.50347026E+00  3.69057174E+00  2.48237067E+00 -1.50347026E+00
  3.48517037E+00  4.16696044E+00 -3.40459066E-01  2.54279656E+00  2.75804300E+00
 -3.19093286E+00  6.43520661E+00  2.12983696E+00 -2.25218981E+00  6.43520661E+00
  2.12983696E+00 -2.25218981E+00  8.47452399E+00  3.06797755E+00 -1.05804216E+00
  8.47452399E+00  3.06797755E+00 -1.05804216E+00  1.06786703E+01  2.33935364E+00
 -2.32145497E+00  1.06786703E+01  2.33935364E+00 -2.32145497E+00  1.24739526E+01
  2.66684784E+00 -1.70616368E+00  1.00007367E+01  8.23216529E-01 -4.37124210E+00
  1.00007367E+01  8.23216529E-01 -4.37124210E+00  7.35897516E+00  6.72364181E-01
 -4.39612956E+00  7.35897516E+00  6.72364181E-01 -4.39612956E+00  6.17168845E+00
 -7.24257865E-01 -6.31760190E+00  6.17168845E+00 -7.24257865E-01 -6.31760190E+00
  4.13175515E+00 -8.64938767E-01 -6.39028250E+00  7.63104713E+00 -1.90626362E+00
 -8.10144369E+00  7.63104713E+00 -1.90626362E+00 -8.10144369E+00  6.74573467E+00
 -2.99044683E+00 -9.59142017E+00  1.02886440E+01 -1.73757950E+00 -8.03492706E+00
  1.02886440E+01 -1.73757950E+00 -8.03492706E+00  1.13818065E+01 -2.69814596E+00
 -9.47319840E+00  1.15026828E+01 -3.82489064E-01 -6.19219839E+00  1.15026828E+01
 -3.82489064E-01 -6.19219839E+00  1.35411445E+01 -2.43351843E-01 -6.13379601E+00
  8.59024552E+00  4.23776956E+00  6.14913036E-01 -9.75056702E-01  1.41330838E+00
 -1.03701764E+00  2.91405719E+00 -1.53898156E+00 -1.12163999E+00 -1.00198547E+00
 -1.10057454E+00  7.71860078E-01  2.75443582E+00  1.13324746E+00  4.55301169E+00
  2.75443582E+00  1.13324746E+00  4.55301169E+00  1.13194885E+00  1.67097544E+00
  3.78849090E+00
Overlap Matrix                             R   N=        3828
  1.00000000E+00  2.35037765E-01  1.00000000E+00  5.10092588E-18  0.00000000E+00
  1.00000000E+00  2.39434488E-17  7.00132986E-17  0.00000000E+00  1.00000000E+00
 -1.73337625E-17  0.00000000E+00  0.00000000E+00  0.00000000E+00  1.00000000E+00
  1.65443481E-08  2.19997027E-02  3.67100083E-02 -5.98254137E-03 -7.50814593E-03
  1.00000000E+00  2.33469015E-02  2.76995085E-01  2.85162861E-01 -4.64723026E-02
 -5.83231787E-02  2.48362390E-01  1.00000000E+00 -3.76989181E-02 -3.28266355E-01
 -2.74453533E-01  6.89990341E-02  8.65944396E-02  9.81605321E-17 -3.01795980E-16
  1.00000000E+00  6.14370161E-03  5.34967749E-02  6.89990341E-02  1.37693018E-01
 -1.41120866E-02 -9.81536354E-19 -2.87548557E-17  7.30974527E-33  1.00000000E+00
  7.71040355E-03  6.71389579E-02  8.65944396E-02 -1.41120866E-02  1.31226822E-01
 -4.65365597E-19  2.35778110E-18 -9.13718159E-34 -5.71073850E-35  1.00000000E+00
  1.38938838E-20  5.57131013E-04  1.28398446E-03 -2.27866627E-04  6.43581300E-04
  3.77107623E-08  2.48655482E-02  1.93542185E-02 -3.99394747E-03  3.69170351E-02
  1.00000000E+00  1.20665155E-03  4.02328833E-02  5.15545939E-02 -9.14930971E-03
  2.58411014E-02  2.48655482E-02  2.86907018E-01  1.50956895E-01 -3.11515503E-02
  2.87941412E-01  2.48362390E-01  1.00000000E+00 -2.52241233E-03 -5.73264095E-02
 -6.40650775E-02  1.42071348E-02 -4.01263072E-02 -1.93542185E-02 -1.50956895E-01
  5.66554124E-02  2.05512367E-02 -1.89960117E-01  1.18444013E-18  0.00000000E+00
  1.00000000E+00  4.47648402E-04  1.01736244E-02  1.42071348E-02  1.34680676E-02
  7.12115031E-03  3.99394747E-03  3.11515503E-02  2.05512367E-02  1.52003420E-01
  3.92002771E-02 -3.92484923E-18  1.42600533E-17  0.00000000E+00  1.00000000E+00
 -1.26432793E-03 -2.87341525E-02 -4.01263072E-02  7.12115031E-03 -4.12342972E-03
 -3.69170351E-02 -2.87941412E-01 -1.89960117E-01  3.92002771E-02 -2.06093381E-01
 -6.94707717E-17 -3.61934128E-16  0.00000000E+00 -3.65487264E-33  1.00000000E+00
  8.38980945E-57  3.78043590E-07  1.32437178E-06 -4.08084773E-07  5.18435934E-07
  5.30535233E-23  9.07562646E-04  1.55816748E-03 -6.64979708E-04  1.36887769E-03
  1.10544077E-06  3.65417647E-02  5.26345357E-02 -3.05301902E-02  8.58022144E-03
  1.00000000E+00  1.30600426E-08  2.77295684E-04  5.82928836E-04 -1.79620545E-04
  2.28192159E-04  1.05831013E-04  2.61024708E-02  3.25927904E-02 -1.39096372E-02
  2.86333429E-02  3.58835464E-02  3.61706953E-01  3.77690009E-01 -2.19075701E-01
  6.15691555E-02  2.36703937E-01  1.00000000E+00 -5.12310677E-08 -5.10918821E-04
 -9.99482035E-04  3.35282179E-04 -4.25946620E-04 -2.24125816E-04 -2.60548972E-02
 -2.53002761E-02  1.49317136E-02 -3.07373134E-02 -5.16272512E-02 -2.74558255E-01
 -1.74309286E-01  2.22400482E-01 -6.25035538E-02  1.65444593E-16  1.23353259E-15
  1.00000000E+00  1.57860647E-08  1.57431768E-04  3.35282179E-04 -1.46910962E-05
  1.31248892E-04  9.56502572E-05  1.11194581E-02  1.49317136E-02  3.31501102E-03
  1.31177745E-02  2.99459238E-02  1.59255052E-01  2.22400482E-01  8.01112956E-02
  3.62546256E-02 -7.94760929E-17 -2.72556664E-16 -2.46238944E-31  1.00000000E+00
 -2.00548115E-08 -2.00003261E-04 -4.25946620E-04  1.31248892E-04 -7.81192688E-05
 -1.96898494E-04 -2.28896880E-02 -3.07373134E-02  1.31177745E-02 -1.73158495E-02
 -8.41601891E-03 -4.47571274E-02 -6.25035538E-02  3.62546256E-02  1.98923680E-01
 -8.04227675E-17  5.45113329E-16  4.92477888E-31 -1.23119472E-31  1.00000000E+00
  3.36068109E-21  4.62556891E-04  9.95025684E-04  4.82727605E-04 -5.30102076E-04
  4.42516151E-08  2.53825984E-02  1.58897409E-02  3.33191714E-02 -2.14353605E-02
  2.05156233E-19  1.05928660E-03 -1.45142363E-04  1.37718186E-03 -2.18162316E-03
  2.02403334E-39  3.27166100E-07 -4.62654916E-07  7.68949202E-07 -9.10888350E-07
  1.00000000E+00  1.03982208E-03  3.66156195E-02  4.35490635E-02  2.11274296E-02
 -2.32008574E-02  2.53825984E-02  2.90422744E-01  1.22686373E-01  2.57260851E-01
 -1.65504689E-01  1.05928660E-03  4.45267654E-02 -3.81339456E-03  3.61833563E-02
 -5.73188263E-02  2.50705699E-05  2.30176417E-03 -1.41176026E-03  2.34639662E-03
 -2.77951435E-03  2.48362390E-01  1.00000000E+00 -2.02881655E-03 -4.83921471E-02
 -4.81333975E-02 -3.03488552E-02  3.33272657E-02 -1.58897409E-02 -1.22686373E-01
  9.35604571E-02 -1.36540288E-01  8.78410287E-02  1.45142363E-04  3.81339456E-03
  1.76725386E-02  3.38672825E-03 -5.36498844E-03  2.88685958E-05  1.77834406E-03
 -3.68263136E-04  1.86699548E-03 -2.21162130E-03  8.44257862E-17  5.47747084E-17
  1.00000000E+00 -9.84261785E-04 -2.34770073E-02 -3.03488552E-02 -3.00074715E-04
  1.61684180E-02 -3.33191714E-02 -2.57260851E-01 -1.36540288E-01 -1.27635287E-01
  1.84193707E-01 -1.37718186E-03 -3.61833563E-02  3.38672825E-03 -1.41054684E-02
  5.09056393E-02 -4.79806503E-05 -2.95567215E-03  1.86699548E-03 -2.34795894E-03
  3.67579458E-03  1.33565143E-16 -1.14912856E-16  0.00000000E+00  1.00000000E+00
  1.08085639E-03  2.57810206E-02  3.33272657E-02  1.61684180E-02 -3.33177792E-03
  2.14353605E-02  1.65504689E-01  8.78410287E-02  1.84193707E-01  4.01777154E-02
  2.18162316E-03  5.73188263E-02 -5.36498844E-03  5.09056393E-02 -6.26112400E-02
  5.68373246E-05  3.50125511E-03 -2.21162130E-03  3.67579458E-03 -3.59924877E-03
 -5.93971226E-17  1.50897990E-16  0.00000000E+00  0.00000000E+00  1.00000000E+00
  8.36486729E-04  2.24721550E-02  2.20440464E-02  2.15673685E-02 -5.32362353E-03
  5.27559891E-03  9.53949302E-02  2.68494818E-02  1.20046905E-01 -9.52204666E-03
  9.92706274E-04  2.99924422E-02 -4.04812361E-03  3.61691691E-02 -2.48094610E-02
  2.69761478E-05  1.42273761E-03 -8.03826273E-04  1.77753784E-03 -1.06734399E-03
  6.24655247E-02  4.91505495E-01 -4.66967452E-02  3.82981180E-01  2.64403479E-01
  1.00000000E+00  9.56082715E-04  2.47389889E-02  1.80720101E-02  1.43916896E-02
 -2.51590479E-02  5.36714886E-03  9.65819859E-02 -1.57146190E-03  7.86738319E-02
 -9.67590491E-02  6.69554689E-05  5.28581109E-03 -1.91137515E-03  3.84609804E-03
 -7.77647393E-03  1.18582540E-06  1.50607512E-04 -1.13499906E-04  1.33963087E-04
 -2.04287106E-04  6.23103763E-02  4.90892437E-01 -2.60481049E-01  6.25622676E-02
 -3.82960040E-01  1.75920692E-01  1.00000000E+00  9.62238629E-49  1.16126246E-07
  4.26960772E-07  9.76521351E-08 -1.81079103E-07  1.89087747E-19  1.04896029E-03
  2.02923522E-03  1.02830446E-03 -1.17691977E-03  7.20715842E-28  1.02400278E-04
  1.27327800E-04  1.14772816E-04 -2.49128077E-04  2.53404701E-39  3.38570671E-07
  1.07901584E-07  7.20417784E-07 -1.10271443E-06  9.90898437E-08  2.81771838E-02
  4.50977803E-02 -5.79256919E-03 -1.23023978E-02  5.50172924E-03  5.57528491E-03
  1.00000000E+00  1.35691611E-06  6.51687667E-04  1.16112540E-03  2.65566258E-04
 -4.92446987E-04  1.04896029E-03  4.42772143E-02  5.35183330E-02  2.71201386E-02
 -3.10396665E-02  1.02400278E-04  1.19436553E-02  8.64699935E-03  7.79437381E-03
 -1.69186173E-02  2.56110326E-05  2.33463561E-03  3.22809742E-04  2.15527771E-03
 -3.29899662E-03  2.81771838E-02  3.08867852E-01  3.30232227E-01 -4.24165672E-02
 -9.00853258E-02  9.83182117E-02  9.92628427E-02  2.48362390E-01  1.00000000E+00
 -4.53887802E-06 -1.29961206E-03 -2.14817228E-03 -5.39684838E-04  1.00075279E-03
 -2.02923522E-03 -5.35183330E-02 -5.27679139E-02 -3.58199340E-02  4.09967965E-02
 -1.27327800E-04 -8.64699935E-03 -2.28871872E-03 -5.98702835E-03  1.29955586E-02
 -6.64610620E-06 -4.06586983E-04  7.08260393E-04 -3.86628026E-04  5.91795917E-04
 -4.50977803E-02 -3.30232227E-01 -2.76670454E-01  5.75831773E-02  1.22296537E-01
 -9.19711149E-02 -1.22664301E-01  2.98539450E-16 -4.94042544E-16  1.00000000E+00
 -1.03810738E-06 -2.97240170E-04 -5.39684838E-04  8.80377523E-05  2.28886710E-04
 -1.02830446E-03 -2.71201386E-02 -3.58199340E-02 -2.33147068E-04  2.07749147E-02
 -1.14772816E-04 -7.79437381E-03 -5.98702835E-03 -1.04345572E-03  1.17141493E-02
 -4.43735201E-05 -2.71462645E-03 -3.86628026E-04 -1.81519995E-03  3.95119597E-03
  5.79256919E-03  4.24165672E-02  5.75831773E-02  1.64244465E-01 -1.57083375E-02
  6.35099035E-02  1.97971059E-02  1.24657395E-16  0.00000000E+00  0.00000000E+00
  1.00000000E+00  1.92499174E-06  5.51180813E-04  1.00075279E-03  2.28886710E-04
 -2.12959548E-04  1.17691977E-03  3.10396665E-02  4.09967965E-02  2.07749147E-02
 -5.85898217E-03  2.49128077E-04  1.69186173E-02  1.29955586E-02  1.17141493E-02
 -2.10737274E-02  6.79207566E-05  4.15516917E-03  5.91795917E-04  3.95119597E-03
 -5.28176808E-03  1.23023978E-02  9.00853258E-02  1.22296537E-01 -1.57083375E-02
  1.38278972E-01  5.96006264E-02 -2.95832809E-02  1.37454361E-16  2.47021272E-16
 -2.90900759E-31  0.00000000E+00  1.00000000E+00  6.30177632E-75  4.53815577E-11
  2.17893702E-10  6.17777523E-11 -4.02833620E-11  3.88417849E-35  1.37647349E-05
  4.06704865E-05  1.99506134E-05 -7.14846518E-06  6.63810078E-35  1.46779153E-05
  3.32772481E-05  2.33574186E-05 -2.68737765E-05  7.95905335E-42  1.40650855E-07
  2.25762475E-07  3.82321029E-07 -3.51806716E-07  2.16517765E-19  1.06616671E-03
  2.56893208E-03  3.14464744E-04  2.39190205E-04  1.05467474E-03  1.22611015E-04
  2.19204124E-06  4.27082377E-02  5.68032386E-02  2.61310105E-02  3.32618429E-02
  1.00000000E+00  2.47950756E-09  1.60371317E-05  3.64080791E-05  1.03225071E-05
 -6.73098771E-06  1.37647349E-05  3.97320816E-03  6.57569303E-03  3.22565873E-03
 -1.15577945E-03  1.46779153E-05  4.11440743E-03  5.23009733E-03  3.67102388E-03
 -4.22368059E-03  1.48211331E-05  1.62386141E-03  1.12223760E-03  1.90047099E-03
 -1.74878808E-03  1.06616671E-03  4.46924832E-02  6.73253156E-02  8.24133823E-03
  6.26857993E-03  3.12339879E-02  7.72854752E-03  4.27082377E-02  3.92495647E-01
  3.26741797E-01  1.50309974E-01  1.91327723E-01  2.48362390E-01  1.00000000E+00
 -1.08554844E-08 -4.11301240E-05 -8.86816771E-05 -2.65685278E-05  1.73245154E-05
 -4.06704865E-05 -6.57569303E-03 -9.96385266E-03 -5.55839450E-03  1.99161743E-03
 -3.32772481E-05 -5.23009733E-03 -5.50792427E-03 -4.86129209E-03  5.59313850E-03
 -1.93831593E-05 -1.41753709E-03 -4.77804552E-04 -1.70235085E-03  1.56648057E-03
 -2.56893208E-03 -6.73253156E-02 -9.27503470E-02 -1.35696661E-02 -1.03214471E-02
 -4.41929597E-02 -1.18912634E-02 -5.68032386E-02 -3.26741797E-01 -1.27382572E-01
 -1.66686498E-01 -2.12173199E-01  4.98629582E-16  0.00000000E+00  1.00000000E+00
 -3.07777334E-09 -1.16613128E-05 -2.65685278E-05 -2.50571792E-06  4.91188875E-06
 -1.99506134E-05 -3.22565873E-03 -5.55839450E-03 -1.35937230E-03  9.76973550E-04
 -2.33574186E-05 -3.67102388E-03 -4.86129209E-03 -1.99421338E-03  3.92584378E-03
 -3.28247173E-05 -2.40055058E-03 -1.70235085E-03 -2.35543082E-03  2.65278126E-03
 -3.14464744E-04 -8.24133823E-03 -1.35696661E-02  1.64421859E-02 -1.26345545E-03
  9.73418806E-03 -6.21322116E-04 -2.61310105E-02 -1.50309974E-01 -1.66686498E-01
  1.58278040E-01 -9.76053522E-02  1.32627363E-16  5.47747084E-17  0.00000000E+00
  1.00000000E+00  2.00692083E-09  7.60398149E-06  1.73245154E-05  4.91188875E-06
  1.82416492E-06  7.14846518E-06  1.15577945E-03  1.99161743E-03  9.76973550E-04
  1.01720050E-03  2.68737765E-05  4.22368059E-03  5.59313850E-03  3.92584378E-03
 -3.09891770E-03  3.02048674E-05  2.20895465E-03  1.56648057E-03  2.65278126E-03
 -1.91361184E-03 -2.39190205E-04 -6.26857993E-03 -1.03214471E-02 -1.26345545E-03
  1.71422404E-02  6.35595775E-03 -4.27578060E-03 -3.32618429E-02 -1.91327723E-01
 -2.12173199E-01 -9.76053522E-02  1.10717636E-01 -6.27975877E-17  0.00000000E+00
  0.00000000E+00  0.00000000E+00  1.00000000E+00  0.00000000E+00  1.07567928E-16
  6.60519462E-16  1.04573713E-16 -1.74408772E-16  1.90508316E-68  1.17961268E-08
  4.85249248E-08  1.29403564E-08 -1.37869808E-08  2.60153621E-68  1.21866863E-08
  4.16464061E-08  1.51199502E-08 -3.04290610E-08  4.31040755E-77  3.28824612E-11
  1.00776723E-10  7.59758433E-11 -1.10956726E-10  1.61356959E-45  2.95124315E-06
  1.05059419E-05 -2.15012497E-07 -1.22976226E-06  3.90369767E-06  1.02872605E-06
  1.64585482E-17  2.53521885E-03  5.50516454E-03  2.71811870E-04 -8.98596301E-05
  1.17631350E-07  2.93016150E-02  4.05644218E-02 -1.34093673E-02 -2.32514555E-02
  1.00000000E+00  1.07567928E-16  5.64711363E-09  1.82707995E-08  2.89264048E-09
 -4.82436609E-09  3.15700366E-10  3.99777863E-05  9.65032360E-05  2.57349450E-05
 -2.74186568E-05  3.28754631E-10  4.07481993E-05  8.17180962E-05  2.96681914E-05
 -5.97075514E-05  3.66717088E-09  1.75587040E-05  2.48960989E-05  1.87692361E-05
 -2.74109888E-05  3.05855821E-07  1.03288313E-03  2.20439275E-03 -4.51146592E-05
 -2.58032934E-04  5.92202725E-04  2.46987776E-04  1.40939323E-03  6.46577458E-02
  9.90552455E-02  4.89075146E-03 -1.61685771E-03  2.88836111E-02  3.20361114E-01
  3.15766406E-01 -1.04382795E-01 -1.80996751E-01  2.35037765E-01  1.00000000E+00
 -6.60519462E-16 -1.82707995E-08 -5.73469296E-08 -9.35944223E-09  1.56097434E-08
 -1.42490478E-09 -8.55470102E-05 -1.95040473E-04 -5.53677317E-05  5.89901722E-05
 -1.23268926E-09 -7.24429982E-05 -1.33248108E-04 -5.30330913E-05  1.06729662E-04
 -1.00526334E-08 -2.86039221E-05 -3.52166643E-05 -3.06931590E-05  4.48249376E-05
 -1.19718093E-06 -1.97307296E-03 -3.97030384E-03  8.81824493E-05  5.04358815E-04
 -9.99144235E-04 -4.64696605E-04 -3.37055385E-03 -8.86601871E-02 -1.23407932E-01
 -7.42674787E-03  2.45524530E-03 -4.05992574E-02 -2.73196236E-01 -1.66436249E-01
  1.14333274E-01  1.98250593E-01  4.72136083E-16  2.08639881E-15  1.00000000E+00
 -1.04573713E-16 -2.89264048E-09 -9.35944223E-09  2.88371137E-10  2.47134099E-09
 -3.79985664E-10 -2.28131998E-05 -5.53677317E-05 -2.18267840E-06  1.57311703E-05
 -4.47534423E-10 -2.63008175E-05 -5.30330913E-05 -6.42765536E-06  3.87487738E-05
 -7.57870744E-09 -2.15645740E-05 -3.06931590E-05 -1.76439583E-05  3.37936413E-05
  2.45012644E-08  4.03805149E-05  8.81824493E-05  3.36662810E-04 -1.03221062E-05
  2.53846224E-04  2.39142749E-05 -1.66417650E-04 -4.37750608E-03 -7.42674787E-03
  2.66436422E-02  1.21225226E-04  1.34208829E-02  9.03103882E-02  1.14333274E-01
  1.41636048E-01 -6.55356323E-02  2.04439768E-16 -3.29628307E-16  1.52705737E-31
  1.00000000E+00  1.74408772E-16  4.82436609E-09  1.56097434E-08  2.47134099E-09
 -2.35155797E-09  4.04846272E-10  2.43057561E-05  5.89901722E-05  1.57311703E-05
 -4.17790431E-06  9.00667796E-10  5.29306756E-05  1.06729662E-04  3.87487738E-05
 -6.51560286E-05  1.10681044E-08  3.14933593E-05  4.48249376E-05  3.37936413E-05
 -4.38572506E-05  1.40134787E-07  2.30956033E-04  5.04358815E-04 -1.03221062E-05
  2.79430330E-04  2.75151269E-04 -4.96619587E-05  5.50168337E-05  1.44718138E-03
  2.45524530E-03  1.21225226E-04  2.69702538E-02  2.32714233E-02  1.56595604E-01
  1.98250593E-01 -6.55356323E-02  6.57942672E-02 -2.55555875E-17  5.34530784E-16
  4.54806331E-31 -1.50326170E-31  1.00000000E+00  6.48983563E-14  5.29280338E-09
  1.48491725E-08  2.40188932E-09 -2.63774039E-09  2.36366283E-09  1.11479713E-05
  2.52975609E-05  6.35889914E-06 -4.30601647E-06  8.79787508E-09  2.43029523E-05
  4.76591178E-05  1.54870244E-05 -2.40319430E-05  1.03845527E-07  2.64941676E-05
  3.79206221E-05  2.26427966E-05 -2.67306231E-05  2.79757275E-07  1.90233477E-04
  3.91103808E-04  8.21434543E-06 -9.02547356E-06  1.56714800E-04  4.02138133E-05
  1.92721809E-04  1.02976760E-02  1.63804524E-02  1.45667347E-03  1.48112788E-03
  5.43943743E-03  9.75158646E-02  1.23542853E-01 -1.23909475E-02 -2.00205555E-02
  5.74411180E-02  4.90477498E-01  4.07610158E-01  7.43559723E-02  1.39698910E-01
  1.00000000E+00  0.00000000E+00  3.57949054E-16  2.01640303E-15  3.88937587E-17
 -9.75943582E-16  2.76621683E-58  2.33200123E-08  8.65829443E-08  7.47907702E-09
 -5.08140161E-08  3.88227622E-67  2.03975474E-09  6.16909868E-09  9.42165084E-10
 -7.10779961E-09  1.49290021E-74  1.51231494E-12  3.85845328E-12  1.95616781E-12
 -6.89888155E-12  2.26156330E-40  3.24717610E-06  1.02899421E-05 -2.70557110E-06
 -4.67645558E-06  9.23040503E-07  4.06982342E-06  6.28537674E-16  2.77991775E-03
  5.00633108E-03 -1.83461485E-03 -2.97534363E-03  1.70427501E-15  3.13447207E-03
  2.41804590E-03 -3.55647353E-03 -5.24924824E-03  1.23939809E-07  2.90964358E-02
 -1.25957926E-02 -2.81693505E-02 -3.80843998E-02  5.40190873E-03  1.00000000E+00
  1.93088356E-13  6.34494820E-08  1.68490167E-07  3.24995341E-09 -8.15496183E-08
  2.33200123E-08  1.30778635E-04  2.58881287E-04  2.23622920E-05 -1.51932901E-04
  2.03975474E-09  3.60031482E-05  5.77580335E-05  8.82099725E-06 -6.65465977E-05
  1.16532826E-08  1.50049343E-05  1.57649931E-05  7.99257366E-06 -2.81876733E-05
  3.24717610E-06  1.81938166E-03  3.16926106E-03 -8.33305091E-04 -1.44032964E-03
  3.88545449E-04  9.49178602E-04  2.77991775E-03  7.78585563E-02  9.11913438E-02
 -3.34178845E-02 -5.41964924E-02  3.13447207E-03  8.35289611E-02  4.21315665E-02
 -6.19673106E-02 -9.14618915E-02  2.94827437E-02  3.21612594E-01 -8.44134889E-02
 -1.88783131E-01 -2.55231026E-01  9.70314144E-02  2.48362390E-01  1.00000000E+00