Jobname.Temp
SP        R                             STO-3G              
Number of atoms                            I                3
Charge                                     I                0
Multiplicity                               I                1
Number of electrons                        I               10
Number of alpha electrons                  I                5
Number of beta electrons                   I                5
Atomic numbers                             I   N=           3
           8           1           1
Current cartesian coordinates              R   N=           9
 -4.21654159E-17  2.20235107E-17  2.25178583E-01 -1.49411036E+00 -1.60952237E-16
 -9.00714333E-01  1.49411036E+00 -1.52358492E-17 -9.00714333E-01
Nuclear charges                            R   N=           3
  8.00000000E+00  1.00000000E+00  1.00000000E+00
Number of basis functions                  I                7
Number of contracted shells                I                4
Number of primitive shells                 I               12
Highest angular momentum                   I                1
Largest degree of contraction              I                3
Shell types                                I   N=           4
           0          -1           0           0
Number of primitives per shell             I   N=           4
           3           3           3           3
Shell to atom map                          I   N=           4
           1           1           2           3
Primitive exponents                        R   N=          12
  1.30709320E+02  2.38088610E+01  6.44360830E+00  5.03315130E+00  1.16959610E+00
  3.80389000E-01  3.42525091E+00  6.23913730E-01  1.68855400E-01  3.42525091E+00
  6.23913730E-01  1.68855400E-01
Contraction coefficients                   R   N=          12
  1.54328969E-01  5.35328136E-01  4.44634536E-01 -9.99672287E-02  3.99512825E-01
  7.00115461E-01  1.54328971E-01  5.35328142E-01  4.44634542E-01  1.54328971E-01
  5.35328142E-01  4.44634542E-01
P(S=P) Contraction coefficients            R   N=          12
  0.00000000E+00  0.00000000E+00  0.00000000E+00  1.55916268E-01  6.07683714E-01
  3.91957386E-01  0.00000000E+00  0.00000000E+00  0.00000000E+00  0.00000000E+00
  0.00000000E+00  0.00000000E+00
Coordinates of each shell                  R   N=          12
 -4.21654159E-17  2.20235107E-17  2.25178583E-01 -4.21654159E-17  2.20235107E-17
  2.25178583E-01 -1.49411036E+00 -1.60952237E-16 -9.00714333E-01  1.49411036E+00
 -1.52358492E-17 -9.00714333E-01
Overlap Matrix                             R   N=          28
  1.00000000E+00  2.36703937E-01  1.00000000E+00  8.05803617E-34 -7.56496711E-33
  1.00000000E+00 -2.40538696E-33  1.92644297E-33 -1.92726265E-65  1.00000000E+00
 -1.35620957E-17  4.48705985E-17 -3.47184774E-49  1.94738903E-49  1.00000000E+00
  4.99275403E-02  4.53531138E-01 -3.04940367E-01 -3.73444244E-17 -2.29789048E-01
  1.00000000E+00  4.99275403E-02  4.53531138E-01  3.04940367E-01 -7.60444687E-18
 -2.29789048E-01  2.28265950E-01  1.00000000E+00
Core Hamiltonian Matrix                    R   N=          28
 -3.26842998E+01 -7.60413751E+00 -9.30134234E+00  0.00000000E+00  0.00000000E+00
 -7.57797376E+00  0.00000000E+00  0.00000000E+00  0.00000000E+00 -7.43024427E+00
  1.74670518E-02  2.07785322E-01  0.00000000E+00  0.00000000E+00 -7.51413153E+00
 -1.61667742E+00 -3.53328195E+00  1.96886646E+00 -2.53946188E-17  1.54779462E+00
 -4.93977743E+00 -1.61667742E+00 -3.53328195E+00 -1.96886646E+00 -5.17110740E-18
  1.54779462E+00 -1.43529223E+00 -4.93977743E+00
Number of independent functions            I                7
Alpha MO coefficients                      R   N=          49
  9.94202991E-01  2.59157046E-02 -2.99007125E-16  1.24763750E-16 -3.99311126E-03
 -5.62726220E-03 -5.62726220E-03  2.34217962E-01 -8.45881914E-01  1.78461832E-16
  5.47365896E-17  1.17047710E-01 -1.56449269E-01 -1.56449269E-01 -2.30294576E-16
  1.80031482E-15  6.03305123E-01  4.84866842E-16  6.38526191E-15 -4.46376780E-01
  4.46376780E-01 -1.00458116E-01  5.21394822E-01 -5.21900514E-15 -5.86139011E-16
  7.74267034E-01 -2.89063880E-01 -2.89063880E-01  2.26644914E-16 -2.78579397E-16
  1.01788466E-17 -1.00000000E+00 -7.85414923E-16 -5.54652643E-16  4.03546230E-16
 -1.28350516E-01  8.32525514E-01  1.53249438E-15 -1.95692694E-17 -7.32625929E-01
 -7.75800637E-01 -7.75800637E-01 -1.31377170E-16  6.09529011E-16  9.76484525E-01
 -5.31633945E-19  1.65007673E-15  8.08915542E-01 -8.08915542E-01
Alpha Orbital Energies                     R   N=           7
 -2.02437541E+01 -1.25064416E+00 -6.03165088E-01 -4.45469324E-01 -3.88214397E-01
  5.70747518E-01  7.08590651E-01
Total SCF Density                          R   N=          28
  2.10677895E+00 -4.49467217E-01  1.97608079E+00  2.59757429E-16 -3.58745943E-15
  7.27954142E-01 -6.18034149E-17 -1.40195598E-16  5.64687606E-16  2.00000000E+00
 -1.08673389E-01  6.09173595E-01 -3.33119785E-16  6.74990813E-16  1.22641110E+00
 -2.63981141E-02 -3.70492754E-02 -5.38602796E-01  9.96770766E-16 -4.84204383E-01
  6.14636392E-01 -2.63981141E-02 -3.70492754E-02  5.38602796E-01 -5.38937823E-17
 -4.84204383E-01 -1.82372526E-01  6.14636392E-01
Pure Switching                             I                1
Dipole_Data                                R   N=           3
 -6.29603042E-15 -1.03740760E-15 -1.67349843E+00
Quadrupole_Data                            R   N=           6
 -4.29500261E+00  1.06985261E-17 -6.12134030E+00  6.89347751E-15 -3.35741843E-16
 -5.41751526E+00
Octapole_Data                              R   N=          10
 -1.36916777E-14 -3.65458968E-16 -1.76887497E-15 -5.27835154E-16 -5.84792515E-01
 -1.43463757E-16  1.36288349E-02 -4.00318000E-15 -3.52585156E-16 -1.45690166E-01
Hexadecapole_Data                          R   N=          15
 -6.82643140E+00  3.72826382E-17 -1.85845203E+00 -6.88882823E-17 -3.26144546E+00
  6.72019013E-15 -4.55800725E-18  1.12766443E-15 -2.09501360E-16 -1.75039076E+00
  2.89680539E-18 -1.41228214E+00  4.39480556E-15 -2.07399371E-16 -4.99653767E+00
