Jobname.Temp
SP        R                             STO-3G              
Number of atoms                            I                3
Charge                                     I                0
Multiplicity                               I                1
Number of electrons                        I               10
Number of alpha electrons                  I                5
Number of beta electrons                   I                5
Atomic numbers                             I   N=           3
           8           1           1
Current cartesian coordinates              R   N=           9
 -4.21654159E-17  2.20235107E-17  2.25178583E-01 -1.49411036E+00 -1.60952237E-16
 -9.00714333E-01  1.49411036E+00 -1.52358492E-17 -9.00714333E-01
Nuclear charges                            R   N=           3
  8.00000000E+00  1.00000000E+00  1.00000000E+00
Number of basis functions                  I                7
Number of contracted shells                I                4
Number of primitive shells                 I               12
Highest angular momentum                   I                1
Largest degree of contraction              I                3
Shell types                                I   N=           4
           0          -1           0           0
Number of primitives per shell             I   N=           4
           3           3           3           3
Shell to atom map                          I   N=           4
           1           1           2           3
Primitive exponents                        R   N=          12
  1.30709320E+02  2.38088610E+01  6.44360830E+00  5.03315130E+00  1.16959610E+00
  3.80389000E-01  3.42525091E+00  6.23913730E-01  1.68855400E-01  3.42525091E+00
  6.23913730E-01  1.68855400E-01
Contraction coefficients                   R   N=          12
  1.54328969E-01  5.35328136E-01  4.44634536E-01 -9.99672287E-02  3.99512825E-01
  7.00115461E-01  1.54328971E-01  5.35328142E-01  4.44634542E-01  1.54328971E-01
  5.35328142E-01  4.44634542E-01
P(S=P) Contraction coefficients            R   N=          12
  0.00000000E+00  0.00000000E+00  0.00000000E+00  1.55916268E-01  6.07683714E-01
  3.91957386E-01  0.00000000E+00  0.00000000E+00  0.00000000E+00  0.00000000E+00
  0.00000000E+00  0.00000000E+00
Coordinates of each shell                  R   N=          12
 -4.21654159E-17  2.20235107E-17  2.25178583E-01 -4.21654159E-17  2.20235107E-17
  2.25178583E-01 -1.49411036E+00 -1.60952237E-16 -9.00714333E-01  1.49411036E+00
 -1.52358492E-17 -9.00714333E-01
Overlap Matrix                             R   N=          28
  1.00000000E+00  2.36703937E-01  1.00000000E+00  8.05803617E-34 -7.56496711E-33
  1.00000000E+00 -2.40538696E-33  1.92644297E-33 -1.92726265E-65  1.00000000E+00
 -1.35620957E-17  4.48705985E-17 -3.47184774E-49  1.94738903E-49  1.00000000E+00
  4.99275403E-02  4.53531138E-01 -3.04940367E-01 -3.73444244E-17 -2.29789048E-01
  1.00000000E+00  4.99275403E-02  4.53531138E-01  3.04940367E-01 -7.60444687E-18
 -2.29789048E-01  2.28265950E-01  1.00000000E+00
Core Hamiltonian Matrix                    R   N=          28
 -3.26842998E+01 -7.60413751E+00 -9.30134234E+00  0.00000000E+00  0.00000000E+00
 -7.57797376E+00  0.00000000E+00  0.00000000E+00  0.00000000E+00 -7.43024427E+00
  1.74670518E-02  2.07785322E-01  0.00000000E+00  0.00000000E+00 -7.51413153E+00
 -1.61667742E+00 -3.53328195E+00  1.96886646E+00 -2.53946188E-17  1.54779462E+00
 -4.93977743E+00 -1.61667742E+00 -3.53328195E+00 -1.96886646E+00 -5.17110740E-18
  1.54779462E+00 -1.43529223E+00 -4.93977743E+00
Number of Excited States                   I               10
Excitation Energies                        R   N=          10
  3.74008275E-01  4.51050113E-01  4.74213662E-01  5.19320456E-01  6.26507749E-01
  4.49320939E-01  5.23552855E-01  5.82960552E-01  6.67381402E-01  7.73917684E-01
Oscillator Strengths                       R   N=          10
  0.00000000E+00  0.00000000E+00  0.00000000E+00  0.00000000E+00  0.00000000E+00
  3.35374949E-03  7.42426348E-31  7.35198827E-02  5.04889935E-02  1.21379294E+00
Alpha Amplitudes                           R   N=         100
 -8.69997865E-19  2.01953023E-19 -1.61379561E-16  3.15572758E-17  5.81606858E-16
  2.85356579E-16  8.62001117E-16 -9.42228496E-19  7.07106781E-01 -2.41391627E-15
 -7.64188879E-04  4.55255846E-17  7.17865756E-02 -1.09601307E-16  2.66912122E-15
 -1.63343604E-01  6.84225818E-01 -4.30618935E-15 -7.51807882E-16  3.83448196E-16
  4.28786166E-19 -1.83812261E-18 -3.68570915E-17 -1.06049945E-16  8.43665631E-16
  5.33696543E-16 -2.64995979E-16  7.78459092E-16  2.53984772E-15  7.07106781E-01
  2.77405288E-18 -2.78837804E-04  8.27872040E-16  3.33331141E-02 -3.79005667E-01
 -3.72026684E-15  4.25068756E-15  5.96023096E-01  2.28081446E-16 -9.46390721E-17
 -8.23226616E-18  1.48366817E-04 -2.13231282E-16 -8.86200205E-02  5.89727155E-01
  1.92276681E-15  5.72902698E-16  3.79958357E-01 -4.55732537E-16 -1.19657096E-15
 -1.52196003E-18  9.93657816E-20  2.31108335E-17 -4.95147583E-18  3.44758413E-16
 -1.54345561E-16  1.52269720E-15 -1.25415051E-16  7.07106781E-01 -3.15771663E-15
 -4.21107130E-20  2.51887281E-19  1.00370083E-18 -2.70629341E-17 -8.06066380E-16
  4.23541631E-16  2.54193644E-16  3.78245662E-16  2.97223645E-15  7.07106781E-01
 -5.97204588E-04 -4.64075033E-17 -4.33538700E-02 -7.76449471E-16 -1.19019363E-15
  1.75160010E-01  6.83695149E-01  1.13220624E-15 -1.43263375E-15 -3.50633832E-16
  2.09201890E-18 -9.26135228E-04 -2.15078484E-16  3.45946598E-03  3.11540648E-01
  2.00619796E-16 -5.70120958E-16  6.34767358E-01 -4.92736479E-17  1.93375557E-16
 -1.18652548E-17  4.46767732E-04 -3.31904742E-16 -3.43582417E-02  6.34099887E-01
  2.02446984E-16  1.51254441E-15 -3.11025153E-01 -2.09078346E-16  9.86908676E-16
Beta Amplitudes                            R   N=         100
 -8.69997865E-19  2.01953023E-19 -1.61379561E-16  3.15572758E-17  5.81606858E-16
  2.85356579E-16  8.62001117E-16 -9.42228496E-19  7.07106781E-01 -2.41391627E-15
 -7.64188879E-04  4.55255846E-17  7.17865756E-02 -1.09601307E-16  2.66912122E-15
 -1.63343604E-01  6.84225818E-01 -4.30618935E-15 -7.51807882E-16  3.83448196E-16
  4.28786166E-19 -1.83812261E-18 -3.68570915E-17 -1.06049945E-16  8.43665631E-16
  5.33696543E-16 -2.64995979E-16  7.78459092E-16  2.53984772E-15  7.07106781E-01
  2.77405288E-18 -2.78837804E-04  8.27872040E-16  3.33331141E-02 -3.79005667E-01
 -3.72026684E-15  4.25068756E-15  5.96023096E-01  2.28081446E-16 -9.46390721E-17
 -8.23226616E-18  1.48366817E-04 -2.13231282E-16 -8.86200205E-02  5.89727155E-01
  1.92276681E-15  5.72902698E-16  3.79958357E-01 -4.55732537E-16 -1.19657096E-15
 -1.52196003E-18  9.93657816E-20  2.31108335E-17 -4.95147583E-18  3.44758413E-16
 -1.54345561E-16  1.52269720E-15 -1.25415051E-16  7.07106781E-01 -3.15771663E-15
 -4.21107130E-20  2.51887281E-19  1.00370083E-18 -2.70629341E-17 -8.06066380E-16
  4.23541631E-16  2.54193644E-16  3.78245662E-16  2.97223645E-15  7.07106781E-01
 -5.97204588E-04 -4.64075033E-17 -4.33538700E-02 -7.76449471E-16 -1.19019363E-15
  1.75160010E-01  6.83695149E-01  1.13220624E-15 -1.43263375E-15 -3.50633832E-16
  2.09201890E-18 -9.26135228E-04 -2.15078484E-16  3.45946598E-03  3.11540648E-01
  2.00619796E-16 -5.70120958E-16  6.34767358E-01 -4.92736479E-17  1.93375557E-16
 -1.18652548E-17  4.46767732E-04 -3.31904742E-16 -3.43582417E-02  6.34099887E-01
  2.02446984E-16  1.51254441E-15 -3.11025153E-01 -2.09078346E-16  9.86908676E-16
Number of independent functions            I                7
Alpha MO coefficients                      R   N=          49
 -9.94202993E-01 -2.59156976E-02 -9.75142771E-17  5.56474827E-17  3.99311117E-03
  5.62725980E-03  5.62725980E-03 -2.34217951E-01  8.45881873E-01  4.44710127E-16
  5.62856932E-17 -1.17047740E-01  1.56449297E-01  1.56449297E-01 -1.73797055E-16
  1.39754946E-15 -6.03305181E-01 -7.06911456E-16  3.18413352E-15  4.46376732E-01
 -4.46376732E-01  1.00458173E-01 -5.21395178E-01 -3.26487040E-15 -2.91106352E-15
 -7.74266755E-01  2.89064160E-01  2.89064160E-01 -2.75130248E-16  1.70228438E-15
  3.43550305E-17 -1.00000000E+00  2.00930765E-15 -1.54914696E-15 -6.00978854E-16
 -1.28350479E-01  8.32525333E-01 -4.37415304E-15  2.02475294E-16 -7.32626219E-01
 -7.75800527E-01 -7.75800527E-01 -2.82284884E-16  2.70247245E-15  9.76484489E-01
 -5.60427881E-17 -3.42854627E-15  8.08915569E-01 -8.08915569E-01
Alpha Orbital Energies                     R   N=           7
 -2.02437550E+01 -1.25064474E+00 -6.03166220E-01 -4.45469846E-01 -3.88214617E-01
  5.70748225E-01  7.08591559E-01
Total SCF Density                          R   N=          28
  2.10677897E+00 -4.49467324E-01  1.97608140E+00 -4.60680723E-16  2.47567648E-15
  7.27954283E-01 -1.71635780E-16 -2.76601989E-16  7.84256627E-16  2.00000000E+00
 -1.08673410E-01  6.09173813E-01  1.10886932E-15  4.76532309E-16  1.22641025E+00
 -2.63980293E-02 -3.70497393E-02 -5.38602790E-01  8.02466011E-16 -4.84204671E-01
  6.14636648E-01 -2.63980293E-02 -3.70497393E-02  5.38602790E-01  1.68325093E-16
 -4.84204671E-01 -1.82372099E-01  6.14636648E-01
Pure Switching                             I                1
Dipole_Data                                R   N=           3
 -9.97333991E-15 -6.05825079E-16 -1.67349696E+00
Quadrupole_Data                            R   N=           6
 -4.29500426E+00 -3.24302924E-16 -6.12134057E+00  1.48225824E-15 -1.17651892E-16
 -5.41751582E+00
Octapole_Data                              R   N=          10
 -6.99029095E-15 -3.23991218E-16 -1.37561939E-15 -3.92860477E-16 -5.84791435E-01
 -1.43758959E-16  1.36291527E-02 -3.04899493E-15 -2.63747641E-16 -1.45688611E-01
Hexadecapole_Data                          R   N=          15
 -6.82643414E+00 -1.21704447E-16 -1.85845240E+00 -2.07357384E-16 -3.26144580E+00
  2.88418524E-15  2.04362323E-17  4.50105759E-16 -1.36367345E-16 -1.75039161E+00
 -5.02242542E-17 -1.41228237E+00  1.98166199E-15 -1.26562774E-16 -4.99653883E+00
