Jobname.Temp
SP        R                             STO-3G              
Number of atoms                            I                3
Charge                                     I                0
Multiplicity                               I                1
Number of electrons                        I               10
Number of alpha electrons                  I                5
Number of beta electrons                   I                5
Atomic numbers                             I   N=           3
           8           1           1
Current cartesian coordinates              R   N=           9
 -4.21654159E-17  2.20235107E-17  2.25178583E-01 -1.49411036E+00 -1.60952237E-16
 -9.00714333E-01  1.49411036E+00 -1.52358492E-17 -9.00714333E-01
Nuclear charges                            R   N=           3
  8.00000000E+00  1.00000000E+00  1.00000000E+00
Number of basis functions                  I                7
Number of contracted shells                I                4
Number of primitive shells                 I               12
Highest angular momentum                   I                1
Largest degree of contraction              I                3
Shell types                                I   N=           4
           0          -1           0           0
Number of primitives per shell             I   N=           4
           3           3           3           3
Shell to atom map                          I   N=           4
           1           1           2           3
Primitive exponents                        R   N=          12
  1.30709320E+02  2.38088610E+01  6.44360830E+00  5.03315130E+00  1.16959610E+00
  3.80389000E-01  3.42525091E+00  6.23913730E-01  1.68855400E-01  3.42525091E+00
  6.23913730E-01  1.68855400E-01
Contraction coefficients                   R   N=          12
  1.54328969E-01  5.35328136E-01  4.44634536E-01 -9.99672287E-02  3.99512825E-01
  7.00115461E-01  1.54328971E-01  5.35328142E-01  4.44634542E-01  1.54328971E-01
  5.35328142E-01  4.44634542E-01
P(S=P) Contraction coefficients            R   N=          12
  0.00000000E+00  0.00000000E+00  0.00000000E+00  1.55916268E-01  6.07683714E-01
  3.91957386E-01  0.00000000E+00  0.00000000E+00  0.00000000E+00  0.00000000E+00
  0.00000000E+00  0.00000000E+00
Coordinates of each shell                  R   N=          12
 -4.21654159E-17  2.20235107E-17  2.25178583E-01 -4.21654159E-17  2.20235107E-17
  2.25178583E-01 -1.49411036E+00 -1.60952237E-16 -9.00714333E-01  1.49411036E+00
 -1.52358492E-17 -9.00714333E-01
Overlap Matrix                             R   N=          28
  1.00000000E+00  2.36703937E-01  1.00000000E+00  8.05803617E-34 -7.56496711E-33
  1.00000000E+00 -2.40538696E-33  1.92644297E-33 -1.92726265E-65  1.00000000E+00
 -1.35620957E-17  4.48705985E-17 -3.47184774E-49  1.94738903E-49  1.00000000E+00
  4.99275403E-02  4.53531138E-01 -3.04940367E-01 -3.73444244E-17 -2.29789048E-01
  1.00000000E+00  4.99275403E-02  4.53531138E-01  3.04940367E-01 -7.60444687E-18
 -2.29789048E-01  2.28265950E-01  1.00000000E+00
Core Hamiltonian Matrix                    R   N=          28
 -3.26842998E+01 -7.60413751E+00 -9.30134234E+00  0.00000000E+00  0.00000000E+00
 -7.57797376E+00  0.00000000E+00  0.00000000E+00  0.00000000E+00 -7.43024427E+00
  1.74670518E-02  2.07785322E-01  0.00000000E+00  0.00000000E+00 -7.51413153E+00
 -1.61667742E+00 -3.53328195E+00  1.96886646E+00 -2.53946188E-17  1.54779462E+00
 -4.93977743E+00 -1.61667742E+00 -3.53328195E+00 -1.96886646E+00 -5.17110740E-18
  1.54779462E+00 -1.43529223E+00 -4.93977743E+00
Orbital Coefficients CCMAN2 Alpha          R   N=          49
 -9.94202993E-01 -2.59156976E-02  2.88343022E-16 -9.70081832E-17  3.99311117E-03
  5.62725980E-03  5.62725980E-03 -2.34217951E-01  8.45881873E-01 -1.47701605E-15
  5.62856932E-17 -1.17047740E-01  1.56449297E-01  1.56449297E-01  1.00458173E-01
 -5.21395178E-01 -1.94124900E-16 -2.18941856E-15 -7.74266755E-01  2.89064160E-01
  2.89064160E-01 -7.58860879E-17  1.30487689E-17 -6.03305181E-01 -2.62822246E-16
 -5.09786411E-17  4.46376732E-01 -4.46376732E-01 -2.10604434E-16  1.19173585E-15
  9.51779366E-17 -1.00000000E+00  1.55050915E-15 -9.06830372E-16 -4.94515790E-16
 -1.28350479E-01  8.32525333E-01  5.93509712E-15  1.05330779E-16 -7.32626219E-01
 -7.75800527E-01 -7.75800527E-01  5.90514127E-16 -4.80767746E-15  9.76484489E-01
  1.10490666E-16  5.03729038E-15  8.08915569E-01 -8.08915569E-01
Number of independent functions            I                7
Alpha MO coefficients                      R   N=          49
 -9.94202993E-01 -2.59156976E-02  2.88343022E-16 -9.70081832E-17  3.99311117E-03
  5.62725980E-03  5.62725980E-03 -2.34217951E-01  8.45881873E-01 -1.47701605E-15
  5.62856932E-17 -1.17047740E-01  1.56449297E-01  1.56449297E-01 -7.58860879E-17
  1.30487689E-17 -6.03305181E-01 -2.62822246E-16 -5.09786411E-17  4.46376732E-01
 -4.46376732E-01  1.00458173E-01 -5.21395178E-01 -1.94124900E-16 -2.18941856E-15
 -7.74266755E-01  2.89064160E-01  2.89064160E-01 -2.10604434E-16  1.19173585E-15
  9.51779366E-17 -1.00000000E+00  1.55050915E-15 -9.06830372E-16 -4.94515790E-16
 -1.28350479E-01  8.32525333E-01  5.93509712E-15  1.05330779E-16 -7.32626219E-01
 -7.75800527E-01 -7.75800527E-01  5.90514127E-16 -4.80767746E-15  9.76484489E-01
  1.10490666E-16  5.03729038E-15  8.08915569E-01 -8.08915569E-01
Alpha Orbital Energies                     R   N=           7
 -2.02437550E+01 -1.25064474E+00 -6.03166220E-01 -4.45469846E-01 -3.88214617E-01
  5.70748225E-01  7.08591559E-01
Total SCF Density                          R   N=          28
  2.10677897E+00 -4.49467324E-01  1.97608140E+00  1.71106430E-16 -2.32702063E-15
  7.27954283E-01  1.47844303E-16 -1.16979633E-19  1.26768172E-16  2.00000000E+00
 -1.08673410E-01  6.09173813E-01  7.10185823E-16  2.75418736E-16  1.22641025E+00
 -2.63980293E-02 -3.70497393E-02 -5.38602790E-01  3.29780334E-16 -4.84204671E-01
  6.14636648E-01 -2.63980293E-02 -3.70497393E-02  5.38602790E-01 -2.55778892E-17
 -4.84204671E-01 -1.82372099E-01  6.14636648E-01
Pure Switching                             I                1
Dipole_Data                                R   N=           3
 -3.06734768E-15 -6.01359710E-16 -1.67349696E+00
Quadrupole_Data                            R   N=           6
 -4.29500426E+00  9.43879357E-17 -6.12134057E+00  4.93548732E-15 -1.48769368E-16
 -5.41751582E+00
Octapole_Data                              R   N=          10
 -8.79414527E-15 -1.82828514E-16 -1.05828044E-15 -2.21822695E-16 -5.84791435E-01
 -6.73478058E-17  1.36291527E-02 -3.13476739E-15 -1.66430218E-16 -1.45688611E-01
Hexadecapole_Data                          R   N=          15
 -6.82643414E+00 -1.31995779E-17 -1.85845240E+00 -8.51196883E-17 -3.26144580E+00
  5.12180757E-15 -1.65903527E-18  8.94553882E-16 -1.58503565E-16 -1.75039161E+00
 -5.01121746E-18 -1.41228237E+00  3.52755658E-15 -1.47008449E-16 -4.99653883E+00
