Jobname.Temp
FREQ      R                             STO-3G              
Number of atoms                            I                3
Charge                                     I                0
Multiplicity                               I                1
Number of electrons                        I               10
Number of alpha electrons                  I                5
Number of beta electrons                   I                5
Atomic numbers                             I   N=           3
           8           1           1
Current cartesian coordinates              R   N=           9
 -4.21654159E-17  2.20235107E-17  2.25178583E-01 -1.49411036E+00 -1.60952237E-16
 -9.00714333E-01  1.49411036E+00 -1.52358492E-17 -9.00714333E-01
Nuclear charges                            R   N=           3
  8.00000000E+00  1.00000000E+00  1.00000000E+00
Number of basis functions                  I                7
Number of contracted shells                I                4
Number of primitive shells                 I               12
Highest angular momentum                   I                1
Largest degree of contraction              I                3
Shell types                                I   N=           4
           0          -1           0           0
Number of primitives per shell             I   N=           4
           3           3           3           3
Shell to atom map                          I   N=           4
           1           1           2           3
Primitive exponents                        R   N=          12
  1.30709320E+02  2.38088610E+01  6.44360830E+00  5.03315130E+00  1.16959610E+00
  3.80389000E-01  3.42525091E+00  6.23913730E-01  1.68855400E-01  3.42525091E+00
  6.23913730E-01  1.68855400E-01
Contraction coefficients                   R   N=          12
  1.54328969E-01  5.35328136E-01  4.44634536E-01 -9.99672287E-02  3.99512825E-01
  7.00115461E-01  1.54328971E-01  5.35328142E-01  4.44634542E-01  1.54328971E-01
  5.35328142E-01  4.44634542E-01
P(S=P) Contraction coefficients            R   N=          12
  0.00000000E+00  0.00000000E+00  0.00000000E+00  1.55916268E-01  6.07683714E-01
  3.91957386E-01  0.00000000E+00  0.00000000E+00  0.00000000E+00  0.00000000E+00
  0.00000000E+00  0.00000000E+00
Coordinates of each shell                  R   N=          12
 -4.21654159E-17  2.20235107E-17  2.25178583E-01 -4.21654159E-17  2.20235107E-17
  2.25178583E-01 -1.49411036E+00 -1.60952237E-16 -9.00714333E-01  1.49411036E+00
 -1.52358492E-17 -9.00714333E-01
Overlap Matrix                             R   N=          28
  1.00000000E+00  2.36703937E-01  1.00000000E+00  8.05803617E-34 -7.56496711E-33
  1.00000000E+00 -2.40538696E-33  1.92644297E-33 -1.92726265E-65  1.00000000E+00
 -1.35620957E-17  4.48705985E-17 -3.47184774E-49  1.94738903E-49  1.00000000E+00
  4.99275403E-02  4.53531138E-01 -3.04940367E-01 -3.73444244E-17 -2.29789048E-01
  1.00000000E+00  4.99275403E-02  4.53531138E-01  3.04940367E-01 -7.60444687E-18
 -2.29789048E-01  2.28265950E-01  1.00000000E+00
Core Hamiltonian Matrix                    R   N=          28
 -3.26842998E+01 -7.60413751E+00 -9.30134234E+00  0.00000000E+00  0.00000000E+00
 -7.57797376E+00  0.00000000E+00  0.00000000E+00  0.00000000E+00 -7.43024427E+00
  1.74670518E-02  2.07785322E-01  0.00000000E+00  0.00000000E+00 -7.51413153E+00
 -1.61667742E+00 -3.53328195E+00  1.96886646E+00 -2.53946188E-17  1.54779462E+00
 -4.93977743E+00 -1.61667742E+00 -3.53328195E+00 -1.96886646E+00 -5.17110740E-18
  1.54779462E+00 -1.43529223E+00 -4.93977743E+00
Number of independent functions            I                7
Alpha MO coefficients                      R   N=          49
 -9.93472180E-01 -2.92630978E-02  1.65758503E-16  1.90628593E-17  4.43453689E-03
  6.80735295E-03  6.80735295E-03 -2.29055528E-01  8.12308301E-01 -1.70200412E-15
  6.24654188E-17 -1.78648303E-01  1.70909070E-01  1.70909070E-01 -6.08222784E-16
  2.24955424E-15 -6.04888524E-01 -2.63311268E-16  6.70452936E-15  4.45063852E-01
 -4.45063852E-01  1.20350571E-01 -5.93902336E-01 -2.32394613E-15 -5.16446828E-16
 -7.52476311E-01  2.88793789E-01  2.88793789E-01 -7.09878321E-17  3.49377967E-16
 -2.18113547E-16 -1.00000000E+00 -6.79701797E-17 -4.90852688E-16  7.56038659E-18
 -1.26196918E-01  8.17140159E-01 -1.54761305E-14 -5.73137201E-17 -7.42826240E-01
 -7.72835359E-01 -7.72835359E-01  2.38543227E-15 -1.42924608E-14 -9.75504470E-01
 -6.38852720E-17  9.03117615E-15 -8.09638655E-01  8.09638655E-01
Alpha Orbital Energies                     R   N=           7
 -1.88373821E+01 -9.19177807E-01 -4.33292759E-01 -2.28529695E-01 -1.41745675E-01
  3.24301304E-01  4.41004273E-01
Total SCF Density                          R   N=          28
  2.10787533E+00 -4.56936236E-01  2.02684218E+00  6.26791460E-16 -2.73587038E-15
  7.31780253E-01 -4.88266163E-17  1.50486999E-17  7.54775022E-16  2.00000000E+00
 -1.08092322E-01  6.03300342E-01 -4.00396649E-15  8.91018755E-16  1.19631096E+00
 -2.23081715E-02 -6.57673074E-02 -5.38428033E-01  4.70642797E-16 -4.95625826E-01
  6.21479870E-01 -2.23081715E-02 -6.57673074E-02  5.38428033E-01 -5.74220422E-17
 -4.95625826E-01 -1.70847459E-01  6.21479870E-01
Pure Switching                             I                1
Dipole_Data                                R   N=           3
  3.34711488E-14 -7.61232421E-16 -1.61672610E+00
Quadrupole_Data                            R   N=           6
 -4.31979199E+00 -3.42213144E-16 -6.12585544E+00 -1.05510517E-14 -6.30005953E-16
 -5.41482780E+00
Octapole_Data                              R   N=          10
  3.52893766E-14 -2.26471192E-16  5.52658786E-15 -3.15768096E-16 -5.57351819E-01
 -1.34826799E-16  2.35138692E-02  1.34636317E-14 -3.16355109E-16 -9.68937804E-02
Hexadecapole_Data                          R   N=          15
 -6.87713028E+00 -1.40950391E-16 -1.86429291E+00 -2.20383889E-16 -3.26616235E+00
 -1.58308438E-14 -5.38430846E-17 -2.24256977E-15 -3.19656419E-16 -1.76711709E+00
 -5.58290825E-17 -1.41530650E+00 -9.90291265E-15 -3.28886634E-16 -5.01252356E+00
Cartesian Force Constants                  R   N=          45
  7.92070214E-01 -4.69190489E-16 -6.01381402E-02 -1.22581510E-14 -1.69482479E-15
  5.15132508E-01 -3.96035107E-01  4.79381001E-16 -2.05818548E-01  4.14887439E-01
  4.72927500E-16  3.00690701E-02  1.65548977E-15 -5.17371989E-16 -1.94027143E-02
 -3.21068608E-01  1.63293526E-15 -2.57566254E-01  2.63443578E-01 -1.62725457E-15
  2.45335036E-01 -3.96035107E-01 -1.14478654E-17  2.05818548E-01 -1.88523323E-02
  4.15160961E-17  5.76250304E-02  4.14887439E-01 -7.17347035E-18  3.00690701E-02
  4.15662541E-17  3.71030231E-17 -1.06663557E-02 -4.41818767E-18 -3.02407167E-17
 -1.94027143E-02  3.21068608E-01  6.28381312E-17 -2.57566254E-01 -5.76250304E-02
 -2.34524066E-17  1.22312182E-02 -2.63443578E-01 -3.93515141E-17  2.45335036E-01
Current cartesian coordinates              R   N=           9
  1.82930696E-17  2.27129036E-17  2.32227256E-01 -1.45115522E+00 -1.64328143E-16
 -9.56647815E-01  1.45115522E+00  4.51574844E-17 -9.56647815E-01
Dipole_Data                                R   N=           3
 -3.87507908E-15  2.41443081E-17 -1.63506867E+00
Quadrupole_Data                            R   N=           6
 -4.46500115E+00  2.48900653E-16 -6.13183799E+00 -1.03665417E-17  3.27754729E-16
 -5.33901461E+00
Octapole_Data                              R   N=          10
 -1.98341614E-15 -1.36248537E-16 -5.51070934E-17 -1.01703073E-16 -5.05897630E-01
 -1.02475417E-16  4.83406633E-02 -1.32737932E-15 -2.59617392E-17 -6.26576629E-02
Hexadecapole_Data                          R   N=          15
 -6.83299433E+00  3.23736001E-17 -1.83207076E+00 -6.78761849E-17 -3.27205304E+00
  7.83377158E-16  5.34291404E-17 -2.34889927E-16  3.59841441E-17 -1.76041987E+00
  1.59538842E-17 -1.45653445E+00 -8.64838589E-17  6.27279524E-17 -5.20581418E+00
Current cartesian coordinates              R   N=           9
  7.87515551E-17  2.34022965E-17  2.39275928E-01 -1.40820007E+00 -1.67704050E-16
 -1.01258130E+00  1.40820007E+00  1.05550818E-16 -1.01258130E+00
Dipole_Data                                R   N=           3
 -1.31101786E-14  1.27864833E-15 -1.64909569E+00
Quadrupole_Data                            R   N=           6
 -4.60480391E+00  3.54350965E-16 -6.13845801E+00  7.15674702E-15  5.18669101E-16
 -5.26108737E+00
Octapole_Data                              R   N=          10
 -1.42075306E-14  1.15934791E-16 -1.61598864E-15  3.75563573E-16 -4.48731470E-01
 -3.54617761E-17  7.41356532E-02 -6.75537902E-15  2.25502324E-16 -2.92832358E-02
Hexadecapole_Data                          R   N=          15
 -6.77676144E+00 -5.36469162E-17 -1.80088443E+00 -1.30826050E-16 -3.27891358E+00
  7.37264619E-15  5.40756739E-17  6.14181401E-16  1.16466675E-16 -1.76207909E+00
  3.81730613E-18 -1.50086480E+00  4.56531097E-15  1.46808150E-16 -5.40975260E+00
Current cartesian coordinates              R   N=           9
  6.90763030E-16  2.25138833E-17  2.30192379E-01 -1.55244594E+00 -1.67688153E-16
 -9.40500417E-01  1.55244594E+00 -5.48077171E-17 -9.40500417E-01
Dipole_Data                                R   N=           3
 -1.30248024E-14  1.82889688E-15 -1.55096117E+00
Quadrupole_Data                            R   N=           6
 -4.31218332E+00 -2.06116869E-16 -6.15848972E+00  1.42377422E-14  6.08300898E-16
 -5.40868272E+00
Octapole_Data                              R   N=          10
 -2.24637095E-14  2.93005332E-16  1.03490490E-15  9.21109163E-16 -5.69025916E-01
 -4.06198985E-17  6.00557738E-02 -8.68055897E-15  4.17448297E-16  6.12472909E-03
Hexadecapole_Data                          R   N=          15
 -7.28304167E+00 -1.61305367E-16 -1.95756392E+00 -1.95132728E-16 -3.30302113E+00
  5.99672291E-15  6.04756965E-17 -3.54505703E-15  4.96582609E-17 -1.84684761E+00
 -5.28918296E-17 -1.46212060E+00 -4.09511352E-15  9.50963514E-17 -5.23265498E+00
Current cartesian coordinates              R   N=           9
  1.42369147E-15  2.30042558E-17  2.35206176E-01 -1.61078152E+00 -1.74424069E-16
 -9.80286501E-01  1.61078152E+00 -9.43795850E-17 -9.80286501E-01
Dipole_Data                                R   N=           3
  2.25880819E-14  3.03851705E-16 -1.48450489E+00
Quadrupole_Data                            R   N=           6
 -4.30606282E+00  2.75331151E-16 -6.18897073E+00  6.65807762E-15  1.83310065E-17
 -5.40055410E+00
Octapole_Data                              R   N=          10
  2.83883785E-14 -9.14325362E-17  1.17267170E-14  1.93894531E-16 -5.81913154E-01
 -4.05940738E-17  9.65445358E-02  7.19394899E-15 -2.65236886E-17  1.08612985E-01
Hexadecapole_Data                          R   N=          15
 -7.70516323E+00  1.01758334E-16 -2.05417804E+00  4.10369203E-17 -3.33773227E+00
 -2.26499739E-14  2.43779667E-17 -1.20512212E-14 -1.72695159E-16 -1.92889117E+00
  3.36523463E-17 -1.50998629E+00 -2.94003592E-14 -1.46140902E-16 -5.46009317E+00
Current cartesian coordinates              R   N=           9
  7.09755478E-03  2.23590725E-17  2.25178583E-01 -1.55043174E+00 -1.67716041E-16
 -9.43155536E-01  1.43778899E+00 -1.52358492E-17 -8.58273130E-01
Dipole_Data                                R   N=           3
  5.10485612E-02 -8.24056502E-16 -1.61900022E+00
Quadrupole_Data                            R   N=           6
 -4.31737329E+00 -2.98405985E-16 -6.12471028E+00  4.91706826E-02 -7.55985144E-16
 -5.41396675E+00
Octapole_Data                              R   N=          10
  5.68329330E-02 -1.88952878E-16  4.51755569E-02 -3.02684204E-16 -5.59793946E-01
 -3.69532016E-17  2.33266188E-02  6.64762699E-03 -3.21215838E-16 -9.87712275E-02
Hexadecapole_Data                          R   N=          15
 -6.87912972E+00 -2.51878711E-16 -1.86533999E+00 -2.87521766E-16 -3.26509955E+00
 -6.82043021E-02 -7.81721151E-17 -4.95352049E-02 -3.82785733E-16 -1.76651664E+00
 -8.02680258E-17 -1.41586140E+00 -1.12441079E-01 -3.94197607E-16 -5.01588286E+00
Current cartesian coordinates              R   N=           9
  1.41951096E-02  2.26946342E-17  2.25178583E-01 -1.60675312E+00 -1.74479845E-16
 -9.85596739E-01  1.38146761E+00 -1.52358492E-17 -8.15831927E-01
Dipole_Data                                R   N=           3
  1.00178867E-01 -1.10828419E-15 -1.62578378E+00
Quadrupole_Data                            R   N=           6
 -4.31006334E+00  3.92244412E-16 -6.12128320E+00  9.88570073E-02  8.55767057E-17
 -5.41134412E+00
Octapole_Data                              R   N=          10
  1.11698506E-01 -1.16768036E-16  9.00486370E-02 -2.64327744E-16 -5.67180861E-01
  1.94770971E-17  2.27686733E-02  1.26104120E-02 -7.44942195E-17 -1.04418287E-01
Hexadecapole_Data                          R   N=          15
 -6.88494580E+00  1.83657705E-18 -1.86847306E+00 -5.47326700E-17 -3.26191382E+00
 -1.35282290E-01  6.15017410E-18 -9.89707118E-02 -1.17517256E-16 -1.76464710E+00
  1.26700431E-17 -1.41752007E+00 -2.24231603E-01 -8.79452352E-17 -5.02589815E+00
Current cartesian coordinates              R   N=           9
 -1.02623901E-16  2.13341178E-17  2.18129911E-01 -1.53706551E+00 -1.57576330E-16
 -8.44780851E-01  1.53706551E+00 -7.56291827E-17 -8.44780851E-01
Dipole_Data                                R   N=           3
 -1.36032796E-09 -1.90697967E-15 -1.59380785E+00
Quadrupole_Data                            R   N=           6
 -4.16936286E+00 -7.54171251E-18 -6.12047225E+00  1.97165624E-10 -8.02248114E-16
 -5.48805940E+00
Octapole_Data                              R   N=          10
 -2.08188510E-09 -2.85120974E-16 -2.88487351E-10 -5.41485466E-16 -6.02325381E-01
 -7.02666083E-18 -4.45667969E-04 -3.21529916E-10 -3.91960333E-16 -1.32610977E-01
Hexadecapole_Data                          R   N=          15
 -6.90875571E+00 -7.27845409E-17 -1.89762240E+00 -9.59685496E-17 -3.26115820E+00
  4.21572388E-10 -7.82151450E-17  3.06900382E-11 -4.08630692E-16 -1.78194199E+00
 -2.27130727E-17 -1.37701026E+00  1.60717286E-10 -4.16865385E-16 -4.82930685E+00
Current cartesian coordinates              R   N=           9
 -1.63082387E-16  2.06447250E-17  2.11081238E-01 -1.58002066E+00 -1.54200423E-16
 -7.88847369E-01  1.58002066E+00 -1.36022516E-16 -7.88847369E-01
Dipole_Data                                R   N=           3
  9.03669971E-13  1.47257435E-15 -1.56605649E+00
Quadrupole_Data                            R   N=           6
 -4.01381793E+00 -3.64836836E-16 -6.11564566E+00 -3.10558384E-13  9.03339084E-16
 -5.55827046E+00
Octapole_Data                              R   N=          10
  1.16269552E-12  2.28939783E-16  1.61240267E-13  8.45810284E-16 -6.40170790E-01
 -1.22751174E-17 -2.36340976E-02  3.59933872E-13  4.44223496E-16 -1.70291937E-01
Hexadecapole_Data                          R   N=          15
 -6.92733754E+00 -1.79372917E-16 -1.93211254E+00 -1.65712404E-16 -3.25695414E+00
 -4.82646929E-13  1.03949789E-16 -6.39751829E-14  1.36342932E-16 -1.80452440E+00
 -5.89948549E-17 -1.34149476E+00 -2.61338703E-13  1.86689286E-16 -4.65579125E+00
Current cartesian coordinates              R   N=           9
 -7.75093861E-16  2.15331382E-17  2.20164787E-01 -1.43577479E+00 -1.54216321E-16
 -8.60928248E-01  1.43577479E+00  2.43360187E-17 -8.60928248E-01
Dipole_Data                                R   N=           3
  7.36598695E-15 -1.67839458E-15 -1.68071492E+00
Quadrupole_Data                            R   N=           6
 -4.32930241E+00  1.76274737E-17 -6.09112116E+00 -7.41059259E-15 -9.52781608E-16
 -5.41877334E+00
Octapole_Data                              R   N=          10
  3.51681482E-15 -2.11243001E-16 -3.09800706E-15 -5.65849351E-16 -5.46828407E-01
  3.34150320E-17 -1.29064590E-02  2.94967220E-15 -4.03562140E-16 -1.99766542E-01
Hexadecapole_Data                          R   N=          15
 -6.48783847E+00 -1.93581696E-16 -1.77445840E+00 -2.12866434E-16 -3.22721548E+00
  2.82265955E-15 -1.11293078E-16  4.43037508E-15 -4.13154386E-16 -1.68981256E+00
 -5.25635306E-17 -1.36957884E+00  8.84857104E-15 -4.33605596E-16 -4.79984977E+00
Current cartesian coordinates              R   N=           9
 -1.50802231E-15  2.10427657E-17  2.15150991E-01 -1.37743921E+00 -1.47480404E-16
 -8.21142164E-01  1.37743921E+00  6.39078867E-17 -8.21142164E-01
Dipole_Data                                R   N=           3
 -9.21763703E-15  4.00115417E-16 -1.74176151E+00
Quadrupole_Data                            R   N=           6
 -4.34114155E+00  3.08708336E-16 -6.05438444E+00 -9.40869716E-15 -1.75682320E-16
 -5.42036364E+00
Octapole_Data                              R   N=          10
 -1.47710893E-14  1.44019394E-16 -9.48292136E-15  2.19187266E-16 -5.37340315E-01
 -2.10201219E-17 -4.90057738E-02 -2.05499384E-15  6.55482286E-17 -3.01722842E-01
Hexadecapole_Data                          R   N=          15
 -6.11566846E+00 -1.71034139E-17 -1.68817052E+00 -8.23625801E-17 -3.18628284E+00
  1.38094960E-14 -4.23705563E-17  9.41127590E-15 -1.37583713E-16 -1.61509049E+00
  7.91231422E-19 -1.32499339E+00  2.15982843E-14 -1.33893839E-16 -4.59486534E+00
Current cartesian coordinates              R   N=           9
 -7.09755478E-03  2.16879490E-17  2.25178583E-01 -1.43778899E+00 -1.54188433E-16
 -8.58273130E-01  1.55043174E+00 -1.52358492E-17 -9.43155536E-01
Dipole_Data                                R   N=           3
 -5.10485614E-02  1.81508617E-17 -1.61900022E+00
Quadrupole_Data                            R   N=           6
 -4.31737330E+00  3.65053526E-17 -6.12471028E+00 -4.91706831E-02  1.98324148E-16
 -5.41396675E+00
Octapole_Data                              R   N=          10
 -5.68329334E-02 -6.64397502E-17 -4.51755570E-02  1.15833216E-17 -5.59793945E-01
 -7.91726022E-17  2.33266190E-02 -6.64762676E-03  7.72154728E-18 -9.87712267E-02
Hexadecapole_Data                          R   N=          15
 -6.87912973E+00 -1.54400130E-17 -1.86533999E+00 -8.40290486E-17 -3.26509955E+00
  6.82043017E-02  2.61128602E-17  4.95352048E-02 -4.27915500E-17 -1.76651664E+00
 -8.72067226E-18 -1.41586140E+00  1.12441078E-01 -1.97711851E-17 -5.01588286E+00
Current cartesian coordinates              R   N=           9
 -1.41951096E-02  2.13523873E-17  2.25178583E-01 -1.38146761E+00 -1.47424629E-16
 -8.15831927E-01  1.60675312E+00 -1.52358492E-17 -9.85596739E-01
Dipole_Data                                R   N=           3
 -1.00178867E-01  7.96677834E-17 -1.62578378E+00
Quadrupole_Data                            R   N=           6
 -4.31006334E+00 -3.55103543E-16 -6.12128320E+00 -9.88570073E-02 -2.85028765E-16
 -5.41134412E+00
Octapole_Data                              R   N=          10
 -1.11698506E-01 -5.71483334E-17 -9.00486370E-02  9.16331286E-17 -5.67180861E-01
  1.96392361E-17  2.27686733E-02 -1.26104120E-02 -9.31690188E-17 -1.04418287E-01
Hexadecapole_Data                          R   N=          15
 -6.88494580E+00 -3.04434010E-16 -1.86847306E+00 -2.94329903E-16 -3.26191382E+00
  1.35282290E-01 -1.59998734E-17  9.89707118E-02 -1.78764872E-16 -1.76464710E+00
 -9.45566764E-17 -1.41752007E+00  2.24231603E-01 -1.77239356E-16 -5.02589815E+00
Current cartesian coordinates              R   N=           9
  8.11680001E-16  2.38926691E-17  2.44289724E-01 -1.46653564E+00 -1.74439966E-16
 -1.05236738E+00  1.46653564E+00  6.59789500E-17 -1.05236738E+00
Dipole_Data                                R   N=           3
 -1.47104232E-10 -8.71038329E-16 -1.57886647E+00
Quadrupole_Data                            R   N=           6
 -4.58787246E+00  8.77023997E-17 -6.17002479E+00  8.16027043E-11 -9.48915794E-17
 -5.25777826E+00
Octapole_Data                              R   N=          10
 -1.84837385E-10 -1.93575859E-16 -2.76151104E-11 -4.05931035E-16 -4.61709564E-01
 -3.90977933E-18  1.11992080E-01 -8.56221193E-11 -1.94991700E-16  7.40276169E-02
Hexadecapole_Data                          R   N=          15
 -7.15796874E+00 -1.87110062E-16 -1.88705905E+00 -2.35821085E-16 -3.31474009E+00
  1.05368445E-10 -6.86310648E-18  1.59517594E-11 -1.21890837E-16 -1.83637331E+00
 -4.22669022E-17 -1.55265739E+00  7.68346690E-11 -1.07294778E-16 -5.65451597E+00
Current cartesian coordinates              R   N=           9
  7.09755478E-03  2.37378582E-17  2.39275928E-01 -1.46452145E+00 -1.74467854E-16
 -1.05502250E+00  1.35187869E+00  1.05550818E-16 -9.70140094E-01
Dipole_Data                                R   N=           3
  5.47245348E-02  9.70932378E-17 -1.65150449E+00
Quadrupole_Data                            R   N=           6
 -4.60288594E+00 -3.63161353E-16 -6.13735405E+00  4.17825519E-02 -4.25792776E-16
 -5.26084740E+00
Octapole_Data                              R   N=          10
  7.98169198E-02 -2.85880080E-18  4.57079688E-02 -1.43712546E-18 -4.50544174E-01
 -7.36792261E-17  7.39498354E-02  8.40418240E-03 -1.12784193E-16 -3.09779933E-02
Hexadecapole_Data                          R   N=          15
 -6.78092010E+00 -3.57615977E-16 -1.80204948E+00 -4.14784903E-16 -3.27790350E+00
 -8.84824671E-02 -5.55390409E-17 -5.22982872E-02 -2.18811722E-16 -1.76210284E+00
 -1.05013049E-16 -1.50152832E+00 -1.16907887E-01 -2.25669135E-16 -5.41380906E+00
Current cartesian coordinates              R   N=           9
  7.51221515E-16  2.32032762E-17  2.37241052E-01 -1.50949079E+00 -1.71064060E-16
 -9.96433899E-01  1.50949079E+00  5.58561645E-18 -9.96433899E-01
Dipole_Data                                R   N=           3
 -4.36768716E-10  2.68540342E-16 -1.56678575E+00
Quadrupole_Data                            R   N=           6
 -4.45256028E+00 -4.79272272E-17 -6.16397754E+00  1.72131237E-10  6.57194667E-16
 -5.33429083E+00
Octapole_Data                              R   N=          10
 -5.74621172E-10 -5.30090852E-17 -8.35892276E-11  7.70550926E-17 -5.18176925E-01
 -5.85660288E-17  8.55819513E-02 -2.03846992E-10  1.30084478E-16  4.06467772E-02
Hexadecapole_Data                          R   N=          15
 -7.22632367E+00 -1.29799815E-16 -1.92176386E+00 -1.90301446E-16 -3.30844578E+00
  2.58135723E-10  7.97491251E-17  3.44359397E-11  9.91526092E-17 -1.83736842E+00
 -3.69222611E-17 -1.50584572E+00  1.64839780E-10  1.48710874E-16 -5.43834839E+00
Current cartesian coordinates              R   N=           9
  1.48414996E-15  2.36936487E-17  2.42254848E-01 -1.56782637E+00 -1.77799976E-16
 -1.03621998E+00  1.56782637E+00 -3.39862515E-17 -1.03621998E+00
Dipole_Data                                R   N=           3
  6.81829606E-13  2.11052046E-15 -1.49876801E+00
Quadrupole_Data                            R   N=           6
 -4.44109895E+00 -3.20197923E-16 -6.19394830E+00 -2.92517350E-13  6.21820338E-16
 -5.32754357E+00
Octapole_Data                              R   N=          10
  8.47705766E-13  1.60008670E-16  1.29010654E-13  7.94629428E-16 -5.31994007E-01
 -3.81757755E-17  1.22640491E-01  3.53938528E-13  3.16155267E-16  1.42933752E-01
Hexadecapole_Data                          R   N=          15
 -7.63490322E+00 -2.55868386E-16 -2.01471201E+00 -2.85292541E-16 -3.34265818E+00
 -4.70348985E-13  8.22969889E-17 -7.36950572E-14  5.87189103E-17 -1.91632785E+00
 -8.01296826E-17 -1.55618280E+00 -3.25869956E-13  1.06318020E-16 -5.67799539E+00
Current cartesian coordinates              R   N=           9
  7.09755478E-03  2.33398175E-17  2.35206176E-01 -1.66710289E+00 -1.81187873E-16
 -1.02272770E+00  1.55446014E+00 -9.43795850E-17 -9.37845298E-01
Dipole_Data                                R   N=           3
  5.76042490E-02 -9.55269526E-16 -1.48657126E+00
Quadrupole_Data                            R   N=           6
 -4.30449286E+00  1.56001206E-17 -6.18791158E+00  4.39362540E-02 -3.71945171E-16
 -5.40004760E+00
Octapole_Data                              R   N=          10
  6.07654821E-02 -2.40703410E-16  4.64847037E-02 -2.53423242E-16 -5.83594779E-01
 -9.23600426E-17  9.63782378E-02  8.13159235E-03 -2.52921445E-16  1.07135014E-01
Hexadecapole_Data                          R   N=          15
 -7.70897941E+00  2.16090858E-17 -2.05540259E+00 -5.69544462E-17 -3.33676984E+00
 -7.87456081E-02 -2.04421203E-17 -5.55175039E-02 -3.16238781E-16 -1.92884900E+00
  2.43339809E-18 -1.51062735E+00 -1.26842221E-01 -3.00911106E-16 -5.46396551E+00
Current cartesian coordinates              R   N=           9
  7.09755478E-03  2.30484654E-17  2.32227256E-01 -1.50747659E+00 -1.71091948E-16
 -9.99089018E-01  1.39483384E+00  4.51574844E-17 -9.14206612E-01
Dipole_Data                                R   N=           3
  5.31927399E-02 -2.73195465E-15 -1.63743965E+00
Quadrupole_Data                            R   N=           6
 -4.46283165E+00  1.04340403E-15 -6.13070962E+00  4.53529252E-02 -1.31161964E-16
 -5.33844275E+00
Octapole_Data                              R   N=          10
  6.89113135E-02 -2.57498552E-16  4.54937275E-02 -8.66400137E-16 -5.08040760E-01
  6.90676606E-17  4.81494274E-02  7.35578510E-03 -2.67115987E-16 -6.44818806E-02
Hexadecapole_Data                          R   N=          15
 -6.83609748E+00  2.06737972E-16 -1.83317550E+00  1.36835184E-16 -3.27101185E+00
 -7.83822248E-02 -3.26083498E-17 -5.09297659E-02 -1.66514974E-16 -1.76011096E+00
  9.37623784E-17 -1.45713865E+00 -1.14553507E-01 -1.42633591E-16 -5.20947350E+00
Current cartesian coordinates              R   N=           9
  1.41951096E-02  2.33840271E-17  2.32227256E-01 -1.56379797E+00 -1.77855752E-16
 -1.04153022E+00  1.33851246E+00  4.51574844E-17 -8.71765409E-01
Dipole_Data                                R   N=           3
  1.04460037E-01 -1.81485646E-16 -1.64451025E+00
Quadrupole_Data                            R   N=           6
 -4.45627374E+00  1.89828744E-16 -6.12733345E+00  9.12065179E-02  4.22738974E-16
 -5.33668535E+00
Octapole_Data                              R   N=          10
  1.35962783E-01 -7.83583996E-17  9.06820959E-02 -9.02220332E-17 -5.14528197E-01
 -6.42406259E-17  4.75796761E-02  1.40419246E-02  4.03984144E-17 -6.99717769E-02
Hexadecapole_Data                          R   N=          15
 -6.84524319E+00 -5.53553533E-17 -1.83648240E+00 -1.44409681E-16 -3.26789154E+00
 -1.55748069E-01  4.93725110E-17 -1.01762513E-01  2.53634572E-17 -1.75911783E+00
 -7.07233573E-18 -1.45894503E+00 -2.28491880E-01  6.53879617E-17 -5.22038505E+00
Current cartesian coordinates              R   N=           9
  7.09755478E-03  2.28494450E-17  2.30192379E-01 -1.60876732E+00 -1.74451957E-16
 -9.82941620E-01  1.49612456E+00 -5.48077171E-17 -8.98059214E-01
Dipole_Data                                R   N=           3
  5.47231370E-02 -9.61165721E-17 -1.55315155E+00
Quadrupole_Data                            R   N=           6
 -4.31017999E+00  2.34252337E-16 -6.15738524E+00  4.66598712E-02  6.33325032E-16
 -5.40799941E+00
Octapole_Data                              R   N=          10
  5.87146709E-02 -9.02355314E-17  4.59027920E-02  6.86571466E-17 -5.71106342E-01
 -3.95124313E-17  5.98761234E-02  7.33749283E-03  1.10959459E-16  4.42760444E-03
Hexadecapole_Data                          R   N=          15
 -7.28589176E+00  3.79841993E-17 -1.95869829E+00 -3.18096985E-17 -3.30200805E+00
 -7.32518248E-02  8.57867024E-17 -5.25132973E-02  5.99674624E-17 -1.84650228E+00
  1.58469286E-17 -1.46271797E+00 -1.19531307E-01  1.12069744E-16 -5.23625812E+00
Current cartesian coordinates              R   N=           9
  1.41951096E-02  2.31850067E-17  2.30192379E-01 -1.66508870E+00 -1.81215761E-16
 -1.02538282E+00  1.43980318E+00 -5.48077171E-17 -8.55618011E-01
Dipole_Data                                R   N=           3
  1.07896124E-01  3.01718916E-16 -1.55972300E+00
Quadrupole_Data                            R   N=           6
 -4.30408014E+00 -2.02480640E-16 -6.15407348E+00  9.37270930E-02 -3.87729696E-16
 -5.40589838E+00
Octapole_Data                              R   N=          10
  1.15917457E-01  6.43430007E-17  9.15619551E-02  3.35416315E-16 -5.77427181E-01
 -5.12268001E-17  5.93357623E-02  1.41600897E-02 -1.49864927E-17 -6.96619474E-04
Hexadecapole_Data                          R   N=          15
 -7.29420719E+00 -1.79148730E-16 -1.96208439E+00 -2.29832473E-16 -3.29896486E+00
 -1.45633192E-01 -4.56595393E-17 -1.04948766E-01 -3.03007065E-16 -1.84538851E+00
 -5.75847730E-17 -1.46450085E+00 -2.38554090E-01 -2.93854981E-16 -5.24699471E+00
Current cartesian coordinates              R   N=           9
 -6.54176890E-16  2.29119240E-17  2.34262132E-01 -1.34986449E+00 -1.60968134E-16
 -9.72795212E-01  1.34986449E+00  1.45122686E-16 -9.72795212E-01
Dipole_Data                                R   N=           3
  1.85951532E-10  1.19258623E-16 -1.71977437E+00
Quadrupole_Data                            R   N=           6
 -4.62243730E+00  3.61011703E-16 -6.10471859E+00 -5.50862425E-11  4.35656731E-16
 -5.26209860E+00
Octapole_Data                              R   N=          10
  1.74449401E-10 -1.04055619E-16  3.01100039E-11 -2.20998073E-16 -4.37649350E-01
 -4.92275215E-17  3.60870205E-02  8.50796436E-11  6.44968582E-18 -1.33678251E-01
Hexadecapole_Data                          R   N=          15
 -6.41018657E+00 -5.85201264E-17 -1.71791992E+00 -1.40633279E-16 -3.24087875E+00
 -8.52631823E-11  5.10977710E-17 -1.29090066E-11  1.17306220E-16 -1.68952474E+00
  2.55935241E-18 -1.45008045E+00 -6.22737512E-11  1.40262225E-16 -5.17194689E+00
Current cartesian coordinates              R   N=           9
 -7.09755478E-03  2.30667348E-17  2.39275928E-01 -1.35187869E+00 -1.60940246E-16
 -9.70140094E-01  1.46452145E+00  1.05550818E-16 -1.05502250E+00
Dipole_Data                                R   N=           3
 -5.47245334E-02 -5.08856895E-16 -1.65150449E+00
Quadrupole_Data                            R   N=           6
 -4.60288593E+00 -1.86112278E-16 -6.13735405E+00 -4.17825529E-02 -5.14959367E-16
 -5.26084740E+00
Octapole_Data                              R   N=          10
 -7.98169176E-02 -8.22631374E-17 -4.57079685E-02 -2.54093067E-16 -4.50544177E-01
 -7.98886234E-17  7.39498348E-02 -8.40418147E-03 -2.10022745E-16 -3.09779966E-02
Hexadecapole_Data                          R   N=          15
 -6.78092009E+00 -2.48505212E-16 -1.80204948E+00 -3.14381315E-16 -3.27790350E+00
  8.84824659E-02 -6.46613390E-17  5.22982870E-02 -2.21046040E-16 -1.76210284E+00