Title card required                                                     
SP        RHF                                                         Aug-CC-pVQZ         
Number of atoms                            I                1
Info1-9                                    I   N=           9
           8           8           0           0           0         111
           1           1           2
Charge                                     I                0
Multiplicity                               I                1
Number of electrons                        I                6
Number of alpha electrons                  I                3
Number of beta electrons                   I                3
Number of basis functions                  I               80
Number of independent functions            I               80
Number of point charges in /Mol/           I                0
Number of translation vectors              I                0
Atomic numbers                             I   N=           1
           6
Nuclear charges                            R   N=           1
  6.00000000E+00
Current cartesian coordinates              R   N=           3
  0.00000000E+00  0.00000000E+00  0.00000000E+00
Force Field                                I                0
Int Atom Types                             I   N=           1
           0
MM charges                                 R   N=           1
  0.00000000E+00
Integer atomic weights                     I   N=           1
          12
Real atomic weights                        R   N=           1
  1.20000000E+01
Atom fragment info                         I   N=           1
           0
Atom residue num                           I   N=           1
           0
Nuclear spins                              I   N=           1
           0
Nuclear ZEff                               R   N=           1
 -3.60000000E+00
Nuclear QMom                               R   N=           1
  0.00000000E+00
Nuclear GFac                               R   N=           1
  0.00000000E+00
MicOpt                                     I   N=           1
          -1
Number of contracted shells                I               20
Number of primitive shells                 I               35
Pure/Cartesian d shells                    I                0
Pure/Cartesian f shells                    I                0
Highest angular momentum                   I                4
Largest degree of contraction              I                8
Shell types                                I   N=          20
           0           0           0           0           0           0
           1           1           1           1           1          -2
          -2          -2          -2          -3          -3          -3
          -4          -4
Number of primitives per shell             I   N=          20
           8           7           1           1           1           1
           3           1           1           1           1           1
           1           1           1           1           1           1
           1           1
Shell to atom map                          I   N=          20
           1           1           1           1           1           1
           1           1           1           1           1           1
           1           1           1           1           1           1
           1           1
Primitive exponents                        R   N=          35
  3.39800000E+04  5.08900000E+03  1.15700000E+03  3.26600000E+02  1.06100000E+02
  3.81100000E+01  1.47500000E+01  6.03500000E+00  5.08900000E+03  3.26600000E+02
  1.06100000E+02  3.81100000E+01  1.47500000E+01  6.03500000E+00  2.53000000E+00
  7.35500000E-01  2.90500000E-01  1.11100000E-01  4.14500000E-02  3.45100000E+01
  7.91500000E+00  2.36800000E+00  8.13200000E-01  2.89000000E-01  1.00700000E-01
  3.21800000E-02  1.84800000E+00  6.49000000E-01  2.28000000E-01  7.66000000E-02
  1.41900000E+00  4.85000000E-01  1.87000000E-01  1.01100000E+00  4.24000000E-01
Contraction coefficients                   R   N=          35
  1.46812411E-04  1.11646002E-03  5.89088711E-03  2.42172555E-02  8.31716388E-02
  2.20568478E-01  4.28731497E-01  3.64361422E-01 -1.00226536E-05 -4.36589437E-04
 -1.93231273E-03 -2.14839477E-02 -9.03091657E-02 -4.18791512E-01 -5.31801906E-01
  1.00000000E+00  1.00000000E+00  1.00000000E+00  1.00000000E+00  3.16878552E-02
  2.12894307E-01  8.39586752E-01  1.00000000E+00  1.00000000E+00  1.00000000E+00
  1.00000000E+00  1.00000000E+00  1.00000000E+00  1.00000000E+00  1.00000000E+00
  1.00000000E+00  1.00000000E+00  1.00000000E+00  1.00000000E+00  1.00000000E+00
Coordinates of each shell                  R   N=          60
  0.00000000E+00  0.00000000E+00  0.00000000E+00  0.00000000E+00  0.00000000E+00
  0.00000000E+00  0.00000000E+00  0.00000000E+00  0.00000000E+00  0.00000000E+00
  0.00000000E+00  0.00000000E+00  0.00000000E+00  0.00000000E+00  0.00000000E+00
  0.00000000E+00  0.00000000E+00  0.00000000E+00  0.00000000E+00  0.00000000E+00
  0.00000000E+00  0.00000000E+00  0.00000000E+00  0.00000000E+00  0.00000000E+00
  0.00000000E+00  0.00000000E+00  0.00000000E+00  0.00000000E+00  0.00000000E+00
  0.00000000E+00  0.00000000E+00  0.00000000E+00  0.00000000E+00  0.00000000E+00
  0.00000000E+00  0.00000000E+00  0.00000000E+00  0.00000000E+00  0.00000000E+00
  0.00000000E+00  0.00000000E+00  0.00000000E+00  0.00000000E+00  0.00000000E+00
  0.00000000E+00  0.00000000E+00  0.00000000E+00  0.00000000E+00  0.00000000E+00
  0.00000000E+00  0.00000000E+00  0.00000000E+00  0.00000000E+00  0.00000000E+00
  0.00000000E+00  0.00000000E+00  0.00000000E+00  0.00000000E+00  0.00000000E+00
Constraint Structure                       R   N=           3
  0.00000000E+00  0.00000000E+00  0.00000000E+00
Num ILSW                                   I              100
ILSW                                       I   N=         100
           0           0           0           0           2           0
           0           0           0           0           0          -1
           0           0           0           0           0           0
           0           0           0           0           0           0
           1           0           0           0           0           0
           0           0      100000           0          -1           0
           0           0           0           0           0           0
           0           0           0           1           0           0
           0           0           1           0           0           0
           0           0           4          40           0           0
           0           0           0           0           0           0
           0           0           0           0           0           0
           0           0           0           0           0           0
           0           0           0           0           0           0
           0           0           0           0           0           0
           0           0           0           0           0           0
           0           0           0           0
Num RLSW                                   I               40
RLSW                                       R   N=          40
  1.00000000E+00  1.00000000E+00  1.00000000E+00  1.00000000E+00  1.00000000E+00
  0.00000000E+00  0.00000000E+00  1.00000000E+00  0.00000000E+00  0.00000000E+00
  0.00000000E+00  0.00000000E+00  1.00000000E+00  0.00000000E+00  0.00000000E+00
  0.00000000E+00  0.00000000E+00  1.00000000E+00  0.00000000E+00  0.00000000E+00
  0.00000000E+00  0.00000000E+00  1.00000000E+00  0.00000000E+00  0.00000000E+00
  0.00000000E+00  0.00000000E+00  1.00000000E+00  0.00000000E+00  0.00000000E+00
  0.00000000E+00  0.00000000E+00  0.00000000E+00  0.00000000E+00  0.00000000E+00
  0.00000000E+00  0.00000000E+00  0.00000000E+00  1.00000000E+00  1.00000000E+00
MxBond                                     I                1
NBond                                      I   N=           1
           0
IBond                                      I   N=           1
           0
RBond                                      R   N=           1
  0.00000000E+00
Virial Ratio                               R      2.000024255550511E+00
SCF Energy                                 R     -3.760454245753944E+01
Total Energy                               R     -3.760454245753944E+01
RMS Density                                R      4.293842812824877E-09
External E-field                           R   N=          35
  0.00000000E+00  0.00000000E+00  0.00000000E+00  0.00000000E+00  0.00000000E+00
  0.00000000E+00  0.00000000E+00  0.00000000E+00  0.00000000E+00  0.00000000E+00
  0.00000000E+00  0.00000000E+00  0.00000000E+00  0.00000000E+00  0.00000000E+00
  0.00000000E+00  0.00000000E+00  0.00000000E+00  0.00000000E+00  0.00000000E+00
  0.00000000E+00  0.00000000E+00  0.00000000E+00  0.00000000E+00  0.00000000E+00
  0.00000000E+00  0.00000000E+00  0.00000000E+00  0.00000000E+00  0.00000000E+00
  0.00000000E+00  0.00000000E+00  0.00000000E+00  0.00000000E+00  0.00000000E+00
IOpCl                                      I                0
IROHF                                      I                0
Alpha Orbital Energies                     R   N=          80
 -1.13649902E+01 -7.25629627E-01 -3.58430162E-01  1.88580582E-02  1.88580582E-02
  8.34191603E-02  8.99004187E-02  1.08244560E-01  1.08244560E-01  2.32374115E-01
  2.32374115E-01  2.41640387E-01  2.41640387E-01  2.45417723E-01  4.45331313E-01
  4.63968355E-01  4.63968355E-01  5.03207381E-01  7.44144654E-01  7.44144654E-01
  7.62264534E-01  7.62264534E-01  7.73568385E-01  7.73568385E-01  7.75669733E-01
  7.75669733E-01  7.77426190E-01  7.91144919E-01  7.91144919E-01  7.98435020E-01
  1.59145176E+00  1.59145176E+00  1.60860603E+00  2.08998959E+00  2.08998959E+00
  2.10755981E+00  2.11833460E+00  2.11833460E+00  2.13862784E+00  2.13862784E+00
  2.15082191E+00  2.15082191E+00  2.15489042E+00  2.19726991E+00  2.19726991E+00
  2.23152627E+00  2.23152627E+00  2.24477458E+00  2.24517044E+00  2.24517044E+00
  2.28314372E+00  2.28314372E+00  2.30666432E+00  2.30666432E+00  2.31466558E+00
  5.76711536E+00  5.76711536E+00  5.81420947E+00  5.87388386E+00  5.87388386E+00
  5.92115787E+00  5.92115787E+00  5.95483224E+00  5.95483224E+00  5.97500139E+00
  5.97500139E+00  5.98171859E+00  6.32804635E+00  6.32804635E+00  6.38281482E+00
  6.38281482E+00  6.40137032E+00  6.41813127E+00  6.41813127E+00  6.47304784E+00
  6.47304784E+00  6.50666321E+00  6.50666321E+00  6.51803143E+00  2.04222936E+01
Alpha MO coefficients                      R   N=        6400
  6.27010291E-01 -4.08154694E-01  1.57484428E-02 -3.47791011E-03  1.60600087E-03
 -4.03524457E-04  0.00000000E+00  0.00000000E+00  0.00000000E+00  0.00000000E+00
  0.00000000E+00  0.00000000E+00  0.00000000E+00  0.00000000E+00  0.00000000E+00
  0.00000000E+00  0.00000000E+00  0.00000000E+00  0.00000000E+00  0.00000000E+00
  0.00000000E+00 -2.12849242E-04  0.00000000E+00  0.00000000E+00 -6.66743201E-16
  0.00000000E+00  1.01598963E-03  0.00000000E+00  0.00000000E+00  6.58469206E-16
  0.00000000E+00 -9.95408161E-05  0.00000000E+00  0.00000000E+00 -4.54514606E-16
  0.00000000E+00  8.68422771E-05  0.00000000E+00  0.00000000E+00  1.80958862E-16
  0.00000000E+00  0.00000000E+00  0.00000000E+00  0.00000000E+00  0.00000000E+00
  0.00000000E+00  0.00000000E+00  0.00000000E+00  0.00000000E+00  0.00000000E+00
  0.00000000E+00  0.00000000E+00  0.00000000E+00  0.00000000E+00  0.00000000E+00
  0.00000000E+00  0.00000000E+00  0.00000000E+00  0.00000000E+00  0.00000000E+00
  0.00000000E+00  0.00000000E+00 -1.35113332E-05  0.00000000E+00  0.00000000E+00
 -5.25282972E-17  0.00000000E+00  0.00000000E+00  0.00000000E+00 -1.06341883E-16
  0.00000000E+00 -3.35440045E-06  0.00000000E+00  0.00000000E+00  2.50089327E-17
  0.00000000E+00  0.00000000E+00  0.00000000E+00 -1.12738521E-17  0.00000000E+00
 -1.34298769E-01  2.24016838E-01  2.80957738E-01  5.91928781E-01  2.71475242E-01
  2.92913902E-03  0.00000000E+00  0.00000000E+00  0.00000000E+00  0.00000000E+00
  0.00000000E+00  0.00000000E+00  0.00000000E+00  0.00000000E+00  0.00000000E+00
  0.00000000E+00  0.00000000E+00  0.00000000E+00  0.00000000E+00  0.00000000E+00
  0.00000000E+00  2.21976944E-03  0.00000000E+00  0.00000000E+00 -3.15705525E-16
  0.00000000E+00 -6.67709372E-04  0.00000000E+00  0.00000000E+00  6.95117415E-16
  0.00000000E+00  8.58173627E-03  0.00000000E+00  0.00000000E+00 -5.04882733E-16
  0.00000000E+00  4.36597134E-03  0.00000000E+00  0.00000000E+00 -1.08225863E-16
  0.00000000E+00  0.00000000E+00  0.00000000E+00  0.00000000E+00  0.00000000E+00
  0.00000000E+00  0.00000000E+00  0.00000000E+00  0.00000000E+00  0.00000000E+00
  0.00000000E+00  0.00000000E+00  0.00000000E+00  0.00000000E+00  0.00000000E+00
  0.00000000E+00  0.00000000E+00  0.00000000E+00  0.00000000E+00  0.00000000E+00
  0.00000000E+00  0.00000000E+00 -6.64990336E-05  0.00000000E+00  0.00000000E+00
 -3.91656080E-16  0.00000000E+00  0.00000000E+00  0.00000000E+00  4.26830925E-16
  0.00000000E+00 -4.02871979E-04  0.00000000E+00  0.00000000E+00  3.13187456E-16
  0.00000000E+00  0.00000000E+00  0.00000000E+00 -1.03087522E-15  0.00000000E+00
  0.00000000E+00  0.00000000E+00  0.00000000E+00  0.00000000E+00  0.00000000E+00
  0.00000000E+00  0.00000000E+00  0.00000000E+00  1.66555684E-01  0.00000000E+00
  0.00000000E+00  3.25426242E-01  0.00000000E+00  0.00000000E+00  4.41848755E-01
  0.00000000E+00  0.00000000E+00  2.88966315E-01  0.00000000E+00  0.00000000E+00
  2.37799814E-02  0.00000000E+00  0.00000000E+00  0.00000000E+00  0.00000000E+00
  0.00000000E+00  0.00000000E+00  0.00000000E+00  0.00000000E+00  0.00000000E+00
  0.00000000E+00  0.00000000E+00  0.00000000E+00  0.00000000E+00  0.00000000E+00
  0.00000000E+00  0.00000000E+00  0.00000000E+00  0.00000000E+00  0.00000000E+00
  0.00000000E+00 -4.13316129E-03  0.00000000E+00  0.00000000E+00 -2.85101098E-16
  0.00000000E+00  0.00000000E+00  0.00000000E+00 -9.32966810E-03  0.00000000E+00
  0.00000000E+00  3.02847889E-16  0.00000000E+00  0.00000000E+00  0.00000000E+00
 -7.76177673E-03  0.00000000E+00  0.00000000E+00 -1.72852665E-16  0.00000000E+00
  0.00000000E+00  0.00000000E+00  0.00000000E+00  0.00000000E+00  0.00000000E+00
  0.00000000E+00  0.00000000E+00  0.00000000E+00  0.00000000E+00  0.00000000E+00
  0.00000000E+00  0.00000000E+00  0.00000000E+00  0.00000000E+00  0.00000000E+00
  0.00000000E+00  0.00000000E+00  0.00000000E+00  0.00000000E+00  0.00000000E+00
  0.00000000E+00  0.00000000E+00  0.00000000E+00  0.00000000E+00  0.00000000E+00
  0.00000000E+00  0.00000000E+00  9.66383844E-02  0.00000000E+00  0.00000000E+00
  1.83336420E-01  0.00000000E+00  0.00000000E+00  3.00122862E-01  0.00000000E+00
  0.00000000E+00  2.37741924E-01  0.00000000E+00  0.00000000E+00  5.28019083E-01
  0.00000000E+00  0.00000000E+00  0.00000000E+00  0.00000000E+00  0.00000000E+00
  0.00000000E+00  0.00000000E+00  0.00000000E+00  0.00000000E+00  0.00000000E+00
  0.00000000E+00  0.00000000E+00  0.00000000E+00  0.00000000E+00  0.00000000E+00
  0.00000000E+00  0.00000000E+00  0.00000000E+00  0.00000000E+00  0.00000000E+00
  0.00000000E+00  0.00000000E+00  0.00000000E+00 -2.10584559E-03  0.00000000E+00
  0.00000000E+00  0.00000000E+00 -8.85928411E-16  0.00000000E+00  0.00000000E+00
 -3.91584068E-03  0.00000000E+00  0.00000000E+00  0.00000000E+00  2.45280006E-15
  0.00000000E+00  0.00000000E+00 -1.18033146E-02  0.00000000E+00  0.00000000E+00
  0.00000000E+00 -3.35868322E-15  0.00000000E+00  0.00000000E+00  0.00000000E+00
  0.00000000E+00  0.00000000E+00  0.00000000E+00  0.00000000E+00  0.00000000E+00
  0.00000000E+00  0.00000000E+00  0.00000000E+00  0.00000000E+00  0.00000000E+00
  0.00000000E+00  0.00000000E+00  0.00000000E+00  0.00000000E+00  0.00000000E+00
  0.00000000E+00  0.00000000E+00  0.00000000E+00  0.00000000E+00  0.00000000E+00
  0.00000000E+00  9.66383844E-02  0.00000000E+00  0.00000000E+00  1.83336420E-01
  0.00000000E+00  0.00000000E+00  3.00122862E-01  0.00000000E+00  0.00000000E+00
  2.37741924E-01  0.00000000E+00  0.00000000E+00  5.28019083E-01  0.00000000E+00
  0.00000000E+00  0.00000000E+00  0.00000000E+00  0.00000000E+00  0.00000000E+00
  0.00000000E+00  0.00000000E+00  0.00000000E+00  0.00000000E+00  0.00000000E+00
  0.00000000E+00  0.00000000E+00  0.00000000E+00  0.00000000E+00  0.00000000E+00
  0.00000000E+00  0.00000000E+00  0.00000000E+00  0.00000000E+00  0.00000000E+00
  0.00000000E+00  0.00000000E+00 -2.10584559E-03  0.00000000E+00  0.00000000E+00
  0.00000000E+00  4.50489051E-16  0.00000000E+00  0.00000000E+00 -3.91584068E-03
  0.00000000E+00  0.00000000E+00  0.00000000E+00 -1.58745217E-15  0.00000000E+00
  0.00000000E+00 -1.18033146E-02  0.00000000E+00  0.00000000E+00  0.00000000E+00
  3.27447786E-15  0.00000000E+00  0.00000000E+00  0.00000000E+00  0.00000000E+00
  0.00000000E+00  0.00000000E+00  0.00000000E+00  0.00000000E+00  0.00000000E+00
  0.00000000E+00  0.00000000E+00  0.00000000E+00  0.00000000E+00  0.00000000E+00
  0.00000000E+00  0.00000000E+00  0.00000000E+00  0.00000000E+00  0.00000000E+00
  2.90042588E-02 -6.54208587E-02 -1.74345359E-01  2.24985865E-01 -1.35882301E+00
  1.81403365E+00  0.00000000E+00  0.00000000E+00  0.00000000E+00  0.00000000E+00
  0.00000000E+00  0.00000000E+00  0.00000000E+00  0.00000000E+00  0.00000000E+00
  0.00000000E+00  0.00000000E+00  0.00000000E+00  0.00000000E+00  0.00000000E+00
  0.00000000E+00  4.87709667E-04  0.00000000E+00  0.00000000E+00  2.90379525E-16
  0.00000000E+00  6.21434322E-06  0.00000000E+00  0.00000000E+00 -1.33438472E-15
  0.00000000E+00  1.06327690E-02  0.00000000E+00  0.00000000E+00  3.18073541E-15
  0.00000000E+00 -6.22550619E-02  0.00000000E+00  0.00000000E+00  6.63845344E-16
  0.00000000E+00  0.00000000E+00  0.00000000E+00  0.00000000E+00  0.00000000E+00
  0.00000000E+00  0.00000000E+00  0.00000000E+00  0.00000000E+00  0.00000000E+00
  0.00000000E+00  0.00000000E+00  0.00000000E+00  0.00000000E+00  0.00000000E+00
  0.00000000E+00  0.00000000E+00  0.00000000E+00  0.00000000E+00  0.00000000E+00
  0.00000000E+00  0.00000000E+00 -8.74228875E-05  0.00000000E+00  0.00000000E+00
  5.84526027E-16  0.00000000E+00  0.00000000E+00  0.00000000E+00 -1.95548429E-15
  0.00000000E+00  3.04817507E-04  0.00000000E+00  0.00000000E+00 -5.19174613E-16
  0.00000000E+00  0.00000000E+00  0.00000000E+00  4.08774983E-15  0.00000000E+00
  0.00000000E+00  0.00000000E+00  0.00000000E+00  0.00000000E+00  0.00000000E+00
  0.00000000E+00  0.00000000E+00  0.00000000E+00 -3.31096288E-02  0.00000000E+00
  0.00000000E+00 -1.05006399E-01  0.00000000E+00  0.00000000E+00  2.04113698E-02
  0.00000000E+00  0.00000000E+00 -5.29661219E-01  0.00000000E+00  0.00000000E+00
  1.26811274E+00  0.00000000E+00  0.00000000E+00  0.00000000E+00  0.00000000E+00
  0.00000000E+00  0.00000000E+00  0.00000000E+00  0.00000000E+00  0.00000000E+00
  0.00000000E+00  0.00000000E+00  0.00000000E+00  0.00000000E+00  0.00000000E+00
  0.00000000E+00  0.00000000E+00  0.00000000E+00  0.00000000E+00  0.00000000E+00
  0.00000000E+00  5.95949092E-04  0.00000000E+00  0.00000000E+00 -2.44334574E-16
  0.00000000E+00  0.00000000E+00  0.00000000E+00  4.24953497E-03  0.00000000E+00
  0.00000000E+00  6.78453732E-16  0.00000000E+00  0.00000000E+00  0.00000000E+00
 -6.43620175E-03  0.00000000E+00  0.00000000E+00 -7.44959263E-17  0.00000000E+00
  0.00000000E+00  0.00000000E+00  0.00000000E+00  0.00000000E+00  0.00000000E+00
  0.00000000E+00  0.00000000E+00  0.00000000E+00  0.00000000E+00  0.00000000E+00
  0.00000000E+00  0.00000000E+00  0.00000000E+00  0.00000000E+00  0.00000000E+00
  0.00000000E+00  0.00000000E+00  0.00000000E+00  0.00000000E+00  0.00000000E+00
  0.00000000E+00  0.00000000E+00  0.00000000E+00  0.00000000E+00  0.00000000E+00
  0.00000000E+00  0.00000000E+00 -7.99907914E-02  0.00000000E+00  0.00000000E+00
 -2.02838929E-01  0.00000000E+00  0.00000000E+00 -1.12587915E-01  0.00000000E+00
  0.00000000E+00 -8.07325748E-01  0.00000000E+00  0.00000000E+00  1.18807155E+00
  0.00000000E+00  0.00000000E+00  0.00000000E+00  0.00000000E+00  0.00000000E+00
  0.00000000E+00  0.00000000E+00  0.00000000E+00  0.00000000E+00  0.00000000E+00
  0.00000000E+00  0.00000000E+00  0.00000000E+00  0.00000000E+00  0.00000000E+00
  0.00000000E+00  0.00000000E+00  0.00000000E+00  0.00000000E+00  0.00000000E+00
  0.00000000E+00  0.00000000E+00  0.00000000E+00  1.51899859E-03  0.00000000E+00
  0.00000000E+00  0.00000000E+00  4.63058765E-16  0.00000000E+00  0.00000000E+00
  5.73959755E-03  0.00000000E+00  0.00000000E+00  0.00000000E+00 -3.13092124E-15
  0.00000000E+00  0.00000000E+00  2.01212062E-03  0.00000000E+00  0.00000000E+00
  0.00000000E+00  7.73120539E-15  0.00000000E+00  0.00000000E+00  0.00000000E+00
  0.00000000E+00  0.00000000E+00  0.00000000E+00  0.00000000E+00  0.00000000E+00
  0.00000000E+00  0.00000000E+00  0.00000000E+00  0.00000000E+00  0.00000000E+00
  0.00000000E+00  0.00000000E+00  0.00000000E+00  0.00000000E+00  0.00000000E+00
  0.00000000E+00  0.00000000E+00  0.00000000E+00  0.00000000E+00  0.00000000E+00
  0.00000000E+00 -7.99907914E-02  0.00000000E+00  0.00000000E+00 -2.02838929E-01
  0.00000000E+00  0.00000000E+00 -1.12587915E-01  0.00000000E+00  0.00000000E+00
 -8.07325748E-01  0.00000000E+00  0.00000000E+00  1.18807155E+00  0.00000000E+00
  0.00000000E+00  0.00000000E+00  0.00000000E+00  0.00000000E+00  0.00000000E+00
  0.00000000E+00  0.00000000E+00  0.00000000E+00  0.00000000E+00  0.00000000E+00
  0.00000000E+00  0.00000000E+00  0.00000000E+00  0.00000000E+00  0.00000000E+00
  0.00000000E+00  0.00000000E+00  0.00000000E+00  0.00000000E+00  0.00000000E+00
  0.00000000E+00  0.00000000E+00  1.51899859E-03  0.00000000E+00  0.00000000E+00
  0.00000000E+00 -6.36054059E-16  0.00000000E+00  0.00000000E+00  5.73959755E-03
  0.00000000E+00  0.00000000E+00  0.00000000E+00  2.28475401E-15  0.00000000E+00
  0.00000000E+00  2.01212062E-03  0.00000000E+00  0.00000000E+00  0.00000000E+00
 -5.39409524E-15  0.00000000E+00  0.00000000E+00  0.00000000E+00  0.00000000E+00
  0.00000000E+00  0.00000000E+00  0.00000000E+00  0.00000000E+00  0.00000000E+00
  0.00000000E+00  0.00000000E+00  0.00000000E+00  0.00000000E+00  0.00000000E+00
  0.00000000E+00  0.00000000E+00  0.00000000E+00  0.00000000E+00  0.00000000E+00
  0.00000000E+00  0.00000000E+00  0.00000000E+00  0.00000000E+00  0.00000000E+00
  0.00000000E+00  0.00000000E+00  0.00000000E+00  0.00000000E+00  0.00000000E+00
  0.00000000E+00  0.00000000E+00  0.00000000E+00  0.00000000E+00  0.00000000E+00
  0.00000000E+00  0.00000000E+00  0.00000000E+00  0.00000000E+00  0.00000000E+00
  0.00000000E+00  0.00000000E+00  0.00000000E+00  0.00000000E+00  0.00000000E+00
 -9.26687899E-03  0.00000000E+00  0.00000000E+00  0.00000000E+00  0.00000000E+00
  6.74970596E-02  0.00000000E+00  0.00000000E+00  0.00000000E+00  0.00000000E+00
 -1.94437908E-01  0.00000000E+00  0.00000000E+00  0.00000000E+00  0.00000000E+00
  1.09914893E+00  0.00000000E+00  0.00000000E+00  0.00000000E+00  0.00000000E+00
  0.00000000E+00  0.00000000E+00  0.00000000E+00  0.00000000E+00  0.00000000E+00
  0.00000000E+00  0.00000000E+00  0.00000000E+00  0.00000000E+00  0.00000000E+00
  0.00000000E+00  0.00000000E+00  0.00000000E+00  0.00000000E+00  0.00000000E+00
  0.00000000E+00  0.00000000E+00  0.00000000E+00  0.00000000E+00  0.00000000E+00
  0.00000000E+00  6.90063291E-04  0.00000000E+00  0.00000000E+00  0.00000000E+00
 -1.12220471E-16  0.00000000E+00  0.00000000E+00  0.00000000E+00  0.00000000E+00
 -4.06856160E-03  0.00000000E+00  0.00000000E+00  0.00000000E+00  2.46779055E-16
 -9.74783881E-16 -6.20964638E-17 -9.61244476E-15  4.25534344E-14 -5.58523684E-14
  2.48021659E-14  0.00000000E+00  0.00000000E+00  0.00000000E+00  0.00000000E+00
  0.00000000E+00  0.00000000E+00  0.00000000E+00  0.00000000E+00  0.00000000E+00
  0.00000000E+00  0.00000000E+00  0.00000000E+00  0.00000000E+00  0.00000000E+00
  0.00000000E+00 -6.52580900E-16  0.00000000E+00  0.00000000E+00 -9.26687899E-03
  0.00000000E+00  4.67731500E-15  0.00000000E+00  0.00000000E+00  6.74970596E-02
  0.00000000E+00 -1.35024645E-14  0.00000000E+00  0.00000000E+00 -1.94437908E-01
  0.00000000E+00  7.42165149E-14  0.00000000E+00  0.00000000E+00  1.09914893E+00
  0.00000000E+00  0.00000000E+00  0.00000000E+00  0.00000000E+00  0.00000000E+00
  0.00000000E+00  0.00000000E+00  0.00000000E+00  0.00000000E+00  0.00000000E+00
  0.00000000E+00  0.00000000E+00  0.00000000E+00  0.00000000E+00  0.00000000E+00
  0.00000000E+00  0.00000000E+00  0.00000000E+00  0.00000000E+00  0.00000000E+00
  0.00000000E+00  0.00000000E+00  2.47480688E-16  0.00000000E+00  0.00000000E+00
  6.90063291E-04  0.00000000E+00  0.00000000E+00  0.00000000E+00  2.47066599E-16
  0.00000000E+00 -1.35802283E-15  0.00000000E+00  0.00000000E+00 -4.06856160E-03
  0.00000000E+00  0.00000000E+00  0.00000000E+00 -6.58551362E-16  0.00000000E+00
  0.00000000E+00  0.00000000E+00  0.00000000E+00  0.00000000E+00  0.00000000E+00
  0.00000000E+00  0.00000000E+00  0.00000000E+00  0.00000000E+00  0.00000000E+00
  0.00000000E+00  0.00000000E+00  0.00000000E+00  0.00000000E+00  0.00000000E+00
  0.00000000E+00  0.00000000E+00  0.00000000E+00  0.00000000E+00  0.00000000E+00
  0.00000000E+00  0.00000000E+00 -9.17476288E-03  0.00000000E+00  0.00000000E+00
  0.00000000E+00  0.00000000E+00  7.16739124E-02  0.00000000E+00  0.00000000E+00
  0.00000000E+00  0.00000000E+00 -1.96349456E-01  0.00000000E+00  0.00000000E+00
  0.00000000E+00  0.00000000E+00  1.09954142E+00  0.00000000E+00  0.00000000E+00
  0.00000000E+00  0.00000000E+00  0.00000000E+00  0.00000000E+00  0.00000000E+00
  0.00000000E+00  0.00000000E+00  0.00000000E+00  0.00000000E+00  0.00000000E+00
  0.00000000E+00  0.00000000E+00  0.00000000E+00  0.00000000E+00  0.00000000E+00
  0.00000000E+00  0.00000000E+00  0.00000000E+00  0.00000000E+00  0.00000000E+00
  0.00000000E+00  0.00000000E+00  0.00000000E+00  9.26818011E-04  0.00000000E+00
  0.00000000E+00  0.00000000E+00 -8.29520161E-16  0.00000000E+00  0.00000000E+00
  0.00000000E+00  0.00000000E+00 -5.79894341E-03  0.00000000E+00  0.00000000E+00
  0.00000000E+00  1.69004558E-15  0.00000000E+00  0.00000000E+00  0.00000000E+00
  0.00000000E+00  0.00000000E+00  0.00000000E+00  0.00000000E+00  0.00000000E+00
  0.00000000E+00  0.00000000E+00  0.00000000E+00  0.00000000E+00  0.00000000E+00
  0.00000000E+00  0.00000000E+00  0.00000000E+00  0.00000000E+00  0.00000000E+00
  0.00000000E+00  0.00000000E+00  0.00000000E+00  0.00000000E+00  0.00000000E+00
  0.00000000E+00  0.00000000E+00  0.00000000E+00 -9.17476288E-03  0.00000000E+00
  0.00000000E+00  0.00000000E+00  0.00000000E+00  7.16739124E-02  0.00000000E+00
  0.00000000E+00  0.00000000E+00  0.00000000E+00 -1.96349456E-01  0.00000000E+00
  0.00000000E+00  0.00000000E+00  0.00000000E+00  1.09954142E+00  0.00000000E+00
  0.00000000E+00  0.00000000E+00  0.00000000E+00  0.00000000E+00  0.00000000E+00
  0.00000000E+00  0.00000000E+00  0.00000000E+00  0.00000000E+00  0.00000000E+00
  0.00000000E+00  0.00000000E+00  0.00000000E+00  0.00000000E+00  0.00000000E+00
  0.00000000E+00  0.00000000E+00  0.00000000E+00  0.00000000E+00  0.00000000E+00
  0.00000000E+00  0.00000000E+00  0.00000000E+00  0.00000000E+00  9.26818011E-04
  0.00000000E+00  0.00000000E+00  0.00000000E+00  6.58677961E-16  0.00000000E+00
  0.00000000E+00  0.00000000E+00  0.00000000E+00 -5.79894341E-03  0.00000000E+00
  0.00000000E+00  0.00000000E+00 -1.27076770E-15  0.00000000E+00  0.00000000E+00
  8.16756921E-04 -4.28597046E-03 -2.29802281E-02  7.37176541E-02 -1.67261489E-01
  1.38468030E-01  0.00000000E+00  0.00000000E+00  0.00000000E+00  0.00000000E+00
  0.00000000E+00  0.00000000E+00  0.00000000E+00  0.00000000E+00  0.00000000E+00
  0.00000000E+00  0.00000000E+00  0.00000000E+00  0.00000000E+00  0.00000000E+00
  0.00000000E+00 -9.17012864E-03  0.00000000E+00  0.00000000E+00  6.48092401E-16
  0.00000000E+00  7.25883141E-02  0.00000000E+00  0.00000000E+00 -4.46666102E-15
  0.00000000E+00 -1.97331997E-01  0.00000000E+00  0.00000000E+00  1.23808727E-14
  0.00000000E+00  1.09802269E+00  0.00000000E+00  0.00000000E+00 -7.48094194E-14
  0.00000000E+00  0.00000000E+00  0.00000000E+00  0.00000000E+00  0.00000000E+00
  0.00000000E+00  0.00000000E+00  0.00000000E+00  0.00000000E+00  0.00000000E+00
  0.00000000E+00  0.00000000E+00  0.00000000E+00  0.00000000E+00  0.00000000E+00
  0.00000000E+00  0.00000000E+00  0.00000000E+00  0.00000000E+00  0.00000000E+00
  0.00000000E+00  0.00000000E+00  1.00119860E-03  0.00000000E+00  0.00000000E+00
  8.29071714E-18  0.00000000E+00  0.00000000E+00  0.00000000E+00  2.08670403E-16
  0.00000000E+00 -6.34042639E-03  0.00000000E+00  0.00000000E+00  2.20853817E-16
  0.00000000E+00  0.00000000E+00  0.00000000E+00 -9.34435082E-18  0.00000000E+00
  0.00000000E+00  0.00000000E+00  0.00000000E+00  0.00000000E+00  0.00000000E+00
  0.00000000E+00  0.00000000E+00  0.00000000E+00 -1.38548775E-01  0.00000000E+00
  0.00000000E+00 -8.41287953E-02  0.00000000E+00  0.00000000E+00 -1.00991536E+00
  0.00000000E+00  0.00000000E+00  1.87727048E+00  0.00000000E+00  0.00000000E+00
 -7.80223057E-01  0.00000000E+00  0.00000000E+00  0.00000000E+00  0.00000000E+00
  0.00000000E+00  0.00000000E+00  0.00000000E+00  0.00000000E+00  0.00000000E+00
  0.00000000E+00  0.00000000E+00  0.00000000E+00  0.00000000E+00  0.00000000E+00
  0.00000000E+00  0.00000000E+00  0.00000000E+00  0.00000000E+00  0.00000000E+00
  0.00000000E+00  1.61068240E-03  0.00000000E+00  0.00000000E+00  3.19375514E-16
  0.00000000E+00  0.00000000E+00  0.00000000E+00  1.55015276E-02  0.00000000E+00
  0.00000000E+00 -2.24114926E-15  0.00000000E+00  0.00000000E+00  0.00000000E+00
 -5.28303826E-02  0.00000000E+00  0.00000000E+00  1.46381778E-15  0.00000000E+00
  0.00000000E+00  0.00000000E+00  0.00000000E+00  0.00000000E+00  0.00000000E+00
  0.00000000E+00  0.00000000E+00  0.00000000E+00  0.00000000E+00  0.00000000E+00