Notitle                                                                 
SP        UB3LYP                                                      STO-3G              
Number of atoms                            I               20
Info1-9                                    I   N=           9
          83          83           0           0           0         111
           1          18        -502
Charge                                     I                1
Multiplicity                               I                2
Number of electrons                        I               69
Number of alpha electrons                  I               35
Number of beta electrons                   I               34
Number of basis functions                  I               60
Number of independent functions            I               60
Number of point charges in /Mol/           I                0
Number of translation vectors              I                0
Atomic numbers                             I   N=          20
           6           6           6           6           6           1
           1           1           6           6           1           1
           1           6           1           6           1           1
           6           1
Nuclear charges                            R   N=          20
  6.00000000E+00  6.00000000E+00  6.00000000E+00  6.00000000E+00  6.00000000E+00
  1.00000000E+00  1.00000000E+00  1.00000000E+00  6.00000000E+00  6.00000000E+00
  1.00000000E+00  1.00000000E+00  1.00000000E+00  6.00000000E+00  1.00000000E+00
  6.00000000E+00  1.00000000E+00  1.00000000E+00  6.00000000E+00  1.00000000E+00
Current cartesian coordinates              R   N=          60
  0.00000000E+00  0.00000000E+00  0.00000000E+00  0.00000000E+00  0.00000000E+00
  2.68559108E+00  2.27465436E+00  0.00000000E+00  4.04462873E+00  4.65267622E+00
  0.00000000E+00  2.79141194E+00  4.65267622E+00  0.00000000E+00  1.05820862E-01
 -1.80055651E+00  0.00000000E+00  3.71530086E+00  2.23015238E+00  0.00000000E+00
  6.12032253E+00  6.45323273E+00  0.00000000E+00 -9.23888925E-01  7.02511541E+00
  0.00000000E+00  4.33439868E+00  9.40659436E+00  0.00000000E+00  3.45027561E+00
  9.84708598E+00  0.00000000E+00  1.42653904E+00  6.71396977E+00  0.00000000E+00
  6.39045595E+00  1.10299749E+01  0.00000000E+00  4.73714884E+00 -2.37243918E+00
  0.00000000E+00 -1.54298674E+00 -2.06129354E+00  0.00000000E+00 -3.59904401E+00
 -4.75391814E+00  0.00000000E+00 -6.58863675E-01 -5.19440976E+00  0.00000000E+00
  1.36487290E+00 -6.37729869E+00  0.00000000E+00 -1.94573690E+00  2.37802187E+00
  0.00000000E+00 -1.25321679E+00  2.42252384E+00  0.00000000E+00 -3.32891059E+00
Force Field                                I                0
Int Atom Types                             I   N=          20
           0           0           0           0           0           0
           0           0           0           0           0           0
           0           0           0           0           0           0
           0           0
MM charges                                 R   N=          20
  0.00000000E+00  0.00000000E+00  0.00000000E+00  0.00000000E+00  0.00000000E+00
  0.00000000E+00  0.00000000E+00  0.00000000E+00  0.00000000E+00  0.00000000E+00
  0.00000000E+00  0.00000000E+00  0.00000000E+00  0.00000000E+00  0.00000000E+00
  0.00000000E+00  0.00000000E+00  0.00000000E+00  0.00000000E+00  0.00000000E+00
Integer atomic weights                     I   N=          20
          12          12          12          12          12           1
           1           1          12          12           1           1
           1          12           1          12           1           1
          12           1
Real atomic weights                        R   N=          20
  1.20000000E+01  1.20000000E+01  1.20000000E+01  1.20000000E+01  1.20000000E+01
  1.00782504E+00  1.00782504E+00  1.00782504E+00  1.20000000E+01  1.20000000E+01
  1.00782504E+00  1.00782504E+00  1.00782504E+00  1.20000000E+01  1.00782504E+00
  1.20000000E+01  1.00782504E+00  1.00782504E+00  1.20000000E+01  1.00782504E+00
Atom fragment info                         I   N=          20
           0           0           0           0           0           0
           0           0           0           0           0           0
           0           0           0           0           0           0
           0           0
Atom residue num                           I   N=          20
           0           0           0           0           0           0
           0           0           0           0           0           0
           0           0           0           0           0           0
           0           0
Nuclear spins                              I   N=          20
           0           0           0           0           0           1
           1           1           0           0           1           1
           1           0           1           0           1           1
           0           1
Nuclear ZEff                               R   N=          20
 -3.60000000E+00 -3.60000000E+00 -3.60000000E+00 -3.60000000E+00 -3.60000000E+00
 -1.00000000E+00 -1.00000000E+00 -1.00000000E+00 -3.60000000E+00 -3.60000000E+00
 -1.00000000E+00 -1.00000000E+00 -1.00000000E+00 -3.60000000E+00 -1.00000000E+00
 -3.60000000E+00 -1.00000000E+00 -1.00000000E+00 -3.60000000E+00 -1.00000000E+00
Nuclear QMom                               R   N=          20
  0.00000000E+00  0.00000000E+00  0.00000000E+00  0.00000000E+00  0.00000000E+00
  0.00000000E+00  0.00000000E+00  0.00000000E+00  0.00000000E+00  0.00000000E+00
  0.00000000E+00  0.00000000E+00  0.00000000E+00  0.00000000E+00  0.00000000E+00
  0.00000000E+00  0.00000000E+00  0.00000000E+00  0.00000000E+00  0.00000000E+00
Nuclear GFac                               R   N=          20
  0.00000000E+00  0.00000000E+00  0.00000000E+00  0.00000000E+00  0.00000000E+00
  2.79284600E+00  2.79284600E+00  2.79284600E+00  0.00000000E+00  0.00000000E+00
  2.79284600E+00  2.79284600E+00  2.79284600E+00  0.00000000E+00  2.79284600E+00
  0.00000000E+00  2.79284600E+00  2.79284600E+00  0.00000000E+00  2.79284600E+00
MicOpt                                     I   N=          20
          -1          -1          -1          -1          -1          -1
          -1          -1          -1          -1          -1          -1
          -1          -1          -1          -1          -1          -1
          -1          -1
Number of contracted shells                I               30
Number of primitive shells                 I               90
Pure/Cartesian d shells                    I                0
Pure/Cartesian f shells                    I                0
Highest angular momentum                   I                1
Largest degree of contraction              I                3
Shell types                                I   N=          30
           0          -1           0          -1           0          -1
           0          -1           0          -1           0           0
           0           0          -1           0          -1           0
           0           0           0          -1           0           0
          -1           0           0           0          -1           0
Number of primitives per shell             I   N=          30
           3           3           3           3           3           3
           3           3           3           3           3           3
           3           3           3           3           3           3
           3           3           3           3           3           3
           3           3           3           3           3           3
Shell to atom map                          I   N=          30
           1           1           2           2           3           3
           4           4           5           5           6           7
           8           9           9          10          10          11
          12          13          14          14          15          16
          16          17          18          19          19          20
Primitive exponents                        R   N=          90
  7.16168373E+01  1.30450963E+01  3.53051216E+00  2.94124936E+00  6.83483096E-01
  2.22289916E-01  7.16168373E+01  1.30450963E+01  3.53051216E+00  2.94124936E+00
  6.83483096E-01  2.22289916E-01  7.16168373E+01  1.30450963E+01  3.53051216E+00
  2.94124936E+00  6.83483096E-01  2.22289916E-01  7.16168373E+01  1.30450963E+01
  3.53051216E+00  2.94124936E+00  6.83483096E-01  2.22289916E-01  7.16168373E+01
  1.30450963E+01  3.53051216E+00  2.94124936E+00  6.83483096E-01  2.22289916E-01
  3.42525091E+00  6.23913730E-01  1.68855404E-01  3.42525091E+00  6.23913730E-01
  1.68855404E-01  3.42525091E+00  6.23913730E-01  1.68855404E-01  7.16168373E+01
  1.30450963E+01  3.53051216E+00  2.94124936E+00  6.83483096E-01  2.22289916E-01
  7.16168373E+01  1.30450963E+01  3.53051216E+00  2.94124936E+00  6.83483096E-01
  2.22289916E-01  3.42525091E+00  6.23913730E-01  1.68855404E-01  3.42525091E+00
  6.23913730E-01  1.68855404E-01  3.42525091E+00  6.23913730E-01  1.68855404E-01
  7.16168373E+01  1.30450963E+01  3.53051216E+00  2.94124936E+00  6.83483096E-01
  2.22289916E-01  3.42525091E+00  6.23913730E-01  1.68855404E-01  7.16168373E+01
  1.30450963E+01  3.53051216E+00  2.94124936E+00  6.83483096E-01  2.22289916E-01
  3.42525091E+00  6.23913730E-01  1.68855404E-01  3.42525091E+00  6.23913730E-01
  1.68855404E-01  7.16168373E+01  1.30450963E+01  3.53051216E+00  2.94124936E+00
  6.83483096E-01  2.22289916E-01  3.42525091E+00  6.23913730E-01  1.68855404E-01
Contraction coefficients                   R   N=          90
  1.54328967E-01  5.35328142E-01  4.44634542E-01 -9.99672292E-02  3.99512826E-01
  7.00115469E-01  1.54328967E-01  5.35328142E-01  4.44634542E-01 -9.99672292E-02
  3.99512826E-01  7.00115469E-01  1.54328967E-01  5.35328142E-01  4.44634542E-01
 -9.99672292E-02  3.99512826E-01  7.00115469E-01  1.54328967E-01  5.35328142E-01
  4.44634542E-01 -9.99672292E-02  3.99512826E-01  7.00115469E-01  1.54328967E-01
  5.35328142E-01  4.44634542E-01 -9.99672292E-02  3.99512826E-01  7.00115469E-01
  1.54328967E-01  5.35328142E-01  4.44634542E-01  1.54328967E-01  5.35328142E-01
  4.44634542E-01  1.54328967E-01  5.35328142E-01  4.44634542E-01  1.54328967E-01
  5.35328142E-01  4.44634542E-01 -9.99672292E-02  3.99512826E-01  7.00115469E-01
  1.54328967E-01  5.35328142E-01  4.44634542E-01 -9.99672292E-02  3.99512826E-01
  7.00115469E-01  1.54328967E-01  5.35328142E-01  4.44634542E-01  1.54328967E-01
  5.35328142E-01  4.44634542E-01  1.54328967E-01  5.35328142E-01  4.44634542E-01
  1.54328967E-01  5.35328142E-01  4.44634542E-01 -9.99672292E-02  3.99512826E-01
  7.00115469E-01  1.54328967E-01  5.35328142E-01  4.44634542E-01  1.54328967E-01
  5.35328142E-01  4.44634542E-01 -9.99672292E-02  3.99512826E-01  7.00115469E-01
  1.54328967E-01  5.35328142E-01  4.44634542E-01  1.54328967E-01  5.35328142E-01
  4.44634542E-01  1.54328967E-01  5.35328142E-01  4.44634542E-01 -9.99672292E-02
  3.99512826E-01  7.00115469E-01  1.54328967E-01  5.35328142E-01  4.44634542E-01
P(S=P) Contraction coefficients            R   N=          90
  0.00000000E+00  0.00000000E+00  0.00000000E+00  1.55916275E-01  6.07683719E-01
  3.91957393E-01  0.00000000E+00  0.00000000E+00  0.00000000E+00  1.55916275E-01
  6.07683719E-01  3.91957393E-01  0.00000000E+00  0.00000000E+00  0.00000000E+00
  1.55916275E-01  6.07683719E-01  3.91957393E-01  0.00000000E+00  0.00000000E+00
  0.00000000E+00  1.55916275E-01  6.07683719E-01  3.91957393E-01  0.00000000E+00
  0.00000000E+00  0.00000000E+00  1.55916275E-01  6.07683719E-01  3.91957393E-01
  0.00000000E+00  0.00000000E+00  0.00000000E+00  0.00000000E+00  0.00000000E+00
  0.00000000E+00  0.00000000E+00  0.00000000E+00  0.00000000E+00  0.00000000E+00
  0.00000000E+00  0.00000000E+00  1.55916275E-01  6.07683719E-01  3.91957393E-01
  0.00000000E+00  0.00000000E+00  0.00000000E+00  1.55916275E-01  6.07683719E-01
  3.91957393E-01  0.00000000E+00  0.00000000E+00  0.00000000E+00  0.00000000E+00
  0.00000000E+00  0.00000000E+00  0.00000000E+00  0.00000000E+00  0.00000000E+00
  0.00000000E+00  0.00000000E+00  0.00000000E+00  1.55916275E-01  6.07683719E-01
  3.91957393E-01  0.00000000E+00  0.00000000E+00  0.00000000E+00  0.00000000E+00
  0.00000000E+00  0.00000000E+00  1.55916275E-01  6.07683719E-01  3.91957393E-01
  0.00000000E+00  0.00000000E+00  0.00000000E+00  0.00000000E+00  0.00000000E+00
  0.00000000E+00  0.00000000E+00  0.00000000E+00  0.00000000E+00  1.55916275E-01
  6.07683719E-01  3.91957393E-01  0.00000000E+00  0.00000000E+00  0.00000000E+00
Coordinates of each shell                  R   N=          90
  0.00000000E+00  0.00000000E+00  0.00000000E+00  0.00000000E+00  0.00000000E+00
  0.00000000E+00  0.00000000E+00  0.00000000E+00  2.68559108E+00  0.00000000E+00
  0.00000000E+00  2.68559108E+00  2.27465436E+00  0.00000000E+00  4.04462873E+00
  2.27465436E+00  0.00000000E+00  4.04462873E+00  4.65267622E+00  0.00000000E+00
  2.79141194E+00  4.65267622E+00  0.00000000E+00  2.79141194E+00  4.65267622E+00
  0.00000000E+00  1.05820862E-01  4.65267622E+00  0.00000000E+00  1.05820862E-01
 -1.80055651E+00  0.00000000E+00  3.71530086E+00  2.23015238E+00  0.00000000E+00
  6.12032253E+00  6.45323273E+00  0.00000000E+00 -9.23888925E-01  7.02511541E+00
  0.00000000E+00  4.33439868E+00  7.02511541E+00  0.00000000E+00  4.33439868E+00
  9.40659436E+00  0.00000000E+00  3.45027561E+00  9.40659436E+00  0.00000000E+00
  3.45027561E+00  9.84708598E+00  0.00000000E+00  1.42653904E+00  6.71396977E+00
  0.00000000E+00  6.39045595E+00  1.10299749E+01  0.00000000E+00  4.73714884E+00
 -2.37243918E+00  0.00000000E+00 -1.54298674E+00 -2.37243918E+00  0.00000000E+00
 -1.54298674E+00 -2.06129354E+00  0.00000000E+00 -3.59904401E+00 -4.75391814E+00
  0.00000000E+00 -6.58863675E-01 -4.75391814E+00  0.00000000E+00 -6.58863675E-01
 -5.19440976E+00  0.00000000E+00  1.36487290E+00 -6.37729869E+00  0.00000000E+00
 -1.94573690E+00  2.37802187E+00  0.00000000E+00 -1.25321679E+00  2.37802187E+00
  0.00000000E+00 -1.25321679E+00  2.42252384E+00  0.00000000E+00 -3.32891059E+00
Constraint Structure                       R   N=          60
  0.00000000E+00  0.00000000E+00  0.00000000E+00  0.00000000E+00  0.00000000E+00
  2.68559108E+00  2.27465436E+00  0.00000000E+00  4.04462873E+00  4.65267622E+00
  0.00000000E+00  2.79141194E+00  4.65267622E+00  0.00000000E+00  1.05820862E-01
 -1.80055651E+00  0.00000000E+00  3.71530086E+00  2.23015238E+00  0.00000000E+00
  6.12032253E+00  6.45323273E+00  0.00000000E+00 -9.23888925E-01  7.02511541E+00
  0.00000000E+00  4.33439868E+00  9.40659436E+00  0.00000000E+00  3.45027561E+00
  9.84708598E+00  0.00000000E+00  1.42653904E+00  6.71396977E+00  0.00000000E+00
  6.39045595E+00  1.10299749E+01  0.00000000E+00  4.73714884E+00 -2.37243918E+00
  0.00000000E+00 -1.54298674E+00 -2.06129354E+00  0.00000000E+00 -3.59904401E+00
 -4.75391814E+00  0.00000000E+00 -6.58863675E-01 -5.19440976E+00  0.00000000E+00
  1.36487290E+00 -6.37729869E+00  0.00000000E+00 -1.94573690E+00  2.37802187E+00
  0.00000000E+00 -1.25321679E+00  2.42252384E+00  0.00000000E+00 -3.32891059E+00
Num ILSW                                   I              100
ILSW                                       I   N=         100
           1           0           0           0           2           0
           0           0           0           0         402          -1
           0           0           0           0           0           0
           0           0           0           0           0           0
           1           1           0           0           0           0
           0           0      100000           0          -1           0
           0           0           0           0           0           0
           0           0           0           1           0           0
           0           0           1           0           0           0
           0           0           4          40           0           0
           0           0           5           0           0           0
           0           0           0           0           0           0
           0           0           0           0           0           0
           0           0           0           0           0           0
           0           0           0           0           0           0
           0           0           0           0           0           0
           0           0           0           0
Num RLSW                                   I               40
RLSW                                       R   N=          40
  8.00000000E-01  7.20000000E-01  1.00000000E+00  8.10000000E-01  2.00000000E-01
  0.00000000E+00  0.00000000E+00  1.00000000E+00  0.00000000E+00  0.00000000E+00
  0.00000000E+00  0.00000000E+00  1.00000000E+00  0.00000000E+00  0.00000000E+00
  0.00000000E+00  0.00000000E+00  1.00000000E+00  0.00000000E+00  0.00000000E+00
  0.00000000E+00  0.00000000E+00  1.00000000E+00  0.00000000E+00  0.00000000E+00
  0.00000000E+00  0.00000000E+00  1.00000000E+00  0.00000000E+00  0.00000000E+00
  0.00000000E+00  0.00000000E+00  0.00000000E+00  0.00000000E+00  0.00000000E+00
  0.00000000E+00  0.00000000E+00  0.00000000E+00  1.00000000E+00  1.00000000E+00
MxBond                                     I                3
NBond                                      I   N=          20
           3           3           3           3           3           1
           1           1           3           3           1           1
           1           3           1           3           1           1
           3           1
IBond                                      I   N=          60
           2          14          19           1           3           6
           2           4           7           3           5           9
           4           8          19           2           0           0
           3           0           0           5           0           0
           4          10          12           9          11          13
          10           0           0           9           0           0
          10           0           0           1          15          16
          14           0           0          14          17          18
          16           0           0          16           0           0
           1           5          20          19           0           0
RBond                                      R   N=          60
  1.50000000E+00  1.00000000E+00  1.50000000E+00  1.50000000E+00  1.50000000E+00
  1.00000000E+00  1.50000000E+00  1.50000000E+00  1.00000000E+00  1.50000000E+00
  1.50000000E+00  1.00000000E+00  1.50000000E+00  1.00000000E+00  1.50000000E+00
  1.00000000E+00  0.00000000E+00  0.00000000E+00  1.00000000E+00  0.00000000E+00
  0.00000000E+00  1.00000000E+00  0.00000000E+00  0.00000000E+00  1.00000000E+00
  2.00000000E+00  1.00000000E+00  2.00000000E+00  1.00000000E+00  1.00000000E+00
  1.00000000E+00  0.00000000E+00  0.00000000E+00  1.00000000E+00  0.00000000E+00
  0.00000000E+00  1.00000000E+00  0.00000000E+00  0.00000000E+00  1.00000000E+00
  1.00000000E+00  2.00000000E+00  1.00000000E+00  0.00000000E+00  0.00000000E+00
  2.00000000E+00  1.00000000E+00  1.00000000E+00  1.00000000E+00  0.00000000E+00
  0.00000000E+00  1.00000000E+00  0.00000000E+00  0.00000000E+00  1.50000000E+00
  1.50000000E+00  1.00000000E+00  1.00000000E+00  0.00000000E+00  0.00000000E+00
Virial Ratio                               R      2.019175283258897E+00
SCF Energy                                 R     -3.820813952041232E+02
Total Energy                               R     -3.820813952041232E+02
S**2                                       R      7.778026877383724E-01
S**2 after annihilation                    R      7.503851324673467E-01
RMS Density                                R      4.176746039771960E-09
External E-field                           R   N=          35
  0.00000000E+00  0.00000000E+00  0.00000000E+00  0.00000000E+00  0.00000000E+00
  0.00000000E+00  0.00000000E+00  0.00000000E+00  0.00000000E+00  0.00000000E+00
  0.00000000E+00  0.00000000E+00  0.00000000E+00  0.00000000E+00  0.00000000E+00
  0.00000000E+00  0.00000000E+00  0.00000000E+00  0.00000000E+00  0.00000000E+00
  0.00000000E+00  0.00000000E+00  0.00000000E+00  0.00000000E+00  0.00000000E+00
  0.00000000E+00  0.00000000E+00  0.00000000E+00  0.00000000E+00  0.00000000E+00
  0.00000000E+00  0.00000000E+00  0.00000000E+00  0.00000000E+00  0.00000000E+00
IOpCl                                      I                1
IROHF                                      I                0
Alpha Orbital Energies                     R   N=          60
 -1.02535660E+01 -1.02535166E+01 -1.02192941E+01 -1.02192560E+01 -1.02179239E+01
 -1.02178284E+01 -1.02177340E+01 -1.02177235E+01 -1.02153857E+01 -1.02153855E+01
 -1.02076493E+00 -9.61926553E-01 -9.21663734E-01 -8.99044031E-01 -8.76871815E-01
 -7.87250483E-01 -7.59615630E-01 -7.22747171E-01 -7.03794480E-01 -6.50312255E-01
 -6.35119541E-01 -6.03744245E-01 -5.96032111E-01 -5.87919755E-01 -5.68380970E-01
 -5.52429438E-01 -5.37362976E-01 -5.33636194E-01 -5.01196489E-01 -4.92965528E-01
 -4.82686713E-01 -4.73665496E-01 -4.17974755E-01 -3.94197621E-01 -3.69758157E-01
 -1.77496292E-01 -1.11271277E-01 -9.44442350E-02 -2.95950349E-02  6.02060142E-02
  1.39511273E-01  1.49073100E-01  1.79249784E-01  1.96608944E-01  2.15435072E-01
  2.21026837E-01  2.39898799E-01  2.41558665E-01  2.62126688E-01  2.85275320E-01
  3.20504873E-01  3.43758466E-01  3.79612237E-01  3.98967860E-01  4.25567698E-01
  4.38146997E-01  4.77676223E-01  5.05986883E-01  5.68199641E-01  5.82030024E-01
Beta Orbital Energies                      R   N=          60
 -1.02505898E+01 -1.02505448E+01 -1.02189888E+01 -1.02189545E+01 -1.02185799E+01
 -1.02185795E+01 -1.02176974E+01 -1.02175914E+01 -1.02109190E+01 -1.02109190E+01
 -1.01471233E+00 -9.54491538E-01 -9.13794391E-01 -8.97399818E-01 -8.64672425E-01
 -7.81937032E-01 -7.55562778E-01 -7.18835567E-01 -7.00667413E-01 -6.48112775E-01
 -6.33051572E-01 -6.01003584E-01 -5.93244919E-01 -5.85021977E-01 -5.67658413E-01
 -5.49489504E-01 -5.35407490E-01 -5.17365125E-01 -4.99578471E-01 -4.91467624E-01
 -4.81111783E-01 -4.50850555E-01 -3.91016868E-01 -3.88816504E-01 -3.00528573E-01
 -1.47048492E-01 -1.03160905E-01 -7.37198310E-02 -8.23471466E-03  7.63873889E-02
  1.41941466E-01  1.50963134E-01  1.81105387E-01  1.98118484E-01  2.21057598E-01
  2.26381446E-01  2.42933336E-01  2.46582401E-01  2.69280460E-01  2.90462215E-01
  3.24234711E-01  3.47229942E-01  3.81088258E-01  4.01111693E-01  4.29896303E-01
  4.40712142E-01  4.81463455E-01  5.11388521E-01  5.71921477E-01  5.85193808E-01
Alpha MO coefficients                      R   N=        3600
  7.00266477E-01  3.12770980E-02  9.39662630E-04  5.84528769E-17  4.33597213E-04
 -7.29279410E-03 -7.10548530E-03 -2.23699924E-04 -4.10793789E-16  4.42783668E-03
  7.01594688E-03  7.12387539E-03  3.82343818E-03  1.23983466E-16 -2.27879761E-03
 -7.00266500E-01 -3.12770990E-02  9.39662654E-04 -2.02948453E-16  4.33597222E-04
  7.29279436E-03  7.10548552E-03 -2.23699921E-04 -6.05740940E-17  4.42783683E-03
  2.16993539E-04 -2.23313533E-04 -2.16993543E-04  8.88600399E-03  5.88161999E-03
 -3.37792839E-03  3.48526925E-16 -2.28731218E-03 -3.56815690E-05 -2.73251043E-04
  1.45059310E-04  5.95389693E-16  1.46846696E-04  1.39994286E-04 -1.53306834E-04
  2.41162898E-05 -8.88600369E-03 -5.88161979E-03 -3.37792828E-03 -1.62108283E-16
 -2.28731210E-03  1.53306828E-04  3.56815673E-05  2.73251033E-04  1.45059305E-04
  5.42293193E-16  1.46846691E-04 -1.39994281E-04 -2.41162890E-05 -7.01594663E-03
 -7.12387517E-03  3.82343805E-03 -3.52034585E-16 -2.27879755E-03  2.23313529E-04
  7.00289948E-01  3.10842550E-02  7.10243959E-04 -1.02307309E-15  2.86199346E-04
 -7.63648995E-03 -6.49382065E-03  8.23608186E-05  1.93642005E-15  4.41427739E-03
 -7.44295213E-03 -6.53328230E-03 -3.96425890E-03 -7.94468927E-16  2.03455391E-03
  7.00289924E-01  3.10842540E-02 -7.10243928E-04 -1.04178561E-15 -2.86199332E-04
 -7.63648970E-03 -6.49382041E-03 -8.23608261E-05  1.47430305E-15 -4.41427724E-03
  1.08965675E-04  1.11037690E-04  1.08965667E-04 -8.99351581E-03 -5.94240719E-03
  3.41376858E-03  7.81719621E-16  2.31021065E-03  4.27629652E-05  2.73360047E-04
 -1.49341819E-04 -4.12807934E-16 -1.49172194E-04 -1.32707961E-04  1.61398827E-04
 -2.32705398E-05 -8.99351611E-03 -5.94240739E-03 -3.41376869E-03  9.48233910E-17
 -2.31021072E-03  1.61398832E-04  4.27629661E-05  2.73360056E-04  1.49341824E-04
  1.65288346E-16  1.49172199E-04 -1.32707966E-04 -2.32705406E-05 -7.44295236E-03
 -6.53328254E-03  3.96425903E-03 -1.27967071E-17 -2.03455399E-03  1.11037698E-04
  9.94154357E-03 -7.65837391E-03 -1.11264157E-03  2.21702473E-16 -3.84380934E-03
  6.80210758E-01  3.17843877E-02  1.99257124E-03 -1.09870635E-17  9.07664503E-06
 -1.66012732E-01 -1.39411104E-02  3.64282374E-03  2.76693421E-16  2.60093219E-03
 -9.94154377E-03  7.65837405E-03 -1.11264154E-03 -3.54816072E-16 -3.84380950E-03
 -6.80210781E-01 -3.17843888E-02  1.99257130E-03 -1.35186315E-17  9.07665374E-06
 -6.13508772E-03  1.66447123E-03  6.13508793E-03  2.09412470E-03 -1.48267217E-04
  2.36337644E-05 -6.30110644E-17  8.18048896E-05  2.94426804E-03  1.96572492E-04
 -4.43765170E-05  2.30030001E-16 -7.28543267E-05 -1.86941735E-04  2.41025871E-05
 -4.34856126E-06 -2.09412453E-03  1.48267221E-04  2.36337674E-05  1.90892135E-16
  8.18048865E-05 -2.41025869E-05 -2.94426797E-03 -1.96572488E-04 -4.43765166E-05
  1.62937483E-16 -7.28543246E-05  1.86941728E-04  4.34856117E-06  1.66012738E-01
  1.39411109E-02  3.64282387E-03 -5.35314950E-17  2.60093228E-03 -1.66447128E-03
  5.93963251E-03 -3.97393432E-03  1.06200976E-03  3.64188451E-16 -4.80887194E-03
  6.73408099E-01  3.14529601E-02  1.84591212E-03  4.27894165E-16  2.88577884E-04
 -1.91831600E-01 -1.46752497E-02  3.63714790E-03  3.83361320E-17  2.52442967E-03
  5.93963217E-03 -3.97393405E-03 -1.06200980E-03  7.44303835E-16  4.80887181E-03
  6.73408076E-01  3.14529590E-02 -1.84591205E-03  1.92361883E-16 -2.88577883E-04
 -6.13535248E-03  1.77738229E-03 -6.13535227E-03 -4.63407638E-03 -1.31199388E-04
  8.94204820E-05 -7.98816902E-16 -9.05210437E-05 -2.13342599E-03 -1.26936114E-04
  1.15873714E-05 -5.68526009E-16  6.22975920E-05  1.83934180E-04 -6.07051593E-06
  2.57007220E-06 -4.63407645E-03 -1.31199383E-04 -8.94204812E-05 -1.02276201E-16
  9.05210465E-05 -6.07051674E-06 -2.13342609E-03 -1.26936120E-04 -1.15873729E-05
  3.71043776E-16 -6.22975944E-05  1.83934187E-04  2.57007236E-06 -1.91831594E-01
 -1.46752492E-02 -3.63714778E-03 -4.38118773E-16 -2.52442958E-03  1.77738224E-03
 -5.34351876E-03  4.39943965E-03  3.98559431E-03  2.70416099E-16 -2.79160690E-03
  1.66901453E-01  8.33493586E-04 -3.49282604E-03  1.43708544E-16 -2.21749097E-03
  6.79690976E-01  2.85084356E-02  8.35636693E-04 -5.32120366E-16 -6.15499199E-04
  5.34351887E-03 -4.39943972E-03  3.98559436E-03  2.08455211E-16 -2.79160690E-03
 -1.66901450E-01 -8.33493542E-04 -3.49282600E-03 -6.73590501E-16 -2.21749095E-03
 -1.31839356E-03 -6.01262006E-03  1.31839353E-03 -3.29948573E-02 -1.32883928E-03
 -8.55125920E-05 -1.98639467E-16  9.33019458E-06  2.10184130E-03  3.95494430E-04
 -1.78108638E-04  4.27299402E-17  6.66149002E-05 -4.56639628E-05  2.54353691E-04
 -2.23534581E-05  3.29948557E-02  1.32883921E-03 -8.55125892E-05 -1.62464280E-17
  9.33019287E-06 -2.54353678E-04 -2.10184122E-03 -3.95494411E-04 -1.78108629E-04
  4.93718075E-17  6.66148961E-05  4.56639621E-05  2.23534569E-05 -6.79690968E-01
 -2.85084353E-02  8.35636680E-04  3.88108994E-16 -6.15499198E-04  6.01261999E-03
  6.99081836E-03 -5.32047217E-03 -4.62740688E-03 -1.30660240E-15  1.02808570E-04
  1.82428599E-01  2.08138777E-03 -3.29803517E-03  1.61399137E-16 -2.09087642E-03
  6.42512322E-01  2.65876744E-02  8.88643489E-04  4.03023134E-16 -1.88814655E-04
  6.99081824E-03 -5.32047209E-03  4.62740685E-03 -1.40817260E-16 -1.02808527E-04
  1.82428601E-01  2.08138776E-03  3.29803522E-03 -1.17445861E-15  2.09087645E-03
 -1.57463458E-03 -5.80576847E-03 -1.57463459E-03 -2.11476205E-01 -9.32748493E-03
 -4.16465769E-04 -6.24894862E-16  2.13295382E-04  1.33126300E-02  2.72172041E-03
 -1.26096147E-03  2.93593403E-16  5.17712201E-04 -1.40375755E-04  1.83768906E-03
 -1.81393225E-04 -2.11476202E-01 -9.32748479E-03  4.16465762E-04  7.35765431E-16
 -2.13295379E-04  1.83768904E-03  1.33126297E-02  2.72172037E-03  1.26096146E-03
 -2.56213615E-16 -5.17712194E-04 -1.40375752E-04 -1.81393222E-04  6.42512330E-01
  2.65876747E-02 -8.88643497E-04 -2.15381745E-16  1.88814663E-04 -5.80576855E-03
 -1.01955813E-02  5.31173196E-03 -3.35493963E-03 -6.60505364E-16 -2.21649185E-03
  6.20514376E-03 -2.05170660E-04 -1.08396450E-04  3.96312632E-16 -1.02725474E-04
  3.24622763E-02  1.48228822E-03  4.95344330E-05  3.41844240E-16 -7.05851472E-06
  1.01955833E-02 -5.31173309E-03 -3.35493995E-03 -3.27411053E-16 -2.21649220E-03
 -6.20513307E-03  2.05170823E-04 -1.08396247E-04  3.60515696E-16 -1.02725365E-04
  9.69879784E-05 -2.95885051E-04 -9.69880981E-05  6.97066873E-01  3.12538342E-02
  1.56128078E-03  3.01683314E-16 -6.19251916E-04 -5.96158806E-02 -9.89820220E-03
  4.43236677E-03  7.03861187E-17 -1.58275490E-03  6.61723112E-04 -6.32500664E-03
  6.78970950E-04 -6.97066769E-01 -3.12538296E-02  1.56128054E-03 -1.46750500E-16
 -6.19251826E-04  6.32500570E-03  5.96158715E-02  9.89820072E-03  4.43236611E-03
  1.13953598E-16 -1.58275467E-03 -6.61723010E-04 -6.78970848E-04 -3.24622413E-02
 -1.48228678E-03  4.95343755E-05  1.44127855E-16 -7.05852799E-06  2.95884731E-04
  1.27738975E-02 -7.02336122E-03  2.22445864E-03  7.62006146E-16  2.17550030E-03
  6.22737265E-02  9.68161447E-04 -1.18797357E-03 -1.78689437E-16 -6.28458215E-04
  2.02541203E-01  8.36275322E-03  3.38205613E-04 -1.43506807E-16  9.01359797E-05