Notitle                                                                 
Freq      RB3LYP                                                      STO-3G              
Number of atoms                            I               20
Info1-9                                    I   N=           9
          83          83           0           0           0         100
           6          18        -502
Charge                                     I                0
Multiplicity                               I                1
Number of electrons                        I               70
Number of alpha electrons                  I               35
Number of beta electrons                   I               35
Number of basis functions                  I               60
Number of independent functions            I               60
Number of point charges in /Mol/           I                0
Number of translation vectors              I                0
Atomic numbers                             I   N=          20
           6           6           6           6           6           1
           1           1           6           6           1           1
           1           6           1           6           1           1
           6           1
Nuclear charges                            R   N=          20
  6.00000000E+00  6.00000000E+00  6.00000000E+00  6.00000000E+00  6.00000000E+00
  1.00000000E+00  1.00000000E+00  1.00000000E+00  6.00000000E+00  6.00000000E+00
  1.00000000E+00  1.00000000E+00  1.00000000E+00  6.00000000E+00  1.00000000E+00
  6.00000000E+00  1.00000000E+00  1.00000000E+00  6.00000000E+00  1.00000000E+00
Current cartesian coordinates              R   N=          60
  5.09245181E-01 -2.66467888E+00 -6.16297582E-32 -2.01208948E+00 -1.73987026E+00
  0.00000000E+00 -2.50470684E+00  8.63658865E-01  2.46519033E-32 -5.09245181E-01
  2.66467888E+00  1.23259516E-32  2.01208948E+00  1.73987026E+00  1.23259516E-32
 -3.59885866E+00 -3.07571066E+00 -1.23259516E-32 -4.46877151E+00  1.53666346E+00
  0.00000000E+00  3.59885866E+00  3.07571066E+00  1.23259516E-32 -1.14088779E+00
  5.42335670E+00  1.23259516E-31  5.09245181E-01  7.35472327E+00  4.93038066E-32
  2.56089320E+00  7.07138071E+00  2.04148574E-32 -3.17833820E+00  5.83926410E+00
  1.23259516E-31 -1.39893764E-01  9.32196137E+00  2.71170936E-31  1.14088779E+00
 -5.42335670E+00  0.00000000E+00  3.17833820E+00 -5.83926410E+00 -1.23259516E-31
 -5.09245181E-01 -7.35472327E+00 -1.23259516E-31 -2.56089320E+00 -7.07138071E+00
 -1.19022471E-31  1.39893764E-01 -9.32196137E+00  1.47911420E-31  2.50470684E+00
 -8.63658865E-01  0.00000000E+00  4.46877151E+00 -1.53666346E+00  0.00000000E+00
Force Field                                I                0
Int Atom Types                             I   N=          20
           0           0           0           0           0           0
           0           0           0           0           0           0
           0           0           0           0           0           0
           0           0
MM charges                                 R   N=          20
  0.00000000E+00  0.00000000E+00  0.00000000E+00  0.00000000E+00  0.00000000E+00
  0.00000000E+00  0.00000000E+00  0.00000000E+00  0.00000000E+00  0.00000000E+00
  0.00000000E+00  0.00000000E+00  0.00000000E+00  0.00000000E+00  0.00000000E+00
  0.00000000E+00  0.00000000E+00  0.00000000E+00  0.00000000E+00  0.00000000E+00
Integer atomic weights                     I   N=          20
          12          12          12          12          12           1
           1           1          12          12           1           1
           1          12           1          12           1           1
          12           1
Real atomic weights                        R   N=          20
  1.20000000E+01  1.20000000E+01  1.20000000E+01  1.20000000E+01  1.20000000E+01
  1.00782504E+00  1.00782504E+00  1.00782504E+00  1.20000000E+01  1.20000000E+01
  1.00782504E+00  1.00782504E+00  1.00782504E+00  1.20000000E+01  1.00782504E+00
  1.20000000E+01  1.00782504E+00  1.00782504E+00  1.20000000E+01  1.00782504E+00
Atom fragment info                         I   N=          20
           0           0           0           0           0           0
           0           0           0           0           0           0
           0           0           0           0           0           0
           0           0
Atom residue num                           I   N=          20
           0           0           0           0           0           0
           0           0           0           0           0           0
           0           0           0           0           0           0
           0           0
Nuclear spins                              I   N=          20
           0           0           0           0           0           1
           1           1           0           0           1           1
           1           0           1           0           1           1
           0           1
Nuclear ZEff                               R   N=          20
 -3.60000000E+00 -3.60000000E+00 -3.60000000E+00 -3.60000000E+00 -3.60000000E+00
 -1.00000000E+00 -1.00000000E+00 -1.00000000E+00 -3.60000000E+00 -3.60000000E+00
 -1.00000000E+00 -1.00000000E+00 -1.00000000E+00 -3.60000000E+00 -1.00000000E+00
 -3.60000000E+00 -1.00000000E+00 -1.00000000E+00 -3.60000000E+00 -1.00000000E+00
Nuclear QMom                               R   N=          20
  0.00000000E+00  0.00000000E+00  0.00000000E+00  0.00000000E+00  0.00000000E+00
  0.00000000E+00  0.00000000E+00  0.00000000E+00  0.00000000E+00  0.00000000E+00
  0.00000000E+00  0.00000000E+00  0.00000000E+00  0.00000000E+00  0.00000000E+00
  0.00000000E+00  0.00000000E+00  0.00000000E+00  0.00000000E+00  0.00000000E+00
Nuclear GFac                               R   N=          20
  0.00000000E+00  0.00000000E+00  0.00000000E+00  0.00000000E+00  0.00000000E+00
  2.79284600E+00  2.79284600E+00  2.79284600E+00  0.00000000E+00  0.00000000E+00
  2.79284600E+00  2.79284600E+00  2.79284600E+00  0.00000000E+00  2.79284600E+00
  0.00000000E+00  2.79284600E+00  2.79284600E+00  0.00000000E+00  2.79284600E+00
MicOpt                                     I   N=          20
          -1          -1          -1          -1          -1          -1
          -1          -1          -1          -1          -1          -1
          -1          -1          -1          -1          -1          -1
          -1          -1
Number of contracted shells                I               30
Number of primitive shells                 I               90
Pure/Cartesian d shells                    I                0
Pure/Cartesian f shells                    I                0
Highest angular momentum                   I                1
Largest degree of contraction              I                3
Shell types                                I   N=          30
           0          -1           0          -1           0          -1
           0          -1           0          -1           0           0
           0           0          -1           0          -1           0
           0           0           0          -1           0           0
          -1           0           0           0          -1           0
Number of primitives per shell             I   N=          30
           3           3           3           3           3           3
           3           3           3           3           3           3
           3           3           3           3           3           3
           3           3           3           3           3           3
           3           3           3           3           3           3
Shell to atom map                          I   N=          30
           1           1           2           2           3           3
           4           4           5           5           6           7
           8           9           9          10          10          11
          12          13          14          14          15          16
          16          17          18          19          19          20
Primitive exponents                        R   N=          90
  7.16168373E+01  1.30450963E+01  3.53051216E+00  2.94124936E+00  6.83483096E-01
  2.22289916E-01  7.16168373E+01  1.30450963E+01  3.53051216E+00  2.94124936E+00
  6.83483096E-01  2.22289916E-01  7.16168373E+01  1.30450963E+01  3.53051216E+00
  2.94124936E+00  6.83483096E-01  2.22289916E-01  7.16168373E+01  1.30450963E+01
  3.53051216E+00  2.94124936E+00  6.83483096E-01  2.22289916E-01  7.16168373E+01
  1.30450963E+01  3.53051216E+00  2.94124936E+00  6.83483096E-01  2.22289916E-01
  3.42525091E+00  6.23913730E-01  1.68855404E-01  3.42525091E+00  6.23913730E-01
  1.68855404E-01  3.42525091E+00  6.23913730E-01  1.68855404E-01  7.16168373E+01
  1.30450963E+01  3.53051216E+00  2.94124936E+00  6.83483096E-01  2.22289916E-01
  7.16168373E+01  1.30450963E+01  3.53051216E+00  2.94124936E+00  6.83483096E-01
  2.22289916E-01  3.42525091E+00  6.23913730E-01  1.68855404E-01  3.42525091E+00
  6.23913730E-01  1.68855404E-01  3.42525091E+00  6.23913730E-01  1.68855404E-01
  7.16168373E+01  1.30450963E+01  3.53051216E+00  2.94124936E+00  6.83483096E-01
  2.22289916E-01  3.42525091E+00  6.23913730E-01  1.68855404E-01  7.16168373E+01
  1.30450963E+01  3.53051216E+00  2.94124936E+00  6.83483096E-01  2.22289916E-01
  3.42525091E+00  6.23913730E-01  1.68855404E-01  3.42525091E+00  6.23913730E-01
  1.68855404E-01  7.16168373E+01  1.30450963E+01  3.53051216E+00  2.94124936E+00
  6.83483096E-01  2.22289916E-01  3.42525091E+00  6.23913730E-01  1.68855404E-01
Contraction coefficients                   R   N=          90
  1.54328967E-01  5.35328142E-01  4.44634542E-01 -9.99672292E-02  3.99512826E-01
  7.00115469E-01  1.54328967E-01  5.35328142E-01  4.44634542E-01 -9.99672292E-02
  3.99512826E-01  7.00115469E-01  1.54328967E-01  5.35328142E-01  4.44634542E-01
 -9.99672292E-02  3.99512826E-01  7.00115469E-01  1.54328967E-01  5.35328142E-01
  4.44634542E-01 -9.99672292E-02  3.99512826E-01  7.00115469E-01  1.54328967E-01
  5.35328142E-01  4.44634542E-01 -9.99672292E-02  3.99512826E-01  7.00115469E-01
  1.54328967E-01  5.35328142E-01  4.44634542E-01  1.54328967E-01  5.35328142E-01
  4.44634542E-01  1.54328967E-01  5.35328142E-01  4.44634542E-01  1.54328967E-01
  5.35328142E-01  4.44634542E-01 -9.99672292E-02  3.99512826E-01  7.00115469E-01
  1.54328967E-01  5.35328142E-01  4.44634542E-01 -9.99672292E-02  3.99512826E-01
  7.00115469E-01  1.54328967E-01  5.35328142E-01  4.44634542E-01  1.54328967E-01
  5.35328142E-01  4.44634542E-01  1.54328967E-01  5.35328142E-01  4.44634542E-01
  1.54328967E-01  5.35328142E-01  4.44634542E-01 -9.99672292E-02  3.99512826E-01
  7.00115469E-01  1.54328967E-01  5.35328142E-01  4.44634542E-01  1.54328967E-01
  5.35328142E-01  4.44634542E-01 -9.99672292E-02  3.99512826E-01  7.00115469E-01
  1.54328967E-01  5.35328142E-01  4.44634542E-01  1.54328967E-01  5.35328142E-01
  4.44634542E-01  1.54328967E-01  5.35328142E-01  4.44634542E-01 -9.99672292E-02
  3.99512826E-01  7.00115469E-01  1.54328967E-01  5.35328142E-01  4.44634542E-01
P(S=P) Contraction coefficients            R   N=          90
  0.00000000E+00  0.00000000E+00  0.00000000E+00  1.55916275E-01  6.07683719E-01
  3.91957393E-01  0.00000000E+00  0.00000000E+00  0.00000000E+00  1.55916275E-01
  6.07683719E-01  3.91957393E-01  0.00000000E+00  0.00000000E+00  0.00000000E+00
  1.55916275E-01  6.07683719E-01  3.91957393E-01  0.00000000E+00  0.00000000E+00
  0.00000000E+00  1.55916275E-01  6.07683719E-01  3.91957393E-01  0.00000000E+00
  0.00000000E+00  0.00000000E+00  1.55916275E-01  6.07683719E-01  3.91957393E-01
  0.00000000E+00  0.00000000E+00  0.00000000E+00  0.00000000E+00  0.00000000E+00
  0.00000000E+00  0.00000000E+00  0.00000000E+00  0.00000000E+00  0.00000000E+00
  0.00000000E+00  0.00000000E+00  1.55916275E-01  6.07683719E-01  3.91957393E-01
  0.00000000E+00  0.00000000E+00  0.00000000E+00  1.55916275E-01  6.07683719E-01
  3.91957393E-01  0.00000000E+00  0.00000000E+00  0.00000000E+00  0.00000000E+00
  0.00000000E+00  0.00000000E+00  0.00000000E+00  0.00000000E+00  0.00000000E+00
  0.00000000E+00  0.00000000E+00  0.00000000E+00  1.55916275E-01  6.07683719E-01
  3.91957393E-01  0.00000000E+00  0.00000000E+00  0.00000000E+00  0.00000000E+00
  0.00000000E+00  0.00000000E+00  1.55916275E-01  6.07683719E-01  3.91957393E-01
  0.00000000E+00  0.00000000E+00  0.00000000E+00  0.00000000E+00  0.00000000E+00
  0.00000000E+00  0.00000000E+00  0.00000000E+00  0.00000000E+00  1.55916275E-01
  6.07683719E-01  3.91957393E-01  0.00000000E+00  0.00000000E+00  0.00000000E+00
Coordinates of each shell                  R   N=          90
  5.09245181E-01 -2.66467888E+00 -3.12754701E-32  5.09245181E-01 -2.66467888E+00
 -3.12754701E-32 -2.01208948E+00 -1.73987026E+00 -2.76457861E-32 -2.01208948E+00
 -1.73987026E+00 -2.76457861E-32 -2.50470684E+00  8.63658865E-01  2.92719356E-33
 -2.50470684E+00  8.63658865E-01  2.92719356E-33 -5.09245181E-01  2.66467888E+00
  8.57618714E-33 -5.09245181E-01  2.66467888E+00  8.57618714E-33  2.01208948E+00
  1.73987026E+00  4.17239254E-32  2.01208948E+00  1.73987026E+00  4.17239254E-32
 -3.59885866E+00 -3.07571066E+00 -4.90009003E-32 -4.46877151E+00  1.53666346E+00
  5.17037414E-33  3.59885866E+00  3.07571066E+00  7.44047276E-32 -1.14088779E+00
  5.42335670E+00  6.33324006E-32 -1.14088779E+00  5.42335670E+00  6.33324006E-32
  5.09245181E-01  7.35472327E+00  9.22231962E-32  5.09245181E-01  7.35472327E+00
  9.22231962E-32  2.56089320E+00  7.07138071E+00  9.50528581E-32 -3.17833820E+00
  5.83926410E+00  6.21804762E-32 -1.39893764E-01  9.32196137E+00  1.14470964E-31
  1.14088779E+00 -5.42335670E+00 -1.58458567E-32  1.14088779E+00 -5.42335670E+00
 -1.58458567E-32  3.17833820E+00 -5.83926410E+00  1.29828102E-32 -5.09245181E-01
 -7.35472327E+00 -5.31731460E-32 -5.09245181E-01 -7.35472327E+00 -5.31731460E-32
 -2.56089320E+00 -7.07138071E+00 -8.30375555E-32  1.39893764E-01 -9.32196137E+00
 -5.52956178E-32  2.50470684E+00 -8.63658865E-01  3.32684105E-32  2.50470684E+00
 -8.63658865E-01  3.32684105E-32  4.46877151E+00 -1.53666346E+00  5.93819071E-32
Constraint Structure                       R   N=          60
  5.09245181E-01 -2.66467888E+00 -3.12754701E-32 -2.01208948E+00 -1.73987026E+00
 -2.76457861E-32 -2.50470684E+00  8.63658865E-01  2.92719356E-33 -5.09245181E-01
  2.66467888E+00  8.57618714E-33  2.01208948E+00  1.73987026E+00  4.17239254E-32
 -3.59885866E+00 -3.07571066E+00 -4.90009003E-32 -4.46877151E+00  1.53666346E+00
  5.17037414E-33  3.59885866E+00  3.07571066E+00  7.44047276E-32 -1.14088779E+00
  5.42335670E+00  6.33324006E-32  5.09245181E-01  7.35472327E+00  9.22231962E-32
  2.56089320E+00  7.07138071E+00  9.50528581E-32 -3.17833820E+00  5.83926410E+00
  6.21804762E-32 -1.39893764E-01  9.32196137E+00  1.14470964E-31  1.14088779E+00
 -5.42335670E+00 -1.58458567E-32  3.17833820E+00 -5.83926410E+00  1.29828102E-32
 -5.09245181E-01 -7.35472327E+00 -5.31731460E-32 -2.56089320E+00 -7.07138071E+00
 -8.30375555E-32  1.39893764E-01 -9.32196137E+00 -5.52956178E-32  2.50470684E+00
 -8.63658865E-01  3.32684105E-32  4.46877151E+00 -1.53666346E+00  5.93819071E-32
Num ILSW                                   I              100
ILSW                                       I   N=         100
           0           0           0           0           2           0
           0           0           0           0         402          -1
           0           0           0           0           0           0
           0           0           0           0           1           0
           1           0           0           0           0           0
           0           0      100000           0          -1           0
           0           0           0           0           0           0
           0           0           0           1           0           0
           0           0           1           0           0           0
           0           0           4          40           0           0
           0           0           5           0           0           0
           0           0           0           0           0           0
           0           0           0           0           0           0
           0           0           0           0           0           0
           0           0           0           0           0           0
           0           0           0           0           0           0
           0           0           0           0
Num RLSW                                   I               40
RLSW                                       R   N=          40
  8.00000000E-01  7.20000000E-01  1.00000000E+00  8.10000000E-01  2.00000000E-01
  0.00000000E+00  0.00000000E+00  1.00000000E+00  0.00000000E+00  0.00000000E+00
  0.00000000E+00  0.00000000E+00  1.00000000E+00  0.00000000E+00  0.00000000E+00
  0.00000000E+00  0.00000000E+00  1.00000000E+00  0.00000000E+00  0.00000000E+00
  0.00000000E+00  0.00000000E+00  1.00000000E+00  0.00000000E+00  0.00000000E+00
  0.00000000E+00  0.00000000E+00  1.00000000E+00  0.00000000E+00  0.00000000E+00
  0.00000000E+00  0.00000000E+00  0.00000000E+00  0.00000000E+00  0.00000000E+00
  0.00000000E+00  0.00000000E+00  0.00000000E+00  1.00000000E+00  1.00000000E+00
MxBond                                     I                3
NBond                                      I   N=          20
           3           3           3           3           3           1
           1           1           3           3           1           1
           1           3           1           3           1           1
           3           1
IBond                                      I   N=          60
           2          14          19           1           3           6
           2           4           7           3           5           9
           4           8          19           2           0           0
           3           0           0           5           0           0
           4          10          12           9          11          13
          10           0           0           9           0           0
          10           0           0           1          15          16
          14           0           0          14          17          18
          16           0           0          16           0           0
           1           5          20          19           0           0
RBond                                      R   N=          60
  1.50000000E+00  1.00000000E+00  1.50000000E+00  1.50000000E+00  1.50000000E+00
  1.00000000E+00  1.50000000E+00  1.50000000E+00  1.00000000E+00  1.50000000E+00
  1.50000000E+00  1.00000000E+00  1.50000000E+00  1.00000000E+00  1.50000000E+00
  1.00000000E+00  0.00000000E+00  0.00000000E+00  1.00000000E+00  0.00000000E+00
  0.00000000E+00  1.00000000E+00  0.00000000E+00  0.00000000E+00  1.00000000E+00
  2.00000000E+00  1.00000000E+00  2.00000000E+00  1.00000000E+00  1.00000000E+00
  1.00000000E+00  0.00000000E+00  0.00000000E+00  1.00000000E+00  0.00000000E+00
  0.00000000E+00  1.00000000E+00  0.00000000E+00  0.00000000E+00  1.00000000E+00
  1.00000000E+00  2.00000000E+00  1.00000000E+00  0.00000000E+00  0.00000000E+00
  2.00000000E+00  1.00000000E+00  1.00000000E+00  1.00000000E+00  0.00000000E+00
  0.00000000E+00  1.00000000E+00  0.00000000E+00  0.00000000E+00  1.50000000E+00
  1.50000000E+00  1.00000000E+00  1.00000000E+00  0.00000000E+00  0.00000000E+00
Virial Ratio                               R      2.017190276320693E+00
SCF Energy                                 R     -3.823082665796809E+02
Total Energy                               R     -3.823082665796809E+02
RMS Force                                  R      1.616197629418586E-05
RMS Density                                R      3.543009383833903E-09
External E-field                           R   N=          35
  0.00000000E+00  0.00000000E+00  0.00000000E+00  0.00000000E+00  0.00000000E+00
  0.00000000E+00  0.00000000E+00  0.00000000E+00  0.00000000E+00  0.00000000E+00
  0.00000000E+00  0.00000000E+00  0.00000000E+00  0.00000000E+00  0.00000000E+00
  0.00000000E+00  0.00000000E+00  0.00000000E+00  0.00000000E+00  0.00000000E+00
  0.00000000E+00  0.00000000E+00  0.00000000E+00  0.00000000E+00  0.00000000E+00
  0.00000000E+00  0.00000000E+00  0.00000000E+00  0.00000000E+00  0.00000000E+00
  0.00000000E+00  0.00000000E+00  0.00000000E+00  0.00000000E+00  0.00000000E+00
IOpCl                                      I                0
IROHF                                      I                0
Alpha Orbital Energies                     R   N=          60
 -1.00202096E+01 -1.00201622E+01 -1.00081157E+01 -1.00081147E+01 -1.00067891E+01
 -1.00067846E+01 -1.00060521E+01 -1.00059144E+01 -9.99233024E+00 -9.99233016E+00
 -8.09506061E-01 -7.53985809E-01 -7.17965539E-01 -6.99781034E-01 -6.67505484E-01
 -5.88691348E-01 -5.58922466E-01 -5.31666747E-01 -5.10168316E-01 -4.57444573E-01
 -4.39364800E-01 -4.10598063E-01 -3.97956321E-01 -3.96069607E-01 -3.73965768E-01
 -3.51150566E-01 -3.47294941E-01 -3.24506519E-01 -3.11253734E-01 -2.92784331E-01
 -2.87457965E-01 -2.63546361E-01 -2.12447430E-01 -1.95050018E-01 -1.53084114E-01
  3.74216500E-02  9.03643378E-02  1.10612276E-01  1.82203544E-01  2.72526502E-01
  3.32229804E-01  3.40727279E-01  3.79364528E-01  3.81454162E-01  4.10968740E-01
  4.11951251E-01  4.26761994E-01  4.39639701E-01  4.52761952E-01  4.78263094E-01
  5.26242392E-01  5.45823696E-01  5.76012357E-01  5.99439570E-01  6.24983129E-01
  6.39713262E-01  6.82794873E-01  7.17243827E-01  7.79557625E-01  7.94579008E-01
Alpha MO coefficients                      R   N=        3600
  6.99293900E-01  3.15673159E-02 -5.32799981E-05  9.12425796E-04  0.00000000E+00
 -1.91483903E-02 -7.71298165E-03 -4.20385000E-03  1.23238264E-03  0.00000000E+00
  1.85786397E-02  7.72503712E-03  3.46073811E-03  2.71859443E-03  0.00000000E+00
 -6.99293900E-01 -3.15673159E-02 -5.32799981E-05  9.12425796E-04  0.00000000E+00
  1.91483903E-02  7.71298165E-03 -4.20385000E-03  1.23238264E-03  0.00000000E+00
  3.32654800E-04 -3.32908476E-04 -3.32654800E-04  2.74413994E-02  6.72591925E-03
  1.00511770E-03 -3.94792741E-03  0.00000000E+00 -1.80414371E-04 -4.74536651E-04
 -1.13126589E-05  2.82187625E-04  0.00000000E+00  1.48426057E-04 -3.25994760E-04
  2.87435043E-05 -2.74413994E-02 -6.72591925E-03  1.00511770E-03 -3.94792741E-03
  0.00000000E+00  3.25994760E-04  1.80414371E-04  4.74536651E-04 -1.13126589E-05
  2.82187625E-04  0.00000000E+00 -1.48426057E-04 -2.87435043E-05 -1.85786397E-02
 -7.72503712E-03  3.46073811E-03  2.71859443E-03  0.00000000E+00  3.32908476E-04
  6.99291615E-01  3.13606648E-02  7.32075634E-06  6.43732240E-04  0.00000000E+00
 -1.94059941E-02 -6.87903387E-03 -4.10469545E-03  1.66265513E-03  0.00000000E+00
 -1.90567603E-02 -6.91294730E-03 -3.24305869E-03 -3.08272538E-03  0.00000000E+00
  6.99291615E-01  3.13606648E-02 -7.32075634E-06 -6.43732240E-04  0.00000000E+00
 -1.94059941E-02 -6.87903387E-03  4.10469545E-03 -1.66265513E-03  0.00000000E+00
  2.22934488E-04  2.19901974E-04  2.22934488E-04 -2.78055088E-02 -6.79381855E-03
 -1.01377155E-03  3.98535356E-03  0.00000000E+00  1.94231399E-04  4.77756423E-04
  1.08653445E-05 -2.88859653E-04  0.00000000E+00 -1.40588803E-04  3.37258241E-04
 -2.78394952E-05 -2.78055088E-02 -6.79381855E-03  1.01377155E-03 -3.98535356E-03
  0.00000000E+00  3.37258241E-04  1.94231399E-04  4.77756423E-04 -1.08653445E-05
  2.88859653E-04  0.00000000E+00 -1.40588803E-04 -2.78394952E-05 -1.90567603E-02
 -6.91294730E-03  3.24305869E-03  3.08272538E-03  0.00000000E+00  2.19901974E-04
 -2.80452791E-02  4.12520324E-03  7.75456946E-04 -4.12997230E-03  0.00000000E+00
  7.71078158E-03  4.41957384E-04  1.31344969E-04  7.85704235E-05  0.00000000E+00
 -8.72450025E-03 -5.31719737E-04 -1.28750677E-04  2.14706914E-06  0.00000000E+00
  2.80452791E-02 -4.12520324E-03  7.75456946E-04 -4.12997230E-03  0.00000000E+00
 -7.71078158E-03 -4.41957384E-04  1.31344969E-04  7.85704235E-05  0.00000000E+00
  5.99211302E-05  7.59259204E-05 -5.99211302E-05  6.99825090E-01  3.07839660E-02
  7.15596297E-04  1.09290080E-03  0.00000000E+00 -8.11101969E-03 -7.61379249E-03
  2.95707931E-03  3.51524291E-03  0.00000000E+00  1.86290064E-04 -6.42291619E-03
  2.15862703E-04 -6.99825090E-01 -3.07839660E-02  7.15596297E-04  1.09290080E-03
  0.00000000E+00  6.42291619E-03  8.11101969E-03  7.61379249E-03  2.95707931E-03
  3.51524291E-03  0.00000000E+00 -1.86290064E-04 -2.15862703E-04  8.72450025E-03
  5.31719737E-04 -1.28750677E-04  2.14706914E-06  0.00000000E+00 -7.59259204E-05
  2.82512382E-02 -4.07061278E-03 -7.66956776E-04  4.10291165E-03  0.00000000E+00
 -1.02847756E-02 -4.22818282E-04 -2.09525912E-04 -1.74734281E-05  0.00000000E+00
 -1.15901038E-02 -5.56976659E-04 -1.88599547E-04 -6.52212071E-05  0.00000000E+00
  2.82512382E-02 -4.07061278E-03  7.66956776E-04 -4.10291165E-03  0.00000000E+00
 -1.02847756E-02 -4.22818282E-04  2.09525912E-04  1.74734281E-05  0.00000000E+00
 -6.15637724E-05  8.12354710E-05 -6.15637724E-05  6.99743259E-01  3.07654198E-02
  7.12994741E-04  1.10316949E-03  0.00000000E+00 -8.10450118E-03 -7.61217458E-03
  2.95743443E-03  3.51340169E-03  0.00000000E+00  1.86662563E-04 -6.42068389E-03
  2.16091552E-04  6.99743259E-01  3.07654198E-02 -7.12994741E-04 -1.10316949E-03
  0.00000000E+00 -6.42068389E-03 -8.10450118E-03 -7.61217458E-03 -2.95743443E-03
 -3.51340169E-03  0.00000000E+00  1.86662563E-04  2.16091552E-04 -1.15901038E-02
 -5.56976659E-04  1.88599547E-04  6.52212071E-05  0.00000000E+00  8.12354710E-05
  2.75274003E-02 -7.89453621E-03  2.03311157E-03 -2.83542089E-03  0.00000000E+00
  6.12855671E-01  3.03510201E-02  1.67874147E-04  2.87674002E-03  0.00000000E+00
 -3.37175942E-01 -2.07620279E-02 -1.18711403E-03  4.10927070E-03  0.00000000E+00
 -2.75274003E-02  7.89453621E-03  2.03311157E-03 -2.83542089E-03  0.00000000E+00
 -6.12855671E-01 -3.03510201E-02  1.67874147E-04  2.87674002E-03  0.00000000E+00
 -5.63964906E-03  3.20943041E-03  5.63964906E-03 -9.94750206E-03 -5.58998247E-04
 -5.03014565E-05 -4.38864651E-05  0.00000000E+00  9.26839801E-04  2.35521366E-04
 -2.96466285E-06 -1.23713988E-04  0.00000000E+00 -1.58961984E-04  1.41844096E-04
  1.02393953E-05  9.94750206E-03  5.58998247E-04 -5.03014565E-05 -4.38864651E-05
  0.00000000E+00 -1.41844096E-04 -9.26839801E-04 -2.35521366E-04 -2.96466285E-06
 -1.23713988E-04  0.00000000E+00  1.58961984E-04 -1.02393953E-05  3.37175942E-01
  2.07620279E-02 -1.18711403E-03  4.10927070E-03  0.00000000E+00 -3.20943041E-03
  7.08747987E-03 -1.76838884E-03  5.19041341E-03  2.74090865E-04  0.00000000E+00
  5.97691555E-01  2.97269227E-02 -5.07960599E-05  2.83864049E-03  0.00000000E+00
 -3.64372237E-01 -2.16533805E-02 -1.11558891E-03  3.91881069E-03  0.00000000E+00
  7.08747987E-03 -1.76838884E-03 -5.19041341E-03 -2.74090865E-04  0.00000000E+00
  5.97691555E-01  2.97269227E-02  5.07960599E-05 -2.83864049E-03  0.00000000E+00
 -5.51870366E-03  3.38116568E-03 -5.51870366E-03  2.47368947E-03  1.01982900E-04
  1.10710341E-04  6.23615185E-05  0.00000000E+00 -4.42964666E-04 -1.02070024E-04
 -2.22552943E-05  3.83057203E-05  0.00000000E+00  1.60482120E-04 -4.71073302E-05
 -5.55629805E-06  2.47368947E-03  1.01982900E-04 -1.10710341E-04 -6.23615185E-05
  0.00000000E+00 -4.71073302E-05 -4.42964666E-04 -1.02070024E-04  2.22552943E-05
 -3.83057203E-05  0.00000000E+00  1.60482120E-04 -5.55629805E-06 -3.64372237E-01
 -2.16533805E-02  1.11558891E-03 -3.91881069E-03  0.00000000E+00  3.38116568E-03
 -7.58067610E-03  2.29152055E-03  4.71373358E-03  1.84477419E-03  0.00000000E+00
  3.38535302E-01  9.14229398E-03  9.98948079E-04 -3.43667061E-03  0.00000000E+00
  6.13608590E-01  2.39306079E-02  3.62013282E-04  1.64103472E-03  0.00000000E+00
  7.58067610E-03 -2.29152055E-03  4.71373358E-03  1.84477419E-03  0.00000000E+00
 -3.38535302E-01 -9.14229398E-03  9.98948079E-04 -3.43667061E-03  0.00000000E+00
 -2.89696042E-03 -5.44390633E-03  2.89696042E-03  3.65531169E-03  2.08125164E-04
 -4.17792369E-06  2.64096034E-05  0.00000000E+00  8.58820410E-05 -5.00902027E-05
  4.63215405E-05  2.37284023E-05  0.00000000E+00 -6.42129727E-05 -6.38818221E-05
  8.64061389E-06 -3.65531169E-03 -2.08125164E-04 -4.17792369E-06  2.64096034E-05
  0.00000000E+00  6.38818221E-05 -8.58820410E-05  5.00902027E-05  4.63215405E-05
  2.37284023E-05  0.00000000E+00  6.42129727E-05 -8.64061389E-06 -6.13608590E-01
 -2.39306079E-02  3.62013282E-04  1.64103472E-03  0.00000000E+00  5.44390633E-03
  2.83719207E-02 -7.32035188E-03 -6.42294759E-04 -3.16013819E-03  0.00000000E+00
  3.64654595E-01  1.04290224E-02  7.48339069E-04 -3.38048465E-03  0.00000000E+00
  5.97855063E-01  2.28432115E-02 -5.86075580E-05  1.85766204E-03  0.00000000E+00
  2.83719207E-02 -7.32035188E-03  6.42294759E-04  3.16013819E-03  0.00000000E+00
  3.64654595E-01  1.04290224E-02 -7.48339069E-04  3.38048465E-03  0.00000000E+00
 -3.31800307E-03 -5.46183927E-03 -3.31800307E-03  1.42164259E-02  6.20580475E-04
  1.16776622E-06  1.73116209E-04  0.00000000E+00 -1.08280361E-03 -2.82785021E-04
  4.01747362E-05  1.67004845E-04  0.00000000E+00  7.24608794E-05 -2.20882356E-04
 -1.07943485E-05  1.42164259E-02  6.20580475E-04 -1.16776622E-06 -1.73116209E-04
  0.00000000E+00 -2.20882356E-04 -1.08280361E-03 -2.82785021E-04 -4.01747362E-05
 -1.67004845E-04  0.00000000E+00  7.24608794E-05 -1.07943485E-05  5.97855063E-01
  2.28432115E-02  5.86075580E-05 -1.85766204E-03  0.00000000E+00 -5.46183927E-03
 -1.78632656E-04 -1.58814727E-04  2.08706506E-05  4.96931510E-05  0.00000000E+00
 -7.89991352E-04  1.48316926E-05  9.04402346E-06 -1.04785550E-04  0.00000000E+00
  2.83906705E-04 -2.19136441E-06 -4.29539134E-06 -8.07256810E-05  0.00000000E+00
  1.78632656E-04  1.58814727E-04  2.08706506E-05  4.96931510E-05  0.00000000E+00
  7.89991352E-04 -1.48316926E-05  9.04402346E-06 -1.04785550E-04  0.00000000E+00