
    -----------------------------------------------------------------------
          Psi4: An Open-Source Ab Initio Electronic Structure Package
                               Psi4 1.7 release

                         Git: Rev {HEAD} 6ce35a5 


    D. G. A. Smith, L. A. Burns, A. C. Simmonett, R. M. Parrish,
    M. C. Schieber, R. Galvelis, P. Kraus, H. Kruse, R. Di Remigio,
    A. Alenaizan, A. M. James, S. Lehtola, J. P. Misiewicz, M. Scheurer,
    R. A. Shaw, J. B. Schriber, Y. Xie, Z. L. Glick, D. A. Sirianni,
    J. S. O'Brien, J. M. Waldrop, A. Kumar, E. G. Hohenstein,
    B. P. Pritchard, B. R. Brooks, H. F. Schaefer III, A. Yu. Sokolov,
    K. Patkowski, A. E. DePrince III, U. Bozkaya, R. A. King,
    F. A. Evangelista, J. M. Turney, T. D. Crawford, C. D. Sherrill,
    J. Chem. Phys. 152(18) 184108 (2020). https://doi.org/10.1063/5.0006002

                            Additional Code Authors
    E. T. Seidl, C. L. Janssen, E. F. Valeev, M. L. Leininger,
    J. F. Gonthier, R. M. Richard, H. R. McAlexander, M. Saitow, X. Wang,
    P. Verma, M. H. Lechner, A. Jiang, S. Behnle, A. G. Heide,
    M. F. Herbst, and D. L. Poole

             Previous Authors, Complete List of Code Contributors,
                       and Citations for Specific Modules
    https://github.com/psi4/psi4/blob/master/codemeta.json
    https://github.com/psi4/psi4/graphs/contributors
    http://psicode.org/psi4manual/master/introduction.html#citing-psifour

    -----------------------------------------------------------------------


    Psi4 started on: Sunday, 11 June 2023 10:51PM

    Process ID: 69073
    Host:       osmium
    PSIDATADIR: /home/eric/.pyenv/versions/miniforge3-4.10.1-3/envs/psi4-dev/share/psi4
    Memory:     500.0 MiB
    Threads:    1
    
  ==> Input File <==

--------------------------------------------------------------------------
molecule dvb {
    0 1
    C    -1.4152533224   0.2302217854   0.0000000000
    C     1.4152533224  -0.2302217854   0.0000000000
    C    -0.4951331558   1.3144608674   0.0000000000
    C     0.4951331558  -1.3144608674   0.0000000000
    C     0.8894090436   1.0909493743   0.0000000000
    C    -0.8894090436  -1.0909493743   0.0000000000
    H    -0.8795511985   2.3437343748   0.0000000000
    H     0.8795511985  -2.3437343748   0.0000000000
    H     1.5779041557   1.9450061275   0.0000000000
    H    -1.5779041557  -1.9450061275   0.0000000000
    C     2.8845844962  -0.5210893778   0.0000000000
    C    -2.8845844962   0.5210893778   0.0000000000
    H     3.1403356810  -1.5919605685   0.0000000000
    H    -3.1403356810   1.5919605685   0.0000000000
    C     3.8800428103   0.3822535424   0.0000000000
    C    -3.8800428103  -0.3822535424   0.0000000000
    H     3.6946765858   1.4624389570   0.0000000000
    H    -3.6946765858  -1.4624389570   0.0000000000
    H     4.9316453546   0.0711049543   0.0000000000
    H    -4.9316453546  -0.0711049543   0.0000000000
}

set {
    basis sto-3g
    scf_type pk
}

optimize('b3lyp')--------------------------------------------------------------------------

Scratch directory: /tmp/
gradient() will perform analytic gradient computation.

*** tstart() called on osmium
*** at Sun Jun 11 22:51:07 2023

   => Loading Basis Set <=

    Name: STO-3G
    Role: ORBITAL
    Keyword: BASIS
    atoms 1-6, 11-12, 15-16  entry C          line    61 file /home/eric/.pyenv/versions/miniforge3-4.10.1-3/envs/psi4-dev/share/psi4/basis/sto-3g.gbs 
    atoms 7-10, 13-14, 17-20 entry H          line    19 file /home/eric/.pyenv/versions/miniforge3-4.10.1-3/envs/psi4-dev/share/psi4/basis/sto-3g.gbs 


         ---------------------------------------------------------
                                   SCF
               by Justin Turney, Rob Parrish, Andy Simmonett
                          and Daniel G. A. Smith
                              RKS Reference
                        1 Threads,    500 MiB Core
         ---------------------------------------------------------

  ==> Geometry <==

    Molecular point group: c2h
    Full point group: C2h

    Geometry (in Angstrom), charge = 0, multiplicity = 1:

       Center              X                  Y                   Z               Mass       
    ------------   -----------------  -----------------  -----------------  -----------------
         C           -1.415253322400     0.230221785400     0.000000000000    12.000000000000
         C            1.415253322400    -0.230221785400     0.000000000000    12.000000000000
         C           -0.495133155800     1.314460867400     0.000000000000    12.000000000000
         C            0.495133155800    -1.314460867400     0.000000000000    12.000000000000
         C            0.889409043600     1.090949374300     0.000000000000    12.000000000000
         C           -0.889409043600    -1.090949374300     0.000000000000    12.000000000000
         H           -0.879551198500     2.343734374800     0.000000000000     1.007825032230
         H            0.879551198500    -2.343734374800     0.000000000000     1.007825032230
         H            1.577904155700     1.945006127500     0.000000000000     1.007825032230
         H           -1.577904155700    -1.945006127500     0.000000000000     1.007825032230
         C            2.884584496200    -0.521089377800     0.000000000000    12.000000000000
         C           -2.884584496200     0.521089377800     0.000000000000    12.000000000000
         H            3.140335681000    -1.591960568500     0.000000000000     1.007825032230
         H           -3.140335681000     1.591960568500     0.000000000000     1.007825032230
         C            3.880042810300     0.382253542400     0.000000000000    12.000000000000
         C           -3.880042810300    -0.382253542400     0.000000000000    12.000000000000
         H            3.694676585800     1.462438957000     0.000000000000     1.007825032230
         H           -3.694676585800    -1.462438957000     0.000000000000     1.007825032230
         H            4.931645354600     0.071104954300     0.000000000000     1.007825032230
         H           -4.931645354600    -0.071104954300     0.000000000000     1.007825032230

  Running in c2h symmetry.

  Rotational constants: A =      0.15403  B =      0.02287  C =      0.01992 [cm^-1]
  Rotational constants: A =   4617.84335  B =    685.76183  C =    597.09209 [MHz]
  Nuclear repulsion =  445.936979867057005

  Charge       = 0
  Multiplicity = 1
  Electrons    = 70
  Nalpha       = 35
  Nbeta        = 35

  ==> Algorithm <==

  SCF Algorithm Type is PK.
  DIIS enabled.
  MOM disabled.
  Fractional occupation disabled.
  Guess Type is SAD.
  Energy threshold   = 1.00e-08
  Density threshold  = 1.00e-08
  Integral threshold = 1.00e-12

  ==> Primary Basis <==

  Basis Set: STO-3G
    Blend: STO-3G
    Number of shells: 40
    Number of basis functions: 60
    Number of Cartesian functions: 60
    Spherical Harmonics?: true
    Max angular momentum: 1

  ==> DFT Potential <==

   => LibXC <=

    Version 5.2.3
    S. Lehtola, C. Steigemann, M. J. Oliveira, and M. A. Marques, SoftwareX 7, 1 (2018) (10.1016/j.softx.2017.11.002)

   => Composite Functional: B3LYP <= 

    B3LYP Hyb-GGA Exchange-Correlation Functional

    P. J. Stephens, F. J. Devlin, C. F. Chabalowski, and M. J. Frisch, J. Phys. Chem. 98, 11623 (1994) (10.1021/j100096a001)

    Deriv               =              1
    GGA                 =           TRUE
    Meta                =          FALSE

    Exchange Hybrid     =           TRUE
    MP2 Hybrid          =          FALSE

   => Exchange Functionals <=

    0.0800   Slater exchange
    0.7200         Becke 88

   => Exact (HF) Exchange <=

    0.2000               HF 

   => Correlation Functionals <=

    0.1900   Vosko, Wilk & Nusair (VWN5_RPA)
    0.8100   Lee, Yang & Parr

   => LibXC Density Thresholds  <==

    XC_HYB_GGA_XC_B3LYP:  1.00E-15 

   => Molecular Quadrature <=

    Radial Scheme          =       TREUTLER
    Pruning Scheme         =           NONE
    Nuclear Scheme         =       TREUTLER

    Blocking Scheme        =         OCTREE
    BS radius alpha        =              1
    Pruning alpha          =              1
    Radial Points          =             75
    Spherical Points       =            302
    Total Points           =         417002
    Total Blocks           =           3082
    Max Points             =            256
    Max Functions          =             56
    Weights Tolerance      =       1.00E-15

  ==> Integral Setup <==

  Using in-core PK algorithm.
   Calculation information:
      Number of atoms:                  20
      Number of AO shells:              40
      Number of primitives:            120
      Number of atomic orbitals:        60
      Number of basis functions:        60

      Integral cutoff                 1.00e-12
      Number of threads:                 1

  Performing in-core PK
  Using 3350730 doubles for integral storage.
  We computed 262766 shell quartets total.
  Whereas there are 336610 unique shell quartets.

  ==> DiskJK: Disk-Based J/K Matrices <==

    J tasked:                  Yes
    K tasked:                  Yes
    wK tasked:                  No
    Memory [MiB]:               98
    Schwarz Cutoff:          1E-12

    OpenMP threads:              1

  Cached 33.4% of DFT collocation blocks in 0.184 [GiB].

  Minimum eigenvalue in the overlap matrix is 1.8581922389E-01.
  Reciprocal condition number of the overlap matrix is 7.9091442526E-02.
    Using symmetric orthogonalization.

  ==> Pre-Iterations <==

  SCF Guess: Superposition of Atomic Densities via on-the-fly atomic UHF (no occupation information).

   -------------------------
    Irrep   Nso     Nmo    
   -------------------------
     Ag        25      25 
     Bg         5       5 
     Au         5       5 
     Bu        25      25 
   -------------------------
    Total      60      60
   -------------------------

  ==> Iterations <==

                        Total Energy        Delta E     RMS |[F,P]|

   @RKS iter SAD:  -377.60814315018536   -3.77608e+02   0.00000e+00 
   @RKS iter   1:  -382.30327912480624   -4.69514e+00   2.36954e-03 ADIIS/DIIS
   @RKS iter   2:  -382.30049305234132    2.78607e-03   3.00660e-03 ADIIS/DIIS
   @RKS iter   3:  -382.30769669887889   -7.20365e-03   8.06792e-04 ADIIS/DIIS
   @RKS iter   4:  -382.30819422266569   -4.97524e-04   1.93755e-04 ADIIS/DIIS
   @RKS iter   5:  -382.30822180574842   -2.75831e-05   5.57186e-05 DIIS
   @RKS iter   6:  -382.30822434310380   -2.53736e-06   7.12067e-06 DIIS
   @RKS iter   7:  -382.30822438930801   -4.62042e-08   1.98318e-06 DIIS
   @RKS iter   8:  -382.30822439313994   -3.83193e-09   3.82917e-07 DIIS
   @RKS iter   9:  -382.30822439324226   -1.02318e-10   1.64944e-07 DIIS
   @RKS iter  10:  -382.30822439326533   -2.30784e-11   3.35845e-09 DIIS
  Energy and wave function converged.


  ==> Post-Iterations <==

   Electrons on quadrature grid:
      Ntotal   =   69.9998067458 ; deviation = -1.933e-04 

    Orbital Energies [Eh]
    ---------------------

    Doubly Occupied:                                                      

       1Bu   -10.020231     1Ag   -10.020183     2Bu   -10.007942  
       2Ag   -10.007941     3Ag   -10.006888     3Bu   -10.006886  
       4Bu   -10.006240     4Ag   -10.006097     5Bu    -9.992162  
       5Ag    -9.992162     6Ag    -0.809462     6Bu    -0.753935  
       7Ag    -0.717863     7Bu    -0.699924     8Bu    -0.667317  
       8Ag    -0.588509     9Ag    -0.559150     9Bu    -0.531423  
      10Ag    -0.509937    11Ag    -0.457598    10Bu    -0.439197  
      11Bu    -0.411020    12Bu    -0.397693    12Ag    -0.395941  
      13Bu    -0.374434    14Bu    -0.350939    13Ag    -0.347017  
       1Au    -0.324470    15Bu    -0.311067    14Ag    -0.292986  
      15Ag    -0.287497     1Bg    -0.263458     2Au    -0.212339  
       2Bg    -0.195170     3Bg    -0.152998  

    Virtual:                                                              

       3Au     0.037508     4Au     0.090116     4Bg     0.110725  
       5Au     0.182199     5Bg     0.272300    16Ag     0.332484  
      16Bu     0.340641    17Bu     0.379521    17Ag     0.381289  
      18Ag     0.410343    18Bu     0.411234    19Bu     0.425800  
      19Ag     0.439358    20Bu     0.453721    20Ag     0.478335  
      21Ag     0.525561    21Bu     0.546350    22Ag     0.576436  
      22Bu     0.598435    23Bu     0.624896    23Ag     0.639831  
      24Ag     0.682834    24Bu     0.717354    25Ag     0.779039  
      25Bu     0.794262  

    Final Occupation by Irrep:
             Ag    Bg    Au    Bu 
    DOCC [    15,    3,    2,   15 ]
    NA   [    15,    3,    2,   15 ]
    NB   [    15,    3,    2,   15 ]

  @RKS Final Energy:  -382.30822439326533

   => Energetics <=

    Nuclear Repulsion Energy =            445.9369798670570049
    One-Electron Energy =               -1400.6447529131216925
    Two-Electron Energy =                 619.1835776141736005
    DFT Exchange-Correlation Energy =     -46.7840289613742399
    Empirical Dispersion Energy =           0.0000000000000000
    VV10 Nonlocal Energy =                  0.0000000000000000
    Total Energy =                       -382.3082243932652773

Computation Completed


Properties will be evaluated at   0.000000,   0.000000,   0.000000 [a0]

Properties computed using the SCF density matrix


 Multipole Moments:

 ------------------------------------------------------------------------------------
     Multipole            Electronic (a.u.)      Nuclear  (a.u.)        Total (a.u.)
 ------------------------------------------------------------------------------------

 L = 1.  Multiply by 2.5417464519 to convert [e a0] to [Debye]
 Dipole X            :          0.0000000            0.0000000            0.0000000
 Dipole Y            :          0.0000000            0.0000000            0.0000000
 Dipole Z            :          0.0000000            0.0000000            0.0000000
 Magnitude           :                                                    0.0000000

 ------------------------------------------------------------------------------------

*** tstop() called on osmium at Sun Jun 11 22:51:20 2023
Module time:
	user time   =      11.82 seconds =       0.20 minutes
	system time =       0.20 seconds =       0.00 minutes
	total time  =         13 seconds =       0.22 minutes
Total time:
	user time   =      11.82 seconds =       0.20 minutes
	system time =       0.20 seconds =       0.00 minutes
	total time  =         13 seconds =       0.22 minutes

*** tstart() called on osmium
*** at Sun Jun 11 22:51:20 2023


         ------------------------------------------------------------
                                   SCF GRAD                          
                          Rob Parrish, Justin Turney,                
                       Andy Simmonett, and Alex Sokolov              
         ------------------------------------------------------------

  ==> Geometry <==

    Molecular point group: c2h
    Full point group: C2h

    Geometry (in Angstrom), charge = 0, multiplicity = 1:

       Center              X                  Y                   Z               Mass       
    ------------   -----------------  -----------------  -----------------  -----------------
         C           -1.415253322400     0.230221785400     0.000000000000    12.000000000000
         C            1.415253322400    -0.230221785400     0.000000000000    12.000000000000
         C           -0.495133155800     1.314460867400     0.000000000000    12.000000000000
         C            0.495133155800    -1.314460867400     0.000000000000    12.000000000000
         C            0.889409043600     1.090949374300     0.000000000000    12.000000000000
         C           -0.889409043600    -1.090949374300     0.000000000000    12.000000000000
         H           -0.879551198500     2.343734374800     0.000000000000     1.007825032230
         H            0.879551198500    -2.343734374800     0.000000000000     1.007825032230
         H            1.577904155700     1.945006127500     0.000000000000     1.007825032230
         H           -1.577904155700    -1.945006127500     0.000000000000     1.007825032230
         C            2.884584496200    -0.521089377800     0.000000000000    12.000000000000
         C           -2.884584496200     0.521089377800     0.000000000000    12.000000000000
         H            3.140335681000    -1.591960568500     0.000000000000     1.007825032230
         H           -3.140335681000     1.591960568500     0.000000000000     1.007825032230
         C            3.880042810300     0.382253542400     0.000000000000    12.000000000000
         C           -3.880042810300    -0.382253542400     0.000000000000    12.000000000000
         H            3.694676585800     1.462438957000     0.000000000000     1.007825032230
         H           -3.694676585800    -1.462438957000     0.000000000000     1.007825032230
         H            4.931645354600     0.071104954300     0.000000000000     1.007825032230
         H           -4.931645354600    -0.071104954300     0.000000000000     1.007825032230

  Nuclear repulsion =  445.936979867057005

  ==> Basis Set <==

  Basis Set: STO-3G
    Blend: STO-3G
    Number of shells: 40
    Number of basis functions: 60
    Number of Cartesian functions: 60
    Spherical Harmonics?: true
    Max angular momentum: 1

  ==> DirectJKGrad: Integral-Direct SCF Gradients <==

    Gradient:                    1
    J tasked:                  Yes
    K tasked:                  Yes
    wK tasked:                  No
    Integrals threads:           1
    Schwarz Cutoff:          1E-12

  ==> DFT Potential <==

   => LibXC <=

    Version 5.2.3
    S. Lehtola, C. Steigemann, M. J. Oliveira, and M. A. Marques, SoftwareX 7, 1 (2018) (10.1016/j.softx.2017.11.002)

   => Composite Functional: B3LYP <= 

    B3LYP Hyb-GGA Exchange-Correlation Functional

    P. J. Stephens, F. J. Devlin, C. F. Chabalowski, and M. J. Frisch, J. Phys. Chem. 98, 11623 (1994) (10.1021/j100096a001)

    Deriv               =              1
    GGA                 =           TRUE
    Meta                =          FALSE

    Exchange Hybrid     =           TRUE
    MP2 Hybrid          =          FALSE

   => Exchange Functionals <=

    0.0800   Slater exchange
    0.7200         Becke 88

   => Exact (HF) Exchange <=

    0.2000               HF 

   => Correlation Functionals <=

    0.1900   Vosko, Wilk & Nusair (VWN5_RPA)
    0.8100   Lee, Yang & Parr

   => LibXC Density Thresholds  <==

    XC_HYB_GGA_XC_B3LYP:  1.00E-15 

   => Molecular Quadrature <=

    Radial Scheme          =       TREUTLER
    Pruning Scheme         =           NONE
    Nuclear Scheme         =       TREUTLER

    Blocking Scheme        =         OCTREE
    BS radius alpha        =              1
    Pruning alpha          =              1
    Radial Points          =             75
    Spherical Points       =            302
    Total Points           =         417002
    Total Blocks           =           3082
    Max Points             =            256
    Max Functions          =             56
    Weights Tolerance      =       1.00E-15


  -Total Gradient:
     Atom            X                  Y                   Z
    ------   -----------------  -----------------  -----------------
       1        0.000660581128     0.000224452246     0.000000000000
       2       -0.000660581128    -0.000224452246     0.000000000000
       3       -0.001221724317     0.000298519103    -0.000000000000
       4        0.001221724317    -0.000298519103    -0.000000000000
       5       -0.000184663706     0.001319978628     0.000000000000
       6        0.000184663706    -0.001319978628     0.000000000000
       7        0.000128928177     0.000157384405     0.000000000000
       8       -0.000128928177    -0.000157384405     0.000000000000
       9        0.000282662168    -0.000764993322     0.000000000000
      10       -0.000282662168     0.000764993322     0.000000000000
      11       -0.000552629572     0.000492356819     0.000000000000
      12        0.000552629572    -0.000492356819     0.000000000000
      13        0.000563643818    -0.000302759633     0.000000000000
      14       -0.000563643818     0.000302759633     0.000000000000
      15       -0.000005261018    -0.000195308170     0.000000000000
      16        0.000005261018     0.000195308170     0.000000000000
      17       -0.000380553845    -0.000085676901     0.000000000000
      18        0.000380553845     0.000085676901     0.000000000000
      19        0.000391844643    -0.000128637938     0.000000000000
      20       -0.000391844643     0.000128637938     0.000000000000


*** tstop() called on osmium at Sun Jun 11 22:51:24 2023
Module time:
	user time   =       4.40 seconds =       0.07 minutes
	system time =       0.01 seconds =       0.00 minutes
	total time  =          4 seconds =       0.07 minutes
Total time:
	user time   =      16.22 seconds =       0.27 minutes
	system time =       0.21 seconds =       0.00 minutes
	total time  =         17 seconds =       0.28 minutes

    			-----------------------------------------

    			 OPTKING 3.0: for geometry optimizations 

    			     By R.A. King, Bethel University     

    			        with contributions from          

    			    A.V. Copan, J. Cayton, A. Heide      

    			-----------------------------------------

    
	                            ===> Fragment 1 <== 

	 Z (Atomic Numbers)          Masses                          Geom                  
	       6.000000            12.000000         -2.67444118  0.43505612  0.00000000   
	       6.000000            12.000000          2.67444118 -0.43505612  0.00000000   
	       6.000000            12.000000         -0.93566606  2.48397104  0.00000000   
	       6.000000            12.000000          0.93566606 -2.48397104  0.00000000   
	       6.000000            12.000000          1.68073951  2.06159553  0.00000000   
	       6.000000            12.000000         -1.68073951 -2.06159553  0.00000000   
	       1.000000             1.007825         -1.66211088  4.42901608  0.00000000   
	       1.000000             1.007825          1.66211088 -4.42901608  0.00000000   
	       1.000000             1.007825          2.98180671  3.67552889  0.00000000   
	       1.000000             1.007825         -2.98180671 -3.67552889  0.00000000   
	       6.000000            12.000000          5.45107468 -0.98471621  0.00000000   
	       6.000000            12.000000         -5.45107468  0.98471621  0.00000000   
	       1.000000             1.007825          5.93437438 -3.00836948  0.00000000   
	       1.000000             1.007825         -5.93437438  3.00836948  0.00000000   
	       6.000000            12.000000          7.33221827  0.72235451  0.00000000   
	       6.000000            12.000000         -7.33221827 -0.72235451  0.00000000   
	       1.000000             1.007825          6.98192687  2.76360910  0.00000000   
	       1.000000             1.007825         -6.98192687 -2.76360910  0.00000000   
	       1.000000             1.007825          9.31945907  0.13436889  0.00000000   
	       1.000000             1.007825         -9.31945907 -0.13436889  0.00000000   

	 - Coordinate -           - BOHR/RAD -       - ANG/DEG -
	 R(1,3)           =         2.687265           1.422039
	 R(1,6)           =         2.687138           1.421972
	 R(1,12)          =         2.830516           1.497844
	 R(2,4)           =         2.687265           1.422039
	 R(2,5)           =         2.687138           1.421972
	 R(2,11)          =         2.830516           1.497844
	 R(3,5)           =         2.650279           1.402467
	 R(3,7)           =         2.076276           1.098718
	 R(4,6)           =         2.650279           1.402467
	 R(4,8)           =         2.076276           1.098718
	 R(5,9)           =         2.073055           1.097013
	 R(6,10)          =         2.073055           1.097013
	 R(11,13)         =         2.080565           1.100988
	 R(11,15)         =         2.540235           1.344234
	 R(12,14)         =         2.080565           1.100988
	 R(12,16)         =         2.540235           1.344234
	 R(15,17)         =         2.071093           1.095975
	 R(15,19)         =         2.072403           1.096668
	 R(16,18)         =         2.071093           1.095975
	 R(16,20)         =         2.072403           1.096668
	 B(1,3,5)         =         2.114443         121.148665
	 B(1,3,7)         =         2.080452         119.201095
	 B(1,6,4)         =         2.109642         120.873578
	 B(1,6,10)        =         2.084322         119.422852
	 B(1,12,14)       =         2.000663         114.629535
	 B(1,12,16)       =         2.209236         126.579923
	 B(2,4,6)         =         2.114443         121.148665
	 B(2,4,8)         =         2.080452         119.201095
	 B(2,5,3)         =         2.109642         120.873578
	 B(2,5,9)         =         2.084322         119.422852
	 B(2,11,13)       =         2.000663         114.629535
	 B(2,11,15)       =         2.209236         126.579923
	 B(3,1,6)         =         2.059100         117.977757
	 B(3,1,12)        =         2.079063         119.121552
	 B(3,5,9)         =         2.089221         119.703570
	 B(4,2,5)         =         2.059100         117.977757
	 B(4,2,11)        =         2.079063         119.121552
	 B(4,6,10)        =         2.089221         119.703570
	 B(5,2,11)        =         2.145022         122.900691
	 B(5,3,7)         =         2.088291         119.650240
	 B(6,1,12)        =         2.145022         122.900691
	 B(6,4,8)         =         2.088291         119.650240
	 B(11,15,17)      =         2.137770         122.485172
	 B(11,15,19)      =         2.116996         121.294925
	 B(12,16,18)      =         2.137770         122.485172
	 B(12,16,20)      =         2.116996         121.294925
	 B(13,11,15)      =         2.073286         118.790543
	 B(14,12,16)      =         2.073286         118.790543
	 B(17,15,19)      =         2.028420         116.219903
	 B(18,16,20)      =         2.028420         116.219903
	 D(1,3,5,2)       =         0.000000           0.000000
	 D(1,3,5,9)       =         3.141593         180.000000
	 D(1,6,4,2)       =         0.000000           0.000000
	 D(1,6,4,8)       =         3.141593         180.000000
	 D(1,12,16,18)    =         0.000000           0.000000
	 D(1,12,16,20)    =         3.141593         180.000000
	 D(2,4,6,10)      =         3.141593         180.000000
	 D(2,5,3,7)       =         3.141593         180.000000
	 D(2,11,15,17)    =         0.000000           0.000000
	 D(2,11,15,19)    =         3.141593         180.000000
	 D(3,1,6,4)       =         0.000000           0.000000
	 D(3,1,6,10)      =         3.141593         180.000000
	 D(3,1,12,14)     =         0.000000           0.000000
	 D(3,1,12,16)     =         3.141593         180.000000
	 D(3,5,2,4)       =         0.000000           0.000000
	 D(3,5,2,11)      =         3.141593         180.000000
	 D(4,2,5,9)       =         3.141593         180.000000
	 D(4,2,11,13)     =         0.000000           0.000000
	 D(4,2,11,15)     =         3.141593         180.000000
	 D(4,6,1,12)      =         3.141593         180.000000
	 D(5,2,4,6)       =         0.000000           0.000000
	 D(5,2,4,8)       =         3.141593         180.000000
	 D(5,2,11,13)     =         3.141593         180.000000
	 D(5,2,11,15)     =         0.000000           0.000000
	 D(5,3,1,6)       =         0.000000           0.000000
	 D(5,3,1,12)      =         3.141593         180.000000
	 D(6,1,3,7)       =         3.141593         180.000000
	 D(6,1,12,14)     =         3.141593         180.000000
	 D(6,1,12,16)     =         0.000000           0.000000
	 D(6,4,2,11)      =         3.141593         180.000000
	 D(7,3,1,12)      =         0.000000           0.000000
	 D(7,3,5,9)       =         0.000000           0.000000
	 D(8,4,2,11)      =         0.000000           0.000000
	 D(8,4,6,10)      =         0.000000           0.000000
	 D(9,5,2,11)      =         0.000000           0.000000
	 D(10,6,1,12)     =         0.000000           0.000000
	 D(13,11,15,17)   =         3.141593         180.000000
	 D(13,11,15,19)   =         0.000000           0.000000
	 D(14,12,16,18)   =         3.141593         180.000000
	 D(14,12,16,20)   =         0.000000           0.000000


	        --- Internal Coordinate Step in ANG or DEG, aJ/ANG or AJ/DEG ---
	-------------------------------------------------------------------------------
	           Coordinate      Previous         Force          Change          New 
	           ----------      --------        ------          ------        ------
	               R(1,3)       1.42204        0.00262        0.00040       1.42244
	               R(1,6)       1.42197       -0.00615       -0.00094       1.42104
	              R(1,12)       1.49784       -0.00051       -0.00010       1.49774
	               R(2,4)       1.42204        0.00262        0.00040       1.42244
	               R(2,5)       1.42197       -0.00615       -0.00094       1.42104
	              R(2,11)       1.49784       -0.00051       -0.00010       1.49774
	               R(3,5)       1.40247       -0.00246       -0.00035       1.40212
	               R(3,7)       1.09872       -0.00084       -0.00016       1.09856
	               R(4,6)       1.40247       -0.00246       -0.00035       1.40212
	               R(4,8)       1.09872       -0.00084       -0.00016       1.09856
	               R(5,9)       1.09701        0.00345        0.00065       1.09766
	              R(6,10)       1.09701        0.00345        0.00065       1.09766
	             R(11,13)       1.10099       -0.00352       -0.00067       1.10031
	             R(11,15)       1.34423        0.00227        0.00026       1.34449
	             R(12,14)       1.10099       -0.00352       -0.00067       1.10031
	             R(12,16)       1.34423        0.00227        0.00026       1.34449
	             R(15,17)       1.09597        0.00019        0.00004       1.09601
	             R(15,19)       1.09667       -0.00340       -0.00064       1.09603
	             R(16,18)       1.09597        0.00019        0.00004       1.09601
	             R(16,20)       1.09667       -0.00340       -0.00064       1.09603
	             B(1,3,5)     121.14867        0.00006        0.18967     121.33833
	             B(1,3,7)     119.20109       -0.00004       -0.16084     119.04025
	             B(1,6,4)     120.87358       -0.00001       -0.03086     120.84272
	            B(1,6,10)     119.42285        0.00006        0.27590     119.69875
	           B(1,12,14)     114.62953       -0.00005       -0.21809     114.41144
	           B(1,12,16)     126.57992        0.00002        0.08144     126.66136
	             B(2,4,6)     121.14867        0.00006        0.18967     121.33833
	             B(2,4,8)     119.20109       -0.00004       -0.16084     119.04025
	             B(2,5,3)     120.87358       -0.00001       -0.03086     120.84272
	             B(2,5,9)     119.42285        0.00006        0.27590     119.69875
	           B(2,11,13)     114.62953       -0.00005       -0.21809     114.41144
	           B(2,11,15)     126.57992        0.00002        0.08144     126.66136
	             B(3,1,6)     117.97776       -0.00005       -0.15881     117.81895
	            B(3,1,12)     119.12155        0.00001        0.04199     119.16354
	             B(3,5,9)     119.70357       -0.00005       -0.24504     119.45853
	             B(4,2,5)     117.97776       -0.00005       -0.15881     117.81895
	            B(4,2,11)     119.12155        0.00001        0.04199     119.16354
	            B(4,6,10)     119.70357       -0.00005       -0.24504     119.45853
	            B(5,2,11)     122.90069        0.00004        0.11682     123.01751
	             B(5,3,7)     119.65024       -0.00001       -0.02882     119.62142
	            B(6,1,12)     122.90069        0.00004        0.11682     123.01751
	             B(6,4,8)     119.65024       -0.00001       -0.02882     119.62142
	          B(11,15,17)     122.48517        0.00004        0.18844     122.67361
	          B(11,15,19)     121.29492       -0.00002       -0.08847     121.20646
	          B(12,16,18)     122.48517        0.00004        0.18844     122.67361
	          B(12,16,20)     121.29492       -0.00002       -0.08847     121.20646
	          B(13,11,15)     118.79054        0.00003        0.13666     118.92720
	          B(14,12,16)     118.79054        0.00003        0.13666     118.92720
	          B(17,15,19)     116.21990       -0.00002       -0.09997     116.11993
	          B(18,16,20)     116.21990       -0.00002       -0.09997     116.11993
	           D(1,3,5,2)       0.00000       -0.00000       -0.00000      -0.00000
	           D(1,3,5,9)     180.00000       -0.00000        0.00000     180.00000
	           D(1,6,4,2)       0.00000       -0.00000        0.00000       0.00000
	           D(1,6,4,8)     180.00000        0.00000        0.00000     180.00000
	        D(1,12,16,18)       0.00000        0.00000        0.00000       0.00000
	        D(1,12,16,20)     180.00000       -0.00000        0.00000     180.00000
	          D(2,4,6,10)     180.00000       -0.00000        0.00000     180.00000
	           D(2,5,3,7)     180.00000        0.00000        0.00000     180.00000
	        D(2,11,15,17)       0.00000       -0.00000       -0.00000      -0.00000
	        D(2,11,15,19)     180.00000       -0.00000        0.00000     180.00000
	           D(3,1,6,4)       0.00000       -0.00000       -0.00000      -0.00000
	          D(3,1,6,10)     180.00000       -0.00000        0.00000     180.00000
	         D(3,1,12,14)       0.00000       -0.00000       -0.00000      -0.00000
	         D(3,1,12,16)     180.00000        0.00000        0.00000     180.00000
	           D(3,5,2,4)       0.00000       -0.00000        0.00000       0.00000
	          D(3,5,2,11)     180.00000       -0.00000        0.00000     180.00000
	           D(4,2,5,9)     180.00000       -0.00000        0.00000     180.00000
	         D(4,2,11,13)       0.00000        0.00000       -0.00000      -0.00000
	         D(4,2,11,15)     180.00000        0.00000        0.00000     180.00000
	          D(4,6,1,12)     180.00000       -0.00000        0.00000     180.00000
	           D(5,2,4,6)       0.00000        0.00000       -0.00000      -0.00000
	           D(5,2,4,8)     180.00000        0.00000        0.00000     180.00000
	         D(5,2,11,13)     180.00000        0.00000        0.00000     180.00000
	         D(5,2,11,15)       0.00000        0.00000        0.00000       0.00000
	           D(5,3,1,6)       0.00000        0.00000        0.00000       0.00000
	          D(5,3,1,12)     180.00000        0.00000        0.00000     180.00000
	           D(6,1,3,7)     180.00000        0.00000        0.00000     180.00000
	         D(6,1,12,14)     180.00000        0.00000        0.00000     180.00000
	         D(6,1,12,16)       0.00000        0.00000       -0.00000      -0.00000
	          D(6,4,2,11)     180.00000        0.00000        0.00000     180.00000
	          D(7,3,1,12)       0.00000        0.00000        0.00000       0.00000
	           D(7,3,5,9)       0.00000        0.00000       -0.00000      -0.00000
	          D(8,4,2,11)       0.00000        0.00000        0.00000       0.00000
	          D(8,4,6,10)       0.00000       -0.00000       -0.00000      -0.00000
	          D(9,5,2,11)       0.00000       -0.00000       -0.00000      -0.00000
	         D(10,6,1,12)       0.00000       -0.00000        0.00000       0.00000
	       D(13,11,15,17)     180.00000        0.00000        0.00000     180.00000
	       D(13,11,15,19)       0.00000        0.00000        0.00000       0.00000
	       D(14,12,16,18)     180.00000        0.00000        0.00000     180.00000
	       D(14,12,16,20)       0.00000        0.00000        0.00000       0.00000
	-------------------------------------------------------------------------------

	                                 ==> Convergence Check <==                                  
    
	Measures of convergence in internal coordinates in au.
    
	Criteria marked as inactive (o), active & met (*), and active & unmet ( ).

	----------------------------------------------------------------------------------------------
	   Step    Total Energy     Delta E     Max Force     RMS Force      Max Disp      RMS Disp   
	----------------------------------------------------------------------------------------------
	  Convergence Criteria     1.00e-06 *    3.00e-04 *             o    1.20e-03 *             o
	----------------------------------------------------------------------------------------------
	     1    -382.30822439   -3.82e+02      7.73e-04      3.38e-04 o    4.82e-03      1.64e-03 o  ~
	----------------------------------------------------------------------------------------------

Next Geometry in Ang 
	Fragment 1 (Ang)

	    C  -1.4169618939   0.2282655424  -0.0000000000
	    C   1.4169618939  -0.2282655424   0.0000000000
	    C  -0.4952969217   1.3117164109  -0.0000000000
	    C   0.4952969217  -1.3117164109  -0.0000000000
	    C   0.8893717154   1.0912008151  -0.0000000000
	    C  -0.8893717154  -1.0912008151   0.0000000000
	    H  -0.8813263307   2.3402156849   0.0000000000
	    H   0.8813263307  -2.3402156849  -0.0000000000
	    H   1.5727913274   1.9501558081  -0.0000000000
	    H  -1.5727913274  -1.9501558081  -0.0000000000
	    C   2.8860624778  -0.5197802731  -0.0000000000
	    C  -2.8860624778   0.5197802731   0.0000000000
	    H   3.1370955866  -1.5910756317   0.0000000000
	    H  -3.1370955866   1.5910756317   0.0000000000
	    C   3.8834052558   0.3818683820   0.0000000000
	    C  -3.8834052558  -0.3818683820   0.0000000000
	    H   3.7036136739   1.4630315187  -0.0000000000
	    H  -3.7036136739  -1.4630315187   0.0000000000
	    H   4.9333226866   0.0673103671   0.0000000000
	    H  -4.9333226866  -0.0673103671  -0.0000000000


    Structure for next step:
    Molecular point group: c2h
    Full point group: C2h

    Geometry (in Angstrom), charge = 0, multiplicity = 1:

    C           -1.416961893915     0.228265542399     0.000000000000
    C            1.416961893915    -0.228265542399     0.000000000000
    C           -0.495296921705     1.311716410948     0.000000000000
    C            0.495296921705    -1.311716410948     0.000000000000
    C            0.889371715430     1.091200815059     0.000000000000
    C           -0.889371715430    -1.091200815059     0.000000000000
    H           -0.881326330718     2.340215684930     0.000000000000
    H            0.881326330718    -2.340215684930     0.000000000000
    H            1.572791327364     1.950155808129     0.000000000000
    H           -1.572791327364    -1.950155808129     0.000000000000
    C            2.886062477813    -0.519780273143     0.000000000000
    C           -2.886062477813     0.519780273143     0.000000000000
    H            3.137095586584    -1.591075631676     0.000000000000
    H           -3.137095586584     1.591075631676     0.000000000000
    C            3.883405255804     0.381868382002     0.000000000000
    C           -3.883405255804    -0.381868382002     0.000000000000
    H            3.703613673903     1.463031518726     0.000000000000
    H           -3.703613673903    -1.463031518726     0.000000000000
    H            4.933322686601     0.067310367126     0.000000000000
    H           -4.933322686601    -0.067310367126     0.000000000000


Scratch directory: /tmp/
gradient() will perform analytic gradient computation.

*** tstart() called on osmium
*** at Sun Jun 11 22:51:24 2023

   => Loading Basis Set <=

    Name: STO-3G
    Role: ORBITAL
    Keyword: BASIS
    atoms 1-6, 11-12, 15-16  entry C          line    61 file /home/eric/.pyenv/versions/miniforge3-4.10.1-3/envs/psi4-dev/share/psi4/basis/sto-3g.gbs 
    atoms 7-10, 13-14, 17-20 entry H          line    19 file /home/eric/.pyenv/versions/miniforge3-4.10.1-3/envs/psi4-dev/share/psi4/basis/sto-3g.gbs 


         ---------------------------------------------------------
                                   SCF
               by Justin Turney, Rob Parrish, Andy Simmonett
                          and Daniel G. A. Smith
                              RKS Reference
                        1 Threads,    500 MiB Core
         ---------------------------------------------------------

  ==> Geometry <==

    Molecular point group: c2h
    Full point group: C2h

    Geometry (in Angstrom), charge = 0, multiplicity = 1:

       Center              X                  Y                   Z               Mass       
    ------------   -----------------  -----------------  -----------------  -----------------
         C           -1.416961893915     0.228265542399     0.000000000000    12.000000000000
         C            1.416961893915    -0.228265542399     0.000000000000    12.000000000000
         C           -0.495296921705     1.311716410948     0.000000000000    12.000000000000
         C            0.495296921705    -1.311716410948     0.000000000000    12.000000000000
         C            0.889371715430     1.091200815059     0.000000000000    12.000000000000
         C           -0.889371715430    -1.091200815059     0.000000000000    12.000000000000
         H           -0.881326330718     2.340215684930     0.000000000000     1.007825032230
         H            0.881326330718    -2.340215684930     0.000000000000     1.007825032230
         H            1.572791327364     1.950155808129     0.000000000000     1.007825032230
         H           -1.572791327364    -1.950155808129     0.000000000000     1.007825032230
         C            2.886062477813    -0.519780273143     0.000000000000    12.000000000000
         C           -2.886062477813     0.519780273143     0.000000000000    12.000000000000
         H            3.137095586584    -1.591075631676     0.000000000000     1.007825032230
         H           -3.137095586584     1.591075631676     0.000000000000     1.007825032230
         C            3.883405255804     0.381868382002     0.000000000000    12.000000000000
         C           -3.883405255804    -0.381868382002     0.000000000000    12.000000000000
         H            3.703613673903     1.463031518726     0.000000000000     1.007825032230
         H           -3.703613673903    -1.463031518726     0.000000000000     1.007825032230
         H            4.933322686601     0.067310367126     0.000000000000     1.007825032230
         H           -4.933322686601    -0.067310367126     0.000000000000     1.007825032230

  Running in c2h symmetry.

  Rotational constants: A =      0.15434  B =      0.02284  C =      0.01990 [cm^-1]
  Rotational constants: A =   4627.08681  B =    684.78563  C =    596.50577 [MHz]
  Nuclear repulsion =  445.880720956953724

  Charge       = 0
  Multiplicity = 1
  Electrons    = 70
  Nalpha       = 35
  Nbeta        = 35

  ==> Algorithm <==

  SCF Algorithm Type is PK.
  DIIS enabled.
  MOM disabled.
  Fractional occupation disabled.
  Guess Type is READ.
  Energy threshold   = 1.00e-08
  Density threshold  = 1.00e-08
  Integral threshold = 1.00e-12

  ==> Primary Basis <==

  Basis Set: STO-3G
    Blend: STO-3G
    Number of shells: 40
    Number of basis functions: 60
    Number of Cartesian functions: 60
    Spherical Harmonics?: true
    Max angular momentum: 1

  ==> DFT Potential <==

   => LibXC <=

    Version 5.2.3
    S. Lehtola, C. Steigemann, M. J. Oliveira, and M. A. Marques, SoftwareX 7, 1 (2018) (10.1016/j.softx.2017.11.002)

   => Composite Functional: B3LYP <= 

    B3LYP Hyb-GGA Exchange-Correlation Functional

    P. J. Stephens, F. J. Devlin, C. F. Chabalowski, and M. J. Frisch, J. Phys. Chem. 98, 11623 (1994) (10.1021/j100096a001)

    Deriv               =              1
    GGA                 =           TRUE
    Meta                =          FALSE

    Exchange Hybrid     =           TRUE
    MP2 Hybrid          =          FALSE

   => Exchange Functionals <=

    0.0800   Slater exchange
    0.7200         Becke 88

   => Exact (HF) Exchange <=

    0.2000               HF 

   => Correlation Functionals <=

    0.1900   Vosko, Wilk & Nusair (VWN5_RPA)
    0.8100   Lee, Yang & Parr

   => LibXC Density Thresholds  <==

    XC_HYB_GGA_XC_B3LYP:  1.00E-15 

   => Molecular Quadrature <=

    Radial Scheme          =       TREUTLER
    Pruning Scheme         =           NONE
    Nuclear Scheme         =       TREUTLER

    Blocking Scheme        =         OCTREE
    BS radius alpha        =              1
    Pruning alpha          =              1
    Radial Points          =             75
    Spherical Points       =            302
    Total Points           =         417018
    Total Blocks           =           3086
    Max Points             =            256
    Max Functions          =             55
    Weights Tolerance      =       1.00E-15

   => Loading Basis Set <=

    Name: STO-3G
    Role: ORBITAL
    Keyword: BASIS
    atoms 1-6, 11-12, 15-16  entry C          line    61 file /home/eric/.pyenv/versions/miniforge3-4.10.1-3/envs/psi4-dev/share/psi4/basis/sto-3g.gbs 
    atoms 7-10, 13-14, 17-20 entry H          line    19 file /home/eric/.pyenv/versions/miniforge3-4.10.1-3/envs/psi4-dev/share/psi4/basis/sto-3g.gbs 

  Reading orbitals from file /tmp/dvb_gopt_rks.dvb.69073.180.npy, no projection.

  ==> Integral Setup <==

  Using in-core PK algorithm.
   Calculation information:
      Number of atoms:                  20
      Number of AO shells:              40
      Number of primitives:            120
      Number of atomic orbitals:        60
      Number of basis functions:        60

      Integral cutoff                 1.00e-12
      Number of threads:                 1

  Performing in-core PK
  Using 3350730 doubles for integral storage.
  We computed 262684 shell quartets total.
  Whereas there are 336610 unique shell quartets.

  ==> DiskJK: Disk-Based J/K Matrices <==

    J tasked:                  Yes
    K tasked:                  Yes
    wK tasked:                  No
    Memory [MiB]:               98
    Schwarz Cutoff:          1E-12

    OpenMP threads:              1

  Cached 33.3% of DFT collocation blocks in 0.182 [GiB].

  Minimum eigenvalue in the overlap matrix is 1.8572091300E-01.
  Reciprocal condition number of the overlap matrix is 7.9131425864E-02.
    Using symmetric orthogonalization.

  ==> Pre-Iterations <==

  SCF Guess: Orbitals guess was supplied from a previous computation.

   -------------------------------------------------------
    Irrep   Nso     Nmo     Nalpha   Nbeta   Ndocc  Nsocc
   -------------------------------------------------------
     Ag        25      25      15      15      15       0
     Bg         5       5       3       3       3       0
     Au         5       5       2       2       2       0
     Bu        25      25      15      15      15       0
   -------------------------------------------------------
    Total      60      60      35      35      35       0
   -------------------------------------------------------

  ==> Iterations <==

                        Total Energy        Delta E     RMS |[F,P]|

   @RKS iter   0:  -382.30888354473501   -3.82309e+02   1.98607e-04 
   @RKS iter   1:  -382.30824709477139    6.36450e-04   2.69074e-05 DIIS
   @RKS iter   2:  -382.30824687738294    2.17388e-07   3.33572e-05 DIIS
   @RKS iter   3:  -382.30824776046063   -8.83078e-07   2.62695e-06 DIIS
   @RKS iter   4:  -382.30824776382974   -3.36911e-09   1.79207e-06 DIIS
   @RKS iter   5:  -382.30824776612405   -2.29431e-09   6.87140e-07 DIIS
   @RKS iter   6:  -382.30824776651036   -3.86308e-10   6.28032e-08 DIIS
   @RKS iter   7:  -382.30824776651264   -2.27374e-12   3.12168e-08 DIIS
   @RKS iter   8:  -382.30824776651332   -6.82121e-13   3.45361e-09 DIIS
  Energy and wave function converged.


  ==> Post-Iterations <==

   Electrons on quadrature grid:
      Ntotal   =   69.9998012671 ; deviation = -1.987e-04 

    Orbital Energies [Eh]
    ---------------------

    Doubly Occupied:                                                      

       1Bu   -10.020228     1Ag   -10.020180     2Bu   -10.008088  
       2Ag   -10.008088     3Bu   -10.006826     3Ag   -10.006822  
       4Bu   -10.006099     4Ag   -10.005961     5Bu    -9.992319  
       5Ag    -9.992319     6Ag    -0.809543     6Bu    -0.753929  
       7Ag    -0.717911     7Bu    -0.699829     8Bu    -0.667535  
       8Ag    -0.588684     9Ag    -0.559024     9Bu    -0.531670  
      10Ag    -0.510178    11Ag    -0.457432    10Bu    -0.439306  
      11Bu    -0.410696    12Bu    -0.397918    12Ag    -0.396072  
      13Bu    -0.374056    14Bu    -0.351187    13Ag    -0.347290  
       1Au    -0.324533    15Bu    -0.311216    14Ag    -0.292842  
      15Ag    -0.287445     1Bg    -0.263498     2Au    -0.212401  
       2Bg    -0.195105     3Bg    -0.153096  

    Virtual:                                                              

       3Au     0.037403     4Au     0.090330     4Bg     0.110575  
       5Au     0.182165     5Bg     0.272515    16Ag     0.332140  
      16Bu     0.340752    17Bu     0.379369    17Ag     0.381588  
      18Ag     0.411088    18Bu     0.412049    19Bu     0.426783  
      19Ag     0.439726    20Bu     0.452708    20Ag     0.478219  
      21Ag     0.526273    21Bu     0.545920    22Ag     0.575964  
      22Bu     0.599277    23Bu     0.625101    23Ag     0.639433  
      24Ag     0.682930    24Bu     0.717010    25Ag     0.779477  
      25Bu     0.794630  

    Final Occupation by Irrep:
             Ag    Bg    Au    Bu 
    DOCC [    15,    3,    2,   15 ]
    NA   [    15,    3,    2,   15 ]
    NB   [    15,    3,    2,   15 ]

  @RKS Final Energy:  -382.30824776651332

   => Energetics <=

    Nuclear Repulsion Energy =            445.8807209569537235
    One-Electron Energy =               -1400.5294036105187843
    Two-Electron Energy =                 619.1250107865072323
    DFT Exchange-Correlation Energy =     -46.7845758994555254
    Empirical Dispersion Energy =           0.0000000000000000
    VV10 Nonlocal Energy =                  0.0000000000000000
    Total Energy =                       -382.3082477665133752

Computation Completed


Properties will be evaluated at   0.000000,   0.000000,   0.000000 [a0]

Properties computed using the SCF density matrix


 Multipole Moments:

 ------------------------------------------------------------------------------------
     Multipole            Electronic (a.u.)      Nuclear  (a.u.)        Total (a.u.)
 ------------------------------------------------------------------------------------

 L = 1.  Multiply by 2.5417464519 to convert [e a0] to [Debye]
 Dipole X            :          0.0000000            0.0000000            0.0000000
 Dipole Y            :          0.0000000           -0.0000000           -0.0000000
 Dipole Z            :          0.0000000            0.0000000            0.0000000
 Magnitude           :                                                    0.0000000

 ------------------------------------------------------------------------------------

*** tstop() called on osmium at Sun Jun 11 22:51:34 2023
Module time:
	user time   =      10.03 seconds =       0.17 minutes
	system time =       0.08 seconds =       0.00 minutes
	total time  =         10 seconds =       0.17 minutes
Total time:
	user time   =      26.53 seconds =       0.44 minutes
	system time =       0.29 seconds =       0.00 minutes
	total time  =         27 seconds =       0.45 minutes

*** tstart() called on osmium
*** at Sun Jun 11 22:51:34 2023


         ------------------------------------------------------------
                                   SCF GRAD                          
                          Rob Parrish, Justin Turney,                
                       Andy Simmonett, and Alex Sokolov              
         ------------------------------------------------------------

  ==> Geometry <==

    Molecular point group: c2h
    Full point group: C2h

    Geometry (in Angstrom), charge = 0, multiplicity = 1:

       Center              X                  Y                   Z               Mass       
    ------------   -----------------  -----------------  -----------------  -----------------
         C           -1.416961893915     0.228265542399     0.000000000000    12.000000000000
         C            1.416961893915    -0.228265542399     0.000000000000    12.000000000000
         C           -0.495296921705     1.311716410948     0.000000000000    12.000000000000
         C            0.495296921705    -1.311716410948     0.000000000000    12.000000000000
         C            0.889371715430     1.091200815059     0.000000000000    12.000000000000
         C           -0.889371715430    -1.091200815059     0.000000000000    12.000000000000
         H           -0.881326330718     2.340215684930     0.000000000000     1.007825032230
         H            0.881326330718    -2.340215684930     0.000000000000     1.007825032230
         H            1.572791327364     1.950155808129     0.000000000000     1.007825032230
         H           -1.572791327364    -1.950155808129     0.000000000000     1.007825032230
         C            2.886062477813    -0.519780273143     0.000000000000    12.000000000000
         C           -2.886062477813     0.519780273143     0.000000000000    12.000000000000
         H            3.137095586584    -1.591075631676     0.000000000000     1.007825032230
         H           -3.137095586584     1.591075631676     0.000000000000     1.007825032230
         C            3.883405255804     0.381868382002     0.000000000000    12.000000000000
         C           -3.883405255804    -0.381868382002     0.000000000000    12.000000000000
         H            3.703613673903     1.463031518726     0.000000000000     1.007825032230
         H           -3.703613673903    -1.463031518726     0.000000000000     1.007825032230
         H            4.933322686601     0.067310367126     0.000000000000     1.007825032230
         H           -4.933322686601    -0.067310367126     0.000000000000     1.007825032230

  Nuclear repulsion =  445.880720956953724

  ==> Basis Set <==

  Basis Set: STO-3G
    Blend: STO-3G
    Number of shells: 40
    Number of basis functions: 60
    Number of Cartesian functions: 60
    Spherical Harmonics?: true
    Max angular momentum: 1

  ==> DirectJKGrad: Integral-Direct SCF Gradients <==

    Gradient:                    1
    J tasked:                  Yes
    K tasked:                  Yes
    wK tasked:                  No
    Integrals threads:           1
    Schwarz Cutoff:          1E-12

  ==> DFT Potential <==

   => LibXC <=

    Version 5.2.3
    S. Lehtola, C. Steigemann, M. J. Oliveira, and M. A. Marques, SoftwareX 7, 1 (2018) (10.1016/j.softx.2017.11.002)

   => Composite Functional: B3LYP <= 

    B3LYP Hyb-GGA Exchange-Correlation Functional

    P. J. Stephens, F. J. Devlin, C. F. Chabalowski, and M. J. Frisch, J. Phys. Chem. 98, 11623 (1994) (10.1021/j100096a001)

    Deriv               =              1
    GGA                 =           TRUE
    Meta                =          FALSE

    Exchange Hybrid     =           TRUE
    MP2 Hybrid          =          FALSE

   => Exchange Functionals <=

    0.0800   Slater exchange
    0.7200         Becke 88

   => Exact (HF) Exchange <=

    0.2000               HF 

   => Correlation Functionals <=

    0.1900   Vosko, Wilk & Nusair (VWN5_RPA)
    0.8100   Lee, Yang & Parr

   => LibXC Density Thresholds  <==

    XC_HYB_GGA_XC_B3LYP:  1.00E-15 

   => Molecular Quadrature <=

    Radial Scheme          =       TREUTLER
    Pruning Scheme         =           NONE
    Nuclear Scheme         =       TREUTLER

    Blocking Scheme        =         OCTREE
    BS radius alpha        =              1
    Pruning alpha          =              1
    Radial Points          =             75
    Spherical Points       =            302
    Total Points           =         417018
    Total Blocks           =           3086
    Max Points             =            256
    Max Functions          =             55
    Weights Tolerance      =       1.00E-15


  -Total Gradient:
     Atom            X                  Y                   Z
    ------   -----------------  -----------------  -----------------
       1        0.000270511686    -0.000111976025    -0.000000000000
       2       -0.000270511686     0.000111976025     0.000000000000
       3       -0.000047151183     0.000006050142     0.000000000000
       4        0.000047151183    -0.000006050142     0.000000000000
       5       -0.000123999348    -0.000034567603     0.000000000000
       6        0.000123999348     0.000034567603     0.000000000000
       7        0.000041382034    -0.000054022011    -0.000000000000
       8       -0.000041382034     0.000054022011    -0.000000000000
       9        0.000154643194    -0.000044823457     0.000000000000
      10       -0.000154643194     0.000044823457     0.000000000000
      11       -0.000073431880    -0.000159029730     0.000000000000
      12        0.000073431880     0.000159029730     0.000000000000
      13       -0.000024941122     0.000106218092    -0.000000000000
      14        0.000024941122    -0.000106218092    -0.000000000000
      15        0.000392177533     0.000083571457     0.000000000000
      16       -0.000392177533    -0.000083571457     0.000000000000
      17        0.000017653309     0.000003809172     0.000000000000
      18       -0.000017653309    -0.000003809172    -0.000000000000
      19       -0.000151348585     0.000051973132     0.000000000000
      20        0.000151348585    -0.000051973132     0.000000000000


*** tstop() called on osmium at Sun Jun 11 22:51:39 2023
Module time:
	user time   =       4.37 seconds =       0.07 minutes
	system time =       0.01 seconds =       0.00 minutes
	total time  =          5 seconds =       0.08 minutes
Total time:
	user time   =      30.91 seconds =       0.52 minutes
	system time =       0.30 seconds =       0.01 minutes
	total time  =         32 seconds =       0.53 minutes

    			-----------------------------------------

    			 OPTKING 3.0: for geometry optimizations 

    			     By R.A. King, Bethel University     

    			        with contributions from          

    			    A.V. Copan, J. Cayton, A. Heide      

    			-----------------------------------------

    
	                            ===> Fragment 1 <== 

	 Z (Atomic Numbers)          Masses                          Geom                  
	       6.000000            12.000000         -2.67766991  0.43135936  0.00000000   
	       6.000000            12.000000          2.67766991 -0.43135936  0.00000000   
	       6.000000            12.000000         -0.93597553  2.47878477  0.00000000   
	       6.000000            12.000000          0.93597553 -2.47878477  0.00000000   
	       6.000000            12.000000          1.68066897  2.06207069  0.00000000   
	       6.000000            12.000000         -1.68066897 -2.06207069  0.00000000   
	       1.000000             1.007825         -1.66546539  4.42236672  0.00000000   
	       1.000000             1.007825          1.66546539 -4.42236672  0.00000000   
	       1.000000             1.007825          2.97214486  3.68526038  0.00000000   
	       1.000000             1.007825         -2.97214486 -3.68526038  0.00000000   
	       6.000000            12.000000          5.45386766 -0.98224236  0.00000000   
	       6.000000            12.000000         -5.45386766  0.98224236  0.00000000   
	       1.000000             1.007825          5.92825149 -3.00669719  0.00000000   
	       1.000000             1.007825         -5.92825149  3.00669719  0.00000000   
	       6.000000            12.000000          7.33857237  0.72162666  0.00000000   
	       6.000000            12.000000         -7.33857237 -0.72162666  0.00000000   
	       1.000000             1.007825          6.99881552  2.76472888  0.00000000   
	       1.000000             1.007825         -6.99881552 -2.76472888  0.00000000   
	       1.000000             1.007825          9.32262877  0.12719816  0.00000000   
	       1.000000             1.007825         -9.32262877 -0.12719816  0.00000000   

	 - Coordinate -           - BOHR/RAD -       - ANG/DEG -
	 R(1,3)           =         2.688020           1.422439
	 R(1,6)           =         2.685369           1.421036
	 R(1,12)          =         2.830326           1.497744
	 R(2,4)           =         2.688020           1.422439
	 R(2,5)           =         2.685369           1.421036
	 R(2,11)          =         2.830326           1.497744
	 R(3,5)           =         2.649619           1.402118
	 R(3,7)           =         2.075974           1.098558
	 R(4,6)           =         2.649619           1.402118
	 R(4,8)           =         2.075974           1.098558
	 R(5,9)           =         2.074284           1.097664
	 R(6,10)          =         2.074284           1.097664
	 R(11,13)         =         2.079293           1.100314
	 R(11,15)         =         2.540725           1.344494
	 R(12,14)         =         2.079293           1.100314
	 R(12,16)         =         2.540725           1.344494
	 R(15,17)         =         2.071159           1.096010
	 R(15,19)         =         2.071189           1.096026
	 R(16,18)         =         2.071159           1.096010
	 R(16,20)         =         2.071189           1.096026
	 B(1,3,5)         =         2.117753         121.338334
	 B(1,3,7)         =         2.077644         119.040250
	 B(1,6,4)         =         2.109103         120.842718
	 B(1,6,10)        =         2.089137         119.698754
	 B(1,12,14)       =         1.996856         114.411441
	 B(1,12,16)       =         2.210658         126.661360
	 B(2,4,6)         =         2.117753         121.338334
	 B(2,4,8)         =         2.077644         119.040250
	 B(2,5,3)         =         2.109103         120.842718
	 B(2,5,9)         =         2.089137         119.698754
	 B(2,11,13)       =         1.996856         114.411441
	 B(2,11,15)       =         2.210658         126.661360
	 B(3,1,6)         =         2.056329         117.818947
	 B(3,1,12)        =         2.079796         119.163541
	 B(3,5,9)         =         2.084945         119.458528
	 B(4,2,5)         =         2.056329         117.818947
	 B(4,2,11)        =         2.079796         119.163541
	 B(4,6,10)        =         2.084945         119.458528
	 B(5,2,11)        =         2.147061         123.017512
	 B(5,3,7)         =         2.087788         119.621415
	 B(6,1,12)        =         2.147061         123.017512
	 B(6,4,8)         =         2.087788         119.621415
	 B(11,15,17)      =         2.141058         122.673608
	 B(11,15,19)      =         2.115452         121.206459
	 B(12,16,18)      =         2.141058         122.673608
	 B(12,16,20)      =         2.115452         121.206459
	 B(13,11,15)      =         2.075671         118.927199
	 B(14,12,16)      =         2.075671         118.927199
	 B(17,15,19)      =         2.026675         116.119933
	 B(18,16,20)      =         2.026675         116.119933
	 D(1,3,5,2)       =         0.000000           0.000000
	 D(1,3,5,9)       =         3.141593         180.000000
	 D(1,6,4,2)       =         0.000000           0.000000
	 D(1,6,4,8)       =         3.141593         180.000000
	 D(1,12,16,18)    =         0.000000           0.000000
	 D(1,12,16,20)    =         3.141593         180.000000
	 D(2,4,6,10)      =         3.141593         180.000000
	 D(2,5,3,7)       =         3.141593         180.000000
	 D(2,11,15,17)    =         0.000000           0.000000
	 D(2,11,15,19)    =         3.141593         180.000000
	 D(3,1,6,4)       =         0.000000           0.000000
	 D(3,1,6,10)      =         3.141593         180.000000
	 D(3,1,12,14)     =         0.000000           0.000000
	 D(3,1,12,16)     =         3.141593         180.000000
	 D(3,5,2,4)       =         0.000000           0.000000
	 D(3,5,2,11)      =         3.141593         180.000000
	 D(4,2,5,9)       =         3.141593         180.000000
	 D(4,2,11,13)     =         0.000000           0.000000
	 D(4,2,11,15)     =         3.141593         180.000000
	 D(4,6,1,12)      =         3.141593         180.000000
	 D(5,2,4,6)       =         0.000000           0.000000
	 D(5,2,4,8)       =         3.141593         180.000000
	 D(5,2,11,13)     =         3.141593         180.000000
	 D(5,2,11,15)     =         0.000000           0.000000
	 D(5,3,1,6)       =         0.000000           0.000000
	 D(5,3,1,12)      =         3.141593         180.000000
	 D(6,1,3,7)       =         3.141593         180.000000
	 D(6,1,12,14)     =         3.141593         180.000000
	 D(6,1,12,16)     =         0.000000           0.000000
	 D(6,4,2,11)      =         3.141593         180.000000
	 D(7,3,1,12)      =         0.000000           0.000000
	 D(7,3,5,9)       =         0.000000           0.000000
	 D(8,4,2,11)      =         0.000000           0.000000
	 D(8,4,6,10)      =         0.000000           0.000000
	 D(9,5,2,11)      =         0.000000           0.000000
	 D(10,6,1,12)     =         0.000000           0.000000
	 D(13,11,15,17)   =         3.141593         180.000000
	 D(13,11,15,19)   =         0.000000           0.000000
	 D(14,12,16,18)   =         3.141593         180.000000
	 D(14,12,16,20)   =         0.000000           0.000000


	        --- Internal Coordinate Step in ANG or DEG, aJ/ANG or AJ/DEG ---
	-------------------------------------------------------------------------------
	           Coordinate      Previous         Force          Change          New 
	           ----------      --------        ------          ------        ------
	               R(1,3)       1.42244        0.00004        0.00002       1.42246
	               R(1,6)       1.42104        0.00141        0.00018       1.42122
	              R(1,12)       1.49774       -0.00117       -0.00024       1.49750
	               R(2,4)       1.42244        0.00004        0.00002       1.42246
	               R(2,5)       1.42104        0.00141        0.00018       1.42122
	              R(2,11)       1.49774       -0.00117       -0.00024       1.49750
	               R(3,5)       1.40212        0.00040        0.00004       1.40216
	               R(3,7)       1.09856        0.00054        0.00010       1.09866
	               R(4,6)       1.40212        0.00040        0.00004       1.40216
	               R(4,8)       1.09856        0.00054        0.00010       1.09866
	               R(5,9)       1.09766       -0.00050       -0.00007       1.09759
	              R(6,10)       1.09766       -0.00050       -0.00007       1.09759
	             R(11,13)       1.10031        0.00088        0.00015       1.10046
	             R(11,15)       1.34449       -0.00231       -0.00026       1.34423
	             R(12,14)       1.10031        0.00088        0.00015       1.10046
	             R(12,16)       1.34449       -0.00231       -0.00026       1.34423
	             R(15,17)       1.09601        0.00001        0.00000       1.09601
	             R(15,19)       1.09603        0.00131        0.00023       1.09625
	             R(16,18)       1.09601        0.00001        0.00000       1.09601
	             R(16,20)       1.09603        0.00131        0.00023       1.09625
	             B(1,3,5)     121.33833        0.00000        0.01519     121.35352
	             B(1,3,7)     119.04025       -0.00000       -0.01846     119.02179
	             B(1,6,4)     120.84272        0.00000        0.00679     120.84950
	            B(1,6,10)     119.69875        0.00001        0.06455     119.76331
	           B(1,12,14)     114.41144        0.00001        0.01220     114.42364
	           B(1,12,16)     126.66136       -0.00001       -0.03761     126.62375
	             B(2,4,6)     121.33833        0.00000        0.01519     121.35352
	             B(2,4,8)     119.04025       -0.00000       -0.01846     119.02179
	             B(2,5,3)     120.84272        0.00000        0.00679     120.84950
	             B(2,5,9)     119.69875        0.00001        0.06455     119.76331
	           B(2,11,13)     114.41144        0.00001        0.01220     114.42364
	           B(2,11,15)     126.66136       -0.00001       -0.03761     126.62375
	             B(3,1,6)     117.81895       -0.00000       -0.02197     117.79697
	            B(3,1,12)     119.16354        0.00000        0.00224     119.16578
	             B(3,5,9)     119.45853       -0.00001       -0.07134     119.38719
	             B(4,2,5)     117.81895       -0.00000       -0.02197     117.79697
	            B(4,2,11)     119.16354        0.00000        0.00224     119.16578
	            B(4,6,10)     119.45853       -0.00001       -0.07134     119.38719
	            B(5,2,11)     123.01751        0.00000        0.01973     123.03724
	             B(5,3,7)     119.62142        0.00000        0.00327     119.62469
	            B(6,1,12)     123.01751        0.00000        0.01973     123.03724
	             B(6,4,8)     119.62142        0.00000        0.00327     119.62469
	          B(11,15,17)     122.67361       -0.00000       -0.00098     122.67263
	          B(11,15,19)     121.20646        0.00000       -0.00046     121.20599
	          B(12,16,18)     122.67361       -0.00000       -0.00098     122.67263
	          B(12,16,20)     121.20646        0.00000       -0.00046     121.20599
	          B(13,11,15)     118.92720        0.00001        0.02541     118.95261
	          B(14,12,16)     118.92720        0.00001        0.02541     118.95261
	          B(17,15,19)     116.11993        0.00000        0.00144     116.12138
	          B(18,16,20)     116.11993        0.00000        0.00144     116.12138
	           D(1,3,5,2)       0.00000       -0.00000        0.00000       0.00000
	           D(1,3,5,9)     180.00000       -0.00000        0.00000     180.00000
	           D(1,6,4,2)       0.00000       -0.00000        0.00000       0.00000
	           D(1,6,4,8)     180.00000       -0.00000        0.00000     180.00000
	        D(1,12,16,18)       0.00000        0.00000       -0.00000      -0.00000
	        D(1,12,16,20)     180.00000        0.00000        0.00000     180.00000
	          D(2,4,6,10)     180.00000       -0.00000        0.00000     180.00000
	           D(2,5,3,7)     180.00000        0.00000        0.00000     180.00000
	        D(2,11,15,17)       0.00000       -0.00000        0.00000       0.00000
	        D(2,11,15,19)     180.00000        0.00000        0.00000     180.00000
	           D(3,1,6,4)       0.00000        0.00000       -0.00000      -0.00000
	          D(3,1,6,10)     180.00000        0.00000        0.00000     180.00000
	         D(3,1,12,14)       0.00000       -0.00000       -0.00000      -0.00000
	         D(3,1,12,16)     180.00000       -0.00000        0.00000     180.00000
	           D(3,5,2,4)       0.00000        0.00000       -0.00000      -0.00000
	          D(3,5,2,11)     180.00000        0.00000        0.00000     180.00000
	           D(4,2,5,9)     180.00000        0.00000        0.00000     180.00000
	         D(4,2,11,13)       0.00000       -0.00000       -0.00000      -0.00000
	         D(4,2,11,15)     180.00000       -0.00000        0.00000     180.00000
	          D(4,6,1,12)     180.00000       -0.00000        0.00000     180.00000
	           D(5,2,4,6)       0.00000        0.00000       -0.00000      -0.00000
	           D(5,2,4,8)     180.00000       -0.00000        0.00000     180.00000
	         D(5,2,11,13)     180.00000       -0.00000        0.00000     180.00000
	         D(5,2,11,15)       0.00000       -0.00000       -0.00000      -0.00000
	           D(5,3,1,6)       0.00000       -0.00000        0.00000       0.00000
	          D(5,3,1,12)     180.00000        0.00000        0.00000     180.00000
	           D(6,1,3,7)     180.00000       -0.00000        0.00000     180.00000
	         D(6,1,12,14)     180.00000        0.00000        0.00000     180.00000
	         D(6,1,12,16)       0.00000        0.00000       -0.00000      -0.00000
	          D(6,4,2,11)     180.00000        0.00000        0.00000     180.00000
	          D(7,3,1,12)       0.00000        0.00000       -0.00000      -0.00000
	           D(7,3,5,9)       0.00000        0.00000        0.00000       0.00000
	          D(8,4,2,11)       0.00000       -0.00000       -0.00000      -0.00000
	          D(8,4,6,10)       0.00000       -0.00000        0.00000       0.00000
	          D(9,5,2,11)       0.00000        0.00000       -0.00000      -0.00000
	         D(10,6,1,12)       0.00000       -0.00000        0.00000       0.00000
	       D(13,11,15,17)     180.00000       -0.00000        0.00000     180.00000
	       D(13,11,15,19)       0.00000       -0.00000        0.00000       0.00000
	       D(14,12,16,18)     180.00000       -0.00000        0.00000     180.00000
	       D(14,12,16,20)       0.00000       -0.00000        0.00000       0.00000
	-------------------------------------------------------------------------------

	                                 ==> Convergence Check <==                                  
    
	Measures of convergence in internal coordinates in au.
    
	Criteria marked as inactive (o), active & met (*), and active & unmet ( ).

	----------------------------------------------------------------------------------------------
	   Step    Total Energy     Delta E     Max Force     RMS Force      Max Disp      RMS Disp   
	----------------------------------------------------------------------------------------------
	  Convergence Criteria     1.00e-06 *    3.00e-04 *             o    1.20e-03 *             o
	----------------------------------------------------------------------------------------------
	     2    -382.30824777   -2.34e-05      2.80e-04 *    7.78e-05 o    1.25e-03      3.28e-04 o  ~
	----------------------------------------------------------------------------------------------

Next Geometry in Ang 
	Fragment 1 (Ang)

	    C  -1.4172446802   0.2284476383  -0.0000000000
	    C   1.4172446802  -0.2284476383   0.0000000000
	    C  -0.4952692540   1.3116636427   0.0000000000
	    C   0.4952692540  -1.3116636427   0.0000000000
	    C   0.8894413008   1.0911297977   0.0000000000
	    C  -0.8894413008  -1.0911297977   0.0000000000
	    H  -0.8813834581   2.3402356835   0.0000000000
	    H   0.8813834581  -2.3402356835  -0.0000000000
	    H   1.5717536670   1.9508737791   0.0000000000
	    H  -1.5717536670  -1.9508737791   0.0000000000
	    C   2.8860403432  -0.5202593202   0.0000000000
	    C  -2.8860403432   0.5202593202   0.0000000000
	    H   3.1370840843  -1.5917020639   0.0000000000
	    H  -3.1370840843   1.5917020639   0.0000000000
	    C   3.8828095933   0.3816361428  -0.0000000000
	    C  -3.8828095933  -0.3816361428  -0.0000000000
	    H   3.7025422653   1.4627244290  -0.0000000000
	    H  -3.7025422653  -1.4627244290  -0.0000000000
	    H   4.9330746937   0.0674479903  -0.0000000000
	    H  -4.9330746937  -0.0674479903  -0.0000000000


    Structure for next step:
    Molecular point group: c2h
    Full point group: C2h

    Geometry (in Angstrom), charge = 0, multiplicity = 1:

    C           -1.417244680172     0.228447638334    -0.000000000000
    C            1.417244680172    -0.228447638334     0.000000000000
    C           -0.495269254025     1.311663642708     0.000000000000
    C            0.495269254025    -1.311663642708     0.000000000000
    C            0.889441300796     1.091129797673     0.000000000000
    C           -0.889441300796    -1.091129797673     0.000000000000
    H           -0.881383458112     2.340235683546     0.000000000000
    H            0.881383458112    -2.340235683546     0.000000000000
    H            1.571753666984     1.950873779075     0.000000000000
    H           -1.571753666984    -1.950873779075     0.000000000000
    C            2.886040343209    -0.520259320224     0.000000000000
    C           -2.886040343209     0.520259320224    -0.000000000000
    H            3.137084084314    -1.591702063863     0.000000000000
    H           -3.137084084314     1.591702063863    -0.000000000000
    C            3.882809593328     0.381636142773     0.000000000000
    C           -3.882809593328    -0.381636142773     0.000000000000
    H            3.702542265316     1.462724428986     0.000000000000
    H           -3.702542265316    -1.462724428986     0.000000000000
    H            4.933074693682     0.067447990335    -0.000000000000
    H           -4.933074693682    -0.067447990335    -0.000000000000


Scratch directory: /tmp/
gradient() will perform analytic gradient computation.

*** tstart() called on osmium
*** at Sun Jun 11 22:51:39 2023

   => Loading Basis Set <=

    Name: STO-3G
    Role: ORBITAL
    Keyword: BASIS
    atoms 1-6, 11-12, 15-16  entry C          line    61 file /home/eric/.pyenv/versions/miniforge3-4.10.1-3/envs/psi4-dev/share/psi4/basis/sto-3g.gbs 
    atoms 7-10, 13-14, 17-20 entry H          line    19 file /home/eric/.pyenv/versions/miniforge3-4.10.1-3/envs/psi4-dev/share/psi4/basis/sto-3g.gbs 


         ---------------------------------------------------------
                                   SCF
               by Justin Turney, Rob Parrish, Andy Simmonett
                          and Daniel G. A. Smith
                              RKS Reference
                        1 Threads,    500 MiB Core
         ---------------------------------------------------------

  ==> Geometry <==

    Molecular point group: c2h
    Full point group: C2h

    Geometry (in Angstrom), charge = 0, multiplicity = 1:

       Center              X                  Y                   Z               Mass       
    ------------   -----------------  -----------------  -----------------  -----------------
         C           -1.417244680172     0.228447638334     0.000000000000    12.000000000000
         C            1.417244680172    -0.228447638334     0.000000000000    12.000000000000
         C           -0.495269254025     1.311663642708     0.000000000000    12.000000000000
         C            0.495269254025    -1.311663642708     0.000000000000    12.000000000000
         C            0.889441300796     1.091129797673     0.000000000000    12.000000000000
         C           -0.889441300796    -1.091129797673     0.000000000000    12.000000000000
         H           -0.881383458112     2.340235683546     0.000000000000     1.007825032230
         H            0.881383458112    -2.340235683546     0.000000000000     1.007825032230
         H            1.571753666984     1.950873779075     0.000000000000     1.007825032230
         H           -1.571753666984    -1.950873779075     0.000000000000     1.007825032230
         C            2.886040343209    -0.520259320224     0.000000000000    12.000000000000
         C           -2.886040343209     0.520259320224     0.000000000000    12.000000000000
         H            3.137084084314    -1.591702063863    -0.000000000000     1.007825032230
         H           -3.137084084314     1.591702063863     0.000000000000     1.007825032230
         C            3.882809593328     0.381636142773     0.000000000000    12.000000000000
         C           -3.882809593328    -0.381636142773     0.000000000000    12.000000000000
[...]
       9       -0.000003987604     0.000002024559     0.000000000000
      10        0.000003987604    -0.000002024559     0.000000000000
      11        0.000049915310     0.000082725692     0.000000000000
      12       -0.000049915310    -0.000082725692     0.000000000000
      13       -0.000005709131    -0.000018415636     0.000000000000
      14        0.000005709131     0.000018415636     0.000000000000
      15       -0.000103975470    -0.000033106048     0.000000000000
      16        0.000103975470     0.000033106048     0.000000000000
      17        0.000011311273     0.000012043455     0.000000000000
      18       -0.000011311273    -0.000012043455     0.000000000000
      19        0.000014661660    -0.000016223592     0.000000000000
      20       -0.000014661660     0.000016223592     0.000000000000


*** tstop() called on osmium at Sun Jun 11 22:51:53 2023
Module time:
	user time   =       4.36 seconds =       0.07 minutes
	system time =       0.03 seconds =       0.00 minutes
	total time  =          5 seconds =       0.08 minutes
Total time:
	user time   =      44.86 seconds =       0.75 minutes
	system time =       0.43 seconds =       0.01 minutes
	total time  =         46 seconds =       0.77 minutes

    			-----------------------------------------

    			 OPTKING 3.0: for geometry optimizations 

    			     By R.A. King, Bethel University     

    			        with contributions from          

    			    A.V. Copan, J. Cayton, A. Heide      

    			-----------------------------------------

    
	                            ===> Fragment 1 <== 

	 Z (Atomic Numbers)          Masses                          Geom                  
	       6.000000            12.000000         -2.67820430  0.43170347  0.00000000   
	       6.000000            12.000000          2.67820430 -0.43170347  0.00000000   
	       6.000000            12.000000         -0.93592325  2.47868505  0.00000000   
	       6.000000            12.000000          0.93592325 -2.47868505  0.00000000   
	       6.000000            12.000000          1.68080046  2.06193648  0.00000000   
	       6.000000            12.000000         -1.68080046 -2.06193648  0.00000000   
	       1.000000             1.007825         -1.66557335  4.42240451  0.00000000   
	       1.000000             1.007825          1.66557335 -4.42240451  0.00000000   
	       1.000000             1.007825          2.97018397  3.68661715  0.00000000   
	       1.000000             1.007825         -2.97018397 -3.68661715  0.00000000   
	       6.000000            12.000000          5.45382584 -0.98314763  0.00000000   
	       6.000000            12.000000         -5.45382584  0.98314763  0.00000000   
	       1.000000             1.007825          5.92822975 -3.00788097 -0.00000000   
	       1.000000             1.007825         -5.92822975  3.00788097  0.00000000   
	       6.000000            12.000000          7.33744673  0.72118779  0.00000000   
	       6.000000            12.000000         -7.33744673 -0.72118779  0.00000000   
	       1.000000             1.007825          6.99679085  2.76414857  0.00000000   
	       1.000000             1.007825         -6.99679085 -2.76414857  0.00000000   
	       1.000000             1.007825          9.32216013  0.12745823  0.00000000   
	       1.000000             1.007825         -9.32216013 -0.12745823 -0.00000000   

	 - Coordinate -           - BOHR/RAD -       - ANG/DEG -
	 R(1,3)           =         2.688062           1.422461
	 R(1,6)           =         2.685713           1.421218
	 R(1,12)          =         2.829870           1.497503
	 R(2,4)           =         2.688062           1.422461
	 R(2,5)           =         2.685713           1.421218
	 R(2,11)          =         2.829870           1.497503
	 R(3,5)           =         2.649702           1.402162
	 R(3,7)           =         2.076159           1.098656
	 R(4,6)           =         2.649702           1.402162
	 R(4,8)           =         2.076159           1.098656
	 R(5,9)           =         2.074150           1.097593
	 R(6,10)          =         2.074150           1.097593
	 R(11,13)         =         2.079568           1.100460
	 R(11,15)         =         2.540234           1.344234
	 R(12,14)         =         2.079568           1.100460
	 R(12,16)         =         2.540234           1.344234
	 R(15,17)         =         2.071168           1.096015
	 R(15,19)         =         2.071618           1.096253
	 R(16,18)         =         2.071168           1.096015
	 R(16,20)         =         2.071618           1.096253
	 B(1,3,5)         =         2.118019         121.353522
	 B(1,3,7)         =         2.077322         119.021789
	 B(1,6,4)         =         2.109222         120.849504
	 B(1,6,10)        =         2.090264         119.763308
	 B(1,12,14)       =         1.997069         114.423644
	 B(1,12,16)       =         2.210001         126.623747
	 B(2,4,6)         =         2.118019         121.353522
	 B(2,4,8)         =         2.077322         119.021789
	 B(2,5,3)         =         2.109222         120.849504
	 B(2,5,9)         =         2.090264         119.763308
	 B(2,11,13)       =         1.997069         114.423644
	 B(2,11,15)       =         2.210001         126.623747
	 B(3,1,6)         =         2.055945         117.796975
	 B(3,1,12)        =         2.079835         119.165780
	 B(3,5,9)         =         2.083700         119.387188
	 B(4,2,5)         =         2.055945         117.796975
	 B(4,2,11)        =         2.079835         119.165780
	 B(4,6,10)        =         2.083700         119.387188
	 B(5,2,11)        =         2.147405         123.037245
	 B(5,3,7)         =         2.087845         119.624689
	 B(6,1,12)        =         2.147405         123.037245
	 B(6,4,8)         =         2.087845         119.624689
	 B(11,15,17)      =         2.141041         122.672630
	 B(11,15,19)      =         2.115444         121.205995
	 B(12,16,18)      =         2.141041         122.672630
	 B(12,16,20)      =         2.115444         121.205995
	 B(13,11,15)      =         2.076115         118.952608
	 B(14,12,16)      =         2.076115         118.952608
	 B(17,15,19)      =         2.026700         116.121375
	 B(18,16,20)      =         2.026700         116.121375
	 D(1,3,5,2)       =         0.000000           0.000000
	 D(1,3,5,9)       =         3.141593         180.000000
	 D(1,6,4,2)       =         0.000000           0.000000
	 D(1,6,4,8)       =         3.141593         180.000000
	 D(1,12,16,18)    =         0.000000           0.000000
	 D(1,12,16,20)    =         3.141593         180.000000
	 D(2,4,6,10)      =         3.141593         180.000000
	 D(2,5,3,7)       =         3.141593         180.000000
	 D(2,11,15,17)    =         0.000000           0.000000
	 D(2,11,15,19)    =         3.141593         180.000000
	 D(3,1,6,4)       =         0.000000           0.000000
	 D(3,1,6,10)      =         3.141593         180.000000
	 D(3,1,12,14)     =         0.000000           0.000000
	 D(3,1,12,16)     =         3.141593         180.000000
	 D(3,5,2,4)       =        -0.000000          -0.000000
	 D(3,5,2,11)      =         3.141593         180.000000
	 D(4,2,5,9)       =         3.141593         180.000000
	 D(4,2,11,13)     =         0.000000           0.000000
	 D(4,2,11,15)     =         3.141593         180.000000
	 D(4,6,1,12)      =         3.141593         180.000000
	 D(5,2,4,6)       =         0.000000           0.000000
	 D(5,2,4,8)       =         3.141593         180.000000
	 D(5,2,11,13)     =         3.141593         180.000000
	 D(5,2,11,15)     =        -0.000000          -0.000000
	 D(5,3,1,6)       =        -0.000000          -0.000000
	 D(5,3,1,12)      =         3.141593         180.000000
	 D(6,1,3,7)       =         3.141593         180.000000
	 D(6,1,12,14)     =         3.141593         180.000000
	 D(6,1,12,16)     =         0.000000           0.000000
	 D(6,4,2,11)      =         3.141593         180.000000
	 D(7,3,1,12)      =         0.000000           0.000000
	 D(7,3,5,9)       =        -0.000000          -0.000000
	 D(8,4,2,11)      =        -0.000000          -0.000000
	 D(8,4,6,10)      =         0.000000           0.000000
	 D(9,5,2,11)      =         0.000000           0.000000
	 D(10,6,1,12)     =         0.000000           0.000000
	 D(13,11,15,17)   =         3.141593         180.000000
	 D(13,11,15,19)   =        -0.000000          -0.000000
	 D(14,12,16,18)   =         3.141593         180.000000
	 D(14,12,16,20)   =         0.000000           0.000000


	        --- Internal Coordinate Step in ANG or DEG, aJ/ANG or AJ/DEG ---
	-------------------------------------------------------------------------------
	           Coordinate      Previous         Force          Change          New 
	           ----------      --------        ------          ------        ------
	               R(1,3)       1.42246        0.00007        0.00001       1.42247
	               R(1,6)       1.42122       -0.00023       -0.00002       1.42119
	              R(1,12)       1.49750        0.00030        0.00005       1.49755
	               R(2,4)       1.42246        0.00007        0.00001       1.42247
	               R(2,5)       1.42122       -0.00023       -0.00002       1.42119
	              R(2,11)       1.49750        0.00030        0.00005       1.49755
	               R(3,5)       1.40216        0.00008        0.00001       1.40218
	               R(3,7)       1.09866       -0.00010       -0.00001       1.09864
	               R(4,6)       1.40216        0.00008        0.00001       1.40218
	               R(4,8)       1.09866       -0.00010       -0.00001       1.09864
	               R(5,9)       1.09759        0.00001       -0.00000       1.09759
	              R(6,10)       1.09759        0.00001       -0.00000       1.09759
	             R(11,13)       1.10046       -0.00015       -0.00002       1.10044
	             R(11,15)       1.34423        0.00072        0.00007       1.34430
	             R(12,14)       1.10046       -0.00015       -0.00002       1.10044
	             R(12,16)       1.34423        0.00072        0.00007       1.34430
	             R(15,17)       1.09601       -0.00006       -0.00001       1.09600
	             R(15,19)       1.09625       -0.00016       -0.00002       1.09623
	             R(16,18)       1.09601       -0.00006       -0.00001       1.09600
	             R(16,20)       1.09625       -0.00016       -0.00002       1.09623
	             B(1,3,5)     121.35352        0.00000        0.00454     121.35806
	             B(1,3,7)     119.02179        0.00000        0.00121     119.02299
	             B(1,6,4)     120.84950       -0.00000       -0.00032     120.84919
	            B(1,6,10)     119.76331       -0.00000        0.00073     119.76404
	           B(1,12,14)     114.42364        0.00000        0.00728     114.43092
	           B(1,12,16)     126.62375       -0.00000       -0.00589     126.61786
	             B(2,4,6)     121.35352        0.00000        0.00454     121.35806
	             B(2,4,8)     119.02179        0.00000        0.00121     119.02299
	             B(2,5,3)     120.84950       -0.00000       -0.00032     120.84919
	             B(2,5,9)     119.76331       -0.00000        0.00073     119.76404
	           B(2,11,13)     114.42364        0.00000        0.00728     114.43092
	           B(2,11,15)     126.62375       -0.00000       -0.00589     126.61786
	             B(3,1,6)     117.79697       -0.00000       -0.00422     117.79275
	            B(3,1,12)     119.16578        0.00000        0.00381     119.16959
	             B(3,5,9)     119.38719        0.00000       -0.00041     119.38677
	             B(4,2,5)     117.79697       -0.00000       -0.00422     117.79275
	            B(4,2,11)     119.16578        0.00000        0.00381     119.16959
	            B(4,6,10)     119.38719        0.00000       -0.00041     119.38677
	            B(5,2,11)     123.03724        0.00000        0.00041     123.03766
	             B(5,3,7)     119.62469       -0.00000       -0.00575     119.61894
	            B(6,1,12)     123.03724        0.00000        0.00041     123.03766
	             B(6,4,8)     119.62469       -0.00000       -0.00575     119.61894
	          B(11,15,17)     122.67263       -0.00000       -0.01043     122.66220
	          B(11,15,19)     121.20599        0.00000        0.01025     121.21625
	          B(12,16,18)     122.67263       -0.00000       -0.01043     122.66220
	          B(12,16,20)     121.20599        0.00000        0.01025     121.21625
	          B(13,11,15)     118.95261       -0.00000       -0.00139     118.95122
	          B(14,12,16)     118.95261       -0.00000       -0.00139     118.95122
	          B(17,15,19)     116.12138       -0.00000        0.00018     116.12156
	          B(18,16,20)     116.12138       -0.00000        0.00018     116.12156
	           D(1,3,5,2)       0.00000        0.00000        0.00000       0.00000
	           D(1,3,5,9)     180.00000        0.00000        0.00000     180.00000
	           D(1,6,4,2)       0.00000        0.00000       -0.00000      -0.00000
	           D(1,6,4,8)     180.00000        0.00000        0.00000     180.00000
	        D(1,12,16,18)       0.00000       -0.00000        0.00000       0.00000
	        D(1,12,16,20)     180.00000       -0.00000        0.00000     180.00000
	          D(2,4,6,10)     180.00000       -0.00000        0.00000     180.00000
	           D(2,5,3,7)     180.00000       -0.00000        0.00000     180.00000
	        D(2,11,15,17)       0.00000       -0.00000       -0.00000      -0.00000
	        D(2,11,15,19)     180.00000        0.00000        0.00000     180.00000
	           D(3,1,6,4)       0.00000       -0.00000        0.00000       0.00000
	          D(3,1,6,10)     180.00000        0.00000        0.00000     180.00000
	         D(3,1,12,14)       0.00000       -0.00000       -0.00000      -0.00000
	         D(3,1,12,16)     180.00000       -0.00000        0.00000     180.00000
	           D(3,5,2,4)      -0.00000       -0.00000        0.00000      -0.00000
	          D(3,5,2,11)     180.00000        0.00000        0.00000     180.00000
	           D(4,2,5,9)     180.00000       -0.00000        0.00000     180.00000
	         D(4,2,11,13)       0.00000        0.00000       -0.00000      -0.00000
	         D(4,2,11,15)     180.00000       -0.00000        0.00000     180.00000
	          D(4,6,1,12)     180.00000       -0.00000        0.00000     180.00000
	           D(5,2,4,6)       0.00000       -0.00000        0.00000       0.00000
	           D(5,2,4,8)     180.00000        0.00000        0.00000     180.00000
	         D(5,2,11,13)     180.00000       -0.00000        0.00000     180.00000
	         D(5,2,11,15)      -0.00000       -0.00000        0.00000       0.00000
	           D(5,3,1,6)      -0.00000       -0.00000        0.00000      -0.00000
	          D(5,3,1,12)     180.00000        0.00000        0.00000     180.00000
	           D(6,1,3,7)     180.00000        0.00000        0.00000     180.00000
	         D(6,1,12,14)     180.00000       -0.00000        0.00000     180.00000
	         D(6,1,12,16)       0.00000       -0.00000       -0.00000      -0.00000
	          D(6,4,2,11)     180.00000       -0.00000        0.00000     180.00000
	          D(7,3,1,12)       0.00000        0.00000        0.00000       0.00000
	           D(7,3,5,9)      -0.00000       -0.00000        0.00000       0.00000
	          D(8,4,2,11)      -0.00000       -0.00000        0.00000       0.00000
	          D(8,4,6,10)       0.00000       -0.00000       -0.00000      -0.00000
	          D(9,5,2,11)       0.00000        0.00000       -0.00000      -0.00000
	         D(10,6,1,12)       0.00000        0.00000       -0.00000      -0.00000
	       D(13,11,15,17)     180.00000       -0.00000        0.00000     180.00000
	       D(13,11,15,19)      -0.00000       -0.00000        0.00000       0.00000
	       D(14,12,16,18)     180.00000        0.00000        0.00000     180.00000
	       D(14,12,16,20)       0.00000        0.00000        0.00000       0.00000
	-------------------------------------------------------------------------------

	                                 ==> Convergence Check <==                                  
    
	Measures of convergence in internal coordinates in au.
    
	Criteria marked as inactive (o), active & met (*), and active & unmet ( ).

	----------------------------------------------------------------------------------------------
	   Step    Total Energy     Delta E     Max Force     RMS Force      Max Disp      RMS Disp   
	----------------------------------------------------------------------------------------------
	  Convergence Criteria     1.00e-06 *    3.00e-04 *             o    1.20e-03 *             o
	----------------------------------------------------------------------------------------------
	     3    -382.30824882   -1.05e-06      8.77e-05 *    1.81e-05 o    1.82e-04 *    5.78e-05 o  ~
	----------------------------------------------------------------------------------------------

Next Geometry in Ang 
	Fragment 1 (Ang)

	    C  -1.4172838363   0.2285031059   0.0000000000
	    C   1.4172838363  -0.2285031059  -0.0000000000
	    C  -0.4951932558   1.3116326614   0.0000000000
	    C   0.4951932558  -1.3116326614   0.0000000000
	    C   0.8895253824   1.0910666108   0.0000000000
	    C  -0.8895253824  -1.0910666108   0.0000000000
	    H  -0.8811767361   2.3402380811  -0.0000000000
	    H   0.8811767361  -2.3402380811   0.0000000000
	    H   1.5718481586   1.9507980159   0.0000000000
	    H  -1.5718481586  -1.9507980159   0.0000000000
	    C   2.8861153590  -0.5203746246  -0.0000000000
	    C  -2.8861153590   0.5203746246  -0.0000000000
	    H   3.1372536176  -1.5917747045  -0.0000000000
	    H  -3.1372536176   1.5917747045   0.0000000000
	    C   3.8828731115   0.3816341036  -0.0000000000
	    C  -3.8828731115  -0.3816341036  -0.0000000000
	    H   3.7023369036   1.4626667424  -0.0000000000
	    H  -3.7023369036  -1.4626667424  -0.0000000000
	    H   4.9331979613   0.0677108518  -0.0000000000
	    H  -4.9331979613  -0.0677108518  -0.0000000000


    Final optimized geometry and variables:
    Molecular point group: c2h
    Full point group: C2h

    Geometry (in Angstrom), charge = 0, multiplicity = 1:

    C           -1.417244680172     0.228447638334     0.000000000000
    C            1.417244680172    -0.228447638334     0.000000000000
    C           -0.495269254025     1.311663642708     0.000000000000
    C            0.495269254025    -1.311663642708     0.000000000000
    C            0.889441300796     1.091129797673     0.000000000000
    C           -0.889441300796    -1.091129797673     0.000000000000
    H           -0.881383458112     2.340235683546     0.000000000000
    H            0.881383458112    -2.340235683546     0.000000000000
    H            1.571753666984     1.950873779075     0.000000000000
    H           -1.571753666984    -1.950873779075     0.000000000000
    C            2.886040343209    -0.520259320224     0.000000000000
    C           -2.886040343209     0.520259320224     0.000000000000
    H            3.137084084314    -1.591702063863     0.000000000000
    H           -3.137084084314     1.591702063863    -0.000000000000
    C            3.882809593328     0.381636142773     0.000000000000
    C           -3.882809593328    -0.381636142773     0.000000000000
    H            3.702542265316     1.462724428986     0.000000000000
    H           -3.702542265316    -1.462724428986     0.000000000000
    H            4.933074693682     0.067447990335    -0.000000000000
    H           -4.933074693682    -0.067447990335     0.000000000000


    Psi4 stopped on: Sunday, 11 June 2023 10:51PM
    Psi4 wall time for execution: 0:00:46.28

*** Psi4 exiting successfully. Buy a developer a beer!
