
    -----------------------------------------------------------------------
          Psi4: An Open-Source Ab Initio Electronic Structure Package
                               Psi4 1.7 release

                         Git: Rev {HEAD} 6ce35a5 


    D. G. A. Smith, L. A. Burns, A. C. Simmonett, R. M. Parrish,
    M. C. Schieber, R. Galvelis, P. Kraus, H. Kruse, R. Di Remigio,
    A. Alenaizan, A. M. James, S. Lehtola, J. P. Misiewicz, M. Scheurer,
    R. A. Shaw, J. B. Schriber, Y. Xie, Z. L. Glick, D. A. Sirianni,
    J. S. O'Brien, J. M. Waldrop, A. Kumar, E. G. Hohenstein,
    B. P. Pritchard, B. R. Brooks, H. F. Schaefer III, A. Yu. Sokolov,
    K. Patkowski, A. E. DePrince III, U. Bozkaya, R. A. King,
    F. A. Evangelista, J. M. Turney, T. D. Crawford, C. D. Sherrill,
    J. Chem. Phys. 152(18) 184108 (2020). https://doi.org/10.1063/5.0006002

                            Additional Code Authors
    E. T. Seidl, C. L. Janssen, E. F. Valeev, M. L. Leininger,
    J. F. Gonthier, R. M. Richard, H. R. McAlexander, M. Saitow, X. Wang,
    P. Verma, M. H. Lechner, A. Jiang, S. Behnle, A. G. Heide,
    M. F. Herbst, and D. L. Poole

             Previous Authors, Complete List of Code Contributors,
                       and Citations for Specific Modules
    https://github.com/psi4/psi4/blob/master/codemeta.json
    https://github.com/psi4/psi4/graphs/contributors
    http://psicode.org/psi4manual/master/introduction.html#citing-psifour

    -----------------------------------------------------------------------


    Psi4 started on: Sunday, 11 June 2023 10:51PM

    Process ID: 69076
    Host:       osmium
    PSIDATADIR: /home/eric/.pyenv/versions/miniforge3-4.10.1-3/envs/psi4-dev/share/psi4
    Memory:     500.0 MiB
    Threads:    1
    
  ==> Input File <==

--------------------------------------------------------------------------
molecule dvb {
    0 1
    C    -1.4152533224   0.2302217854   0.0000000000
    C     1.4152533224  -0.2302217854   0.0000000000
    C    -0.4951331558   1.3144608674   0.0000000000
    C     0.4951331558  -1.3144608674   0.0000000000
    C     0.8894090436   1.0909493743   0.0000000000
    C    -0.8894090436  -1.0909493743   0.0000000000
    H    -0.8795511985   2.3437343748   0.0000000000
    H     0.8795511985  -2.3437343748   0.0000000000
    H     1.5779041557   1.9450061275   0.0000000000
    H    -1.5779041557  -1.9450061275   0.0000000000
    C     2.8845844962  -0.5210893778   0.0000000000
    C    -2.8845844962   0.5210893778   0.0000000000
    H     3.1403356810  -1.5919605685   0.0000000000
    H    -3.1403356810   1.5919605685   0.0000000000
    C     3.8800428103   0.3822535424   0.0000000000
    C    -3.8800428103  -0.3822535424   0.0000000000
    H     3.6946765858   1.4624389570   0.0000000000
    H    -3.6946765858  -1.4624389570   0.0000000000
    H     4.9316453546   0.0711049543   0.0000000000
    H    -4.9316453546  -0.0711049543   0.0000000000
}

set {
    basis sto-3g
    print_basis true
    print_mos true
}

b3lyp_e, b3lyp_wfn = energy('b3lyp', return_wfn=True)
oeprop(b3lyp_wfn, 'MULLIKEN_CHARGES', 'LOWDIN_CHARGES', 'MULTIPOLES(5)')
--------------------------------------------------------------------------

Scratch directory: /tmp/

*** tstart() called on osmium
*** at Sun Jun 11 22:51:07 2023

   => Loading Basis Set <=

    Name: STO-3G
    Role: ORBITAL
    Keyword: BASIS
    atoms 1-6, 11-12, 15-16  entry C          line    61 file /home/eric/.pyenv/versions/miniforge3-4.10.1-3/envs/psi4-dev/share/psi4/basis/sto-3g.gbs 
    atoms 7-10, 13-14, 17-20 entry H          line    19 file /home/eric/.pyenv/versions/miniforge3-4.10.1-3/envs/psi4-dev/share/psi4/basis/sto-3g.gbs 


         ---------------------------------------------------------
                                   SCF
               by Justin Turney, Rob Parrish, Andy Simmonett
                          and Daniel G. A. Smith
                              RKS Reference
                        1 Threads,    500 MiB Core
         ---------------------------------------------------------

  ==> Geometry <==

    Molecular point group: c2h
    Full point group: C2h

    Geometry (in Angstrom), charge = 0, multiplicity = 1:

       Center              X                  Y                   Z               Mass       
    ------------   -----------------  -----------------  -----------------  -----------------
         C           -1.415253322400     0.230221785400     0.000000000000    12.000000000000
         C            1.415253322400    -0.230221785400     0.000000000000    12.000000000000
         C           -0.495133155800     1.314460867400     0.000000000000    12.000000000000
         C            0.495133155800    -1.314460867400     0.000000000000    12.000000000000
         C            0.889409043600     1.090949374300     0.000000000000    12.000000000000
         C           -0.889409043600    -1.090949374300     0.000000000000    12.000000000000
         H           -0.879551198500     2.343734374800     0.000000000000     1.007825032230
         H            0.879551198500    -2.343734374800     0.000000000000     1.007825032230
         H            1.577904155700     1.945006127500     0.000000000000     1.007825032230
         H           -1.577904155700    -1.945006127500     0.000000000000     1.007825032230
         C            2.884584496200    -0.521089377800     0.000000000000    12.000000000000
         C           -2.884584496200     0.521089377800     0.000000000000    12.000000000000
         H            3.140335681000    -1.591960568500     0.000000000000     1.007825032230
         H           -3.140335681000     1.591960568500     0.000000000000     1.007825032230
         C            3.880042810300     0.382253542400     0.000000000000    12.000000000000
         C           -3.880042810300    -0.382253542400     0.000000000000    12.000000000000
         H            3.694676585800     1.462438957000     0.000000000000     1.007825032230
         H           -3.694676585800    -1.462438957000     0.000000000000     1.007825032230
         H            4.931645354600     0.071104954300     0.000000000000     1.007825032230
         H           -4.931645354600    -0.071104954300     0.000000000000     1.007825032230

  Running in c2h symmetry.

  Rotational constants: A =      0.15403  B =      0.02287  C =      0.01992 [cm^-1]
  Rotational constants: A =   4617.84335  B =    685.76183  C =    597.09209 [MHz]
  Nuclear repulsion =  445.936979867057005

  Charge       = 0
  Multiplicity = 1
  Electrons    = 70
  Nalpha       = 35
  Nbeta        = 35

  ==> Algorithm <==

  SCF Algorithm Type is DF.
  DIIS enabled.
  MOM disabled.
  Fractional occupation disabled.
  Guess Type is SAD.
  Energy threshold   = 1.00e-06
  Density threshold  = 1.00e-06
  Integral threshold = 1.00e-12

  ==> Primary Basis <==

  Basis Set: STO-3G
    Blend: STO-3G
    Number of shells: 40
    Number of basis functions: 60
    Number of Cartesian functions: 60
    Spherical Harmonics?: true
    Max angular momentum: 1

  ==> DFT Potential <==

   => LibXC <=

    Version 5.2.3
    S. Lehtola, C. Steigemann, M. J. Oliveira, and M. A. Marques, SoftwareX 7, 1 (2018) (10.1016/j.softx.2017.11.002)

   => Composite Functional: B3LYP <= 

    B3LYP Hyb-GGA Exchange-Correlation Functional

    P. J. Stephens, F. J. Devlin, C. F. Chabalowski, and M. J. Frisch, J. Phys. Chem. 98, 11623 (1994) (10.1021/j100096a001)

    Deriv               =              1
    GGA                 =           TRUE
    Meta                =          FALSE

    Exchange Hybrid     =           TRUE
    MP2 Hybrid          =          FALSE

   => Exchange Functionals <=

    0.0800   Slater exchange
    0.7200         Becke 88

   => Exact (HF) Exchange <=

    0.2000               HF 

   => Correlation Functionals <=

    0.1900   Vosko, Wilk & Nusair (VWN5_RPA)
    0.8100   Lee, Yang & Parr

   => LibXC Density Thresholds  <==

    XC_HYB_GGA_XC_B3LYP:  1.00E-15 

   => Molecular Quadrature <=

    Radial Scheme          =       TREUTLER
    Pruning Scheme         =           NONE
    Nuclear Scheme         =       TREUTLER

    Blocking Scheme        =         OCTREE
    BS radius alpha        =              1
    Pruning alpha          =              1
    Radial Points          =             75
    Spherical Points       =            302
    Total Points           =         417002
    Total Blocks           =           3082
    Max Points             =            256
    Max Functions          =             56
    Weights Tolerance      =       1.00E-15

   => Loading Basis Set <=

    Name: (STO-3G AUX)
    Role: JKFIT
    Keyword: DF_BASIS_SCF
    atoms 1-6, 11-12, 15-16  entry C          line   198 file /home/eric/.pyenv/versions/miniforge3-4.10.1-3/envs/psi4-dev/share/psi4/basis/def2-universal-jkfit.gbs 
    atoms 7-10, 13-14, 17-20 entry H          line    18 file /home/eric/.pyenv/versions/miniforge3-4.10.1-3/envs/psi4-dev/share/psi4/basis/def2-universal-jkfit.gbs 

  -AO BASIS SET INFORMATION:
    Name                   = STO-3G
    Blend                  = STO-3G
    Total number of shells = 40
    Number of primitives   = 120
    Number of AO           = 60
    Number of SO           = 60
    Maximum AM             = 1
    Spherical Harmonics    = TRUE

  -Contraction Scheme:
    Atom   Type   All Primitives // Shells:
   ------ ------ --------------------------
       1     C     6s 3p // 2s 1p 
       2     C     6s 3p // 2s 1p 
       3     C     6s 3p // 2s 1p 
       4     C     6s 3p // 2s 1p 
       5     C     6s 3p // 2s 1p 
       6     C     6s 3p // 2s 1p 
       7     H     3s // 1s 
       8     H     3s // 1s 
       9     H     3s // 1s 
      10     H     3s // 1s 
      11     C     6s 3p // 2s 1p 
      12     C     6s 3p // 2s 1p 
      13     H     3s // 1s 
      14     H     3s // 1s 
      15     C     6s 3p // 2s 1p 
      16     C     6s 3p // 2s 1p 
      17     H     3s // 1s 
      18     H     3s // 1s 
      19     H     3s // 1s 
      20     H     3s // 1s 

  ==> AO Basis Functions <==

    [ STO-3G ]
    spherical
    ****
    C   1
    S   3 1.00
                        71.61683700           0.15432897
                        13.04509600           0.53532814
                         3.53051220           0.44463454
    S   3 1.00
                         2.94124940          -0.09996723
                         0.68348310           0.39951283
                         0.22228990           0.70011547
    P   3 1.00
                         2.94124940           0.15591627
                         0.68348310           0.60768372
                         0.22228990           0.39195739
    ****
    C   3
    S   3 1.00
                        71.61683700           0.15432897
                        13.04509600           0.53532814
                         3.53051220           0.44463454
    S   3 1.00
                         2.94124940          -0.09996723
                         0.68348310           0.39951283
                         0.22228990           0.70011547
    P   3 1.00
                         2.94124940           0.15591627
                         0.68348310           0.60768372
                         0.22228990           0.39195739
    ****
    C   5
    S   3 1.00
                        71.61683700           0.15432897
                        13.04509600           0.53532814
                         3.53051220           0.44463454
    S   3 1.00
                         2.94124940          -0.09996723
                         0.68348310           0.39951283
                         0.22228990           0.70011547
    P   3 1.00
                         2.94124940           0.15591627
                         0.68348310           0.60768372
                         0.22228990           0.39195739
    ****
    H   7
    S   3 1.00
                         3.42525091           0.15432897
                         0.62391373           0.53532814
                         0.16885540           0.44463454
    ****
    H   9
    S   3 1.00
                         3.42525091           0.15432897
                         0.62391373           0.53532814
                         0.16885540           0.44463454
    ****
    C  11
    S   3 1.00
                        71.61683700           0.15432897
                        13.04509600           0.53532814
                         3.53051220           0.44463454
    S   3 1.00
                         2.94124940          -0.09996723
                         0.68348310           0.39951283
                         0.22228990           0.70011547
    P   3 1.00
                         2.94124940           0.15591627
                         0.68348310           0.60768372
                         0.22228990           0.39195739
    ****
    H  13
    S   3 1.00
                         3.42525091           0.15432897
                         0.62391373           0.53532814
                         0.16885540           0.44463454
    ****
    C  15
    S   3 1.00
                        71.61683700           0.15432897
                        13.04509600           0.53532814
                         3.53051220           0.44463454
    S   3 1.00
                         2.94124940          -0.09996723
                         0.68348310           0.39951283
                         0.22228990           0.70011547
    P   3 1.00
                         2.94124940           0.15591627
                         0.68348310           0.60768372
                         0.22228990           0.39195739
    ****
    H  17
    S   3 1.00
                         3.42525091           0.15432897
                         0.62391373           0.53532814
                         0.16885540           0.44463454
    ****
    H  19
    S   3 1.00
                         3.42525091           0.15432897
                         0.62391373           0.53532814
                         0.16885540           0.44463454
    ****

  ==> Integral Setup <==

  DFHelper Memory: AOs need 0.031 GiB; user supplied 0.031 GiB. Using in-core AOs.

  ==> MemDFJK: Density-Fitted J/K Matrices <==

    J tasked:                   Yes
    K tasked:                   Yes
    wK tasked:                   No
    OpenMP threads:               1
    Memory [MiB]:                31
    Algorithm:                 Core
    Schwarz Cutoff:           1E-12
    Mask sparsity (%):       4.1111
    Fitting Condition:        1E-10

   => Auxiliary Basis Set <=

  Basis Set: (STO-3G AUX)
    Blend: DEF2-UNIVERSAL-JKFIT
    Number of shells: 310
    Number of basis functions: 930
    Number of Cartesian functions: 1090
    Spherical Harmonics?: true
    Max angular momentum: 4

  Cached 50.0% of DFT collocation blocks in 0.278 [GiB].

  Minimum eigenvalue in the overlap matrix is 1.8581922389E-01.
  Reciprocal condition number of the overlap matrix is 7.9091442526E-02.
    Using symmetric orthogonalization.

  ==> Pre-Iterations <==

  SCF Guess: Superposition of Atomic Densities via on-the-fly atomic UHF (no occupation information).

   -------------------------
    Irrep   Nso     Nmo    
   -------------------------
     Ag        25      25 
     Bg         5       5 
     Au         5       5 
     Bu        25      25 
   -------------------------
    Total      60      60
   -------------------------

  ==> Iterations <==

                           Total Energy        Delta E     RMS |[F,P]|

   @DF-RKS iter SAD:  -377.61112828069912   -3.77611e+02   0.00000e+00 
   @DF-RKS iter   1:  -382.30594007465714   -4.69481e+00   2.37478e-03 DIIS/ADIIS
   @DF-RKS iter   2:  -382.30317638673608    2.76369e-03   3.00682e-03 DIIS/ADIIS
   @DF-RKS iter   3:  -382.31037795914170   -7.20157e-03   8.11286e-04 DIIS/ADIIS
   @DF-RKS iter   4:  -382.31088149351854   -5.03534e-04   1.93402e-04 DIIS/ADIIS
   @DF-RKS iter   5:  -382.31090894806493   -2.74545e-05   5.60387e-05 DIIS
   @DF-RKS iter   6:  -382.31091151256209   -2.56450e-06   7.13150e-06 DIIS
   @DF-RKS iter   7:  -382.31091155890175   -4.63397e-08   1.98631e-06 DIIS
   @DF-RKS iter   8:  -382.31091156274687   -3.84512e-09   3.83439e-07 DIIS
  Energy and wave function converged.


  ==> Post-Iterations <==

   Electrons on quadrature grid:
      Ntotal   =   69.9998067477 ; deviation = -1.933e-04 

    Orbital Energies [Eh]
    ---------------------

    Doubly Occupied:                                                      

       1Bu   -10.020496     1Ag   -10.020448     2Bu   -10.008211  
       2Ag   -10.008210     3Ag   -10.007158     3Bu   -10.007156  
       4Bu   -10.006510     4Ag   -10.006367     5Bu    -9.992435  
       5Ag    -9.992435     6Ag    -0.809491     6Bu    -0.753964  
       7Ag    -0.717890     7Bu    -0.699952     8Bu    -0.667344  
       8Ag    -0.588532     9Ag    -0.559173     9Bu    -0.531444  
      10Ag    -0.509953    11Ag    -0.457609    10Bu    -0.439210  
      11Bu    -0.411039    12Bu    -0.397708    12Ag    -0.395953  
      13Bu    -0.374446    14Bu    -0.350956    13Ag    -0.347032  
       1Au    -0.324485    15Bu    -0.311085    14Ag    -0.293008  
      15Ag    -0.287520     1Bg    -0.263470     2Au    -0.212353  
       2Bg    -0.195183     3Bg    -0.153011  

    Virtual:                                                              

       3Au     0.037507     4Au     0.090114     4Bg     0.110725  
       5Au     0.182199     5Bg     0.272307    16Ag     0.332466  
      16Bu     0.340625    17Bu     0.379512    17Ag     0.381258  
      18Ag     0.410316    18Bu     0.411202    19Bu     0.425774  
      19Ag     0.439334    20Bu     0.453681    20Ag     0.478308  
      21Ag     0.525547    21Bu     0.546338    22Ag     0.576406  
      22Bu     0.598432    23Bu     0.624877    23Ag     0.639811  
      24Ag     0.682829    24Bu     0.717347    25Ag     0.779047  
      25Bu     0.794243  

    Final Occupation by Irrep:
             Ag    Bg    Au    Bu 
    DOCC [    15,    3,    2,   15 ]
    NA   [    15,    3,    2,   15 ]
    NB   [    15,    3,    2,   15 ]

  @DF-RKS Final Energy:  -382.31091156274687

   => Energetics <=

    Nuclear Repulsion Energy =            445.9369798670570049
    One-Electron Energy =               -1400.6437838753165579
    Two-Electron Energy =                 619.1799410618745014
    DFT Exchange-Correlation Energy =     -46.7840486163618081
    Empirical Dispersion Energy =           0.0000000000000000
    VV10 Nonlocal Energy =                  0.0000000000000000
    Total Energy =                       -382.3109115627468100

Computation Completed


Properties will be evaluated at   0.000000,   0.000000,   0.000000 [a0]

Properties computed using the SCF density matrix


 Multipole Moments:

 ------------------------------------------------------------------------------------
     Multipole            Electronic (a.u.)      Nuclear  (a.u.)        Total (a.u.)
 ------------------------------------------------------------------------------------

 L = 1.  Multiply by 2.5417464519 to convert [e a0] to [Debye]
 Dipole X            :          0.0000000            0.0000000            0.0000000
 Dipole Y            :          0.0000000            0.0000000            0.0000000
 Dipole Z            :          0.0000000            0.0000000            0.0000000
 Magnitude           :                                                    0.0000000

 ------------------------------------------------------------------------------------

  ==> Molecular Orbitals <==

                            1            2            3            4            5

 1    C1 s0         0.6993047    0.6993010    0.0274540    0.0276856    0.0031810
 2    C1 s0         0.0315526    0.0313447   -0.0040996   -0.0040568   -0.0007884
 3    C1 p0         0.0000000    0.0000000    0.0000000    0.0000000    0.0000000
 4    C1 p+1        0.0009076    0.0006319    0.0041634    0.0041322    0.0005208
 5    C1 p-1       -0.0000155    0.0000354   -0.0006493   -0.0006342    0.0052559
 6    C2 s0        -0.6993047    0.6993010   -0.0274540    0.0276856    0.0031810
 7    C2 s0        -0.0315526    0.0313447    0.0040996   -0.0040568   -0.0007884
 8    C2 p0         0.0000000    0.0000000    0.0000000    0.0000000    0.0000000
 9    C2 p+1        0.0009076   -0.0006319    0.0041634   -0.0041322   -0.0005208
 10   C2 p-1       -0.0000155   -0.0000354   -0.0006493    0.0006342   -0.0052559
 11   C3 s0        -0.0188731   -0.0193477   -0.0117104   -0.0146835   -0.4391232
 12   C3 s0        -0.0077396   -0.0069254   -0.0006765   -0.0006823   -0.0244283
 13   C3 p0         0.0000000    0.0000000    0.0000000    0.0000000    0.0000000
 14   C3 p+1        0.0026102    0.0029796   -0.0000198    0.0000613   -0.0036688
 15   C3 p-1        0.0035439    0.0033345    0.0001320    0.0001893    0.0010039
 16   C4 s0         0.0188731   -0.0193477    0.0117104   -0.0146835   -0.4391232
 17   C4 s0         0.0077396   -0.0069254    0.0006765   -0.0006823   -0.0244283
 18   C4 p0         0.0000000    0.0000000    0.0000000    0.0000000    0.0000000
 19   C4 p+1        0.0026102   -0.0029796   -0.0000198   -0.0000613    0.0036688
 20   C4 p-1        0.0035439   -0.0033345    0.0001320   -0.0001893   -0.0010039
 21   C5 s0         0.0191833   -0.0195162    0.0095730   -0.0109891    0.5451204
 22   C5 s0         0.0077035   -0.0068678    0.0005458   -0.0004199    0.0281025
 23   C5 p0         0.0000000    0.0000000    0.0000000    0.0000000    0.0000000
 24   C5 p+1        0.0013424   -0.0017711   -0.0000948   -0.0000064   -0.0032358
 25   C5 p-1       -0.0041601    0.0040588   -0.0001292    0.0002106    0.0000584
 26   C6 s0        -0.0191833   -0.0195162   -0.0095730   -0.0109891    0.5451204
 27   C6 s0        -0.0077035   -0.0068678   -0.0005458   -0.0004199    0.0281025
 28   C6 p0         0.0000000    0.0000000    0.0000000    0.0000000    0.0000000
 29   C6 p+1        0.0013424    0.0017711   -0.0000948    0.0000064    0.0032358
 30   C6 p-1       -0.0041601   -0.0040588   -0.0001292   -0.0002106   -0.0000584
 31   H7 s0         0.0003350    0.0002223    0.0001016    0.0001080    0.0040594
 32   H8 s0        -0.0003350    0.0002223   -0.0001016    0.0001080    0.0040594
 33   H9 s0        -0.0003338    0.0002228    0.0000447   -0.0000579   -0.0050443
 34   H10 s0        0.0003338    0.0002228   -0.0000447   -0.0000579   -0.0050443
 35   C11 s0        0.0269955   -0.0273595   -0.6997830    0.6996982   -0.0007856
 36   C11 s0        0.0067041   -0.0067731   -0.0307722    0.0307541   -0.0000412
 37   C11 p0        0.0000000    0.0000000    0.0000000    0.0000000    0.0000000
 38   C11 p+1      -0.0039757    0.0040143   -0.0010812    0.0010912    0.0000331
 39   C11 p-1       0.0008863   -0.0008942   -0.0007560    0.0007540    0.0001082
 40   C12 s0       -0.0269955   -0.0273595    0.6997830    0.6996982   -0.0007856
 41   C12 s0       -0.0067041   -0.0067731    0.0307722    0.0307541   -0.0000412
 42   C12 p0        0.0000000    0.0000000    0.0000000    0.0000000    0.0000000
 43   C12 p+1      -0.0039757   -0.0040143   -0.0010812   -0.0010912   -0.0000331
 44   C12 p-1       0.0008863    0.0008942   -0.0007560   -0.0007540   -0.0001082
 45   H13 s0       -0.0003225    0.0003336    0.0064158   -0.0064135   -0.0000043
 46   H14 s0        0.0003225    0.0003336   -0.0064158   -0.0064135   -0.0000043
 47   C15 s0       -0.0001779    0.0001917    0.0080928   -0.0080865   -0.0002876
 48   C15 s0       -0.0004700    0.0004732    0.0076141   -0.0076126   -0.0000504
 49   C15 p0        0.0000000    0.0000000    0.0000000    0.0000000    0.0000000
 50   C15 p+1       0.0002810   -0.0002877   -0.0034264    0.0034245    0.0000093
 51   C15 p-1      -0.0000055    0.0000049   -0.0030603    0.0030605   -0.0000343
 52   C16 s0        0.0001779    0.0001917   -0.0080928   -0.0080865   -0.0002876
 53   C16 s0        0.0004700    0.0004732   -0.0076141   -0.0076126   -0.0000504
 54   C16 p0        0.0000000    0.0000000    0.0000000    0.0000000    0.0000000
 55   C16 p+1       0.0002810    0.0002877   -0.0034264   -0.0034245   -0.0000093
 56   C16 p-1      -0.0000055   -0.0000049   -0.0030603   -0.0030605    0.0000343
 57   H17 s0        0.0001491   -0.0001410   -0.0001862    0.0001870    0.0001554
 58   H18 s0       -0.0001491   -0.0001410    0.0001862    0.0001870    0.0001554
 59   H19 s0        0.0000283   -0.0000274   -0.0002166    0.0002168   -0.0000043
 60   H20 s0       -0.0000283   -0.0000274    0.0002166    0.0002168   -0.0000043

            Ene   -10.0204961  -10.0204478  -10.0082106  -10.0082097  -10.0071577
            Sym            Bu           Ag           Bu           Ag           Ag
            Occ             2            2            2            2            2


                            6            7            8            9           10

 1    C1 s0         0.0286884    0.0035757    0.0294530   -0.0001750    0.0001762
 2    C1 s0        -0.0081565   -0.0010729   -0.0074941   -0.0001593    0.0001579
 3    C1 p0         0.0000000    0.0000000    0.0000000    0.0000000    0.0000000
 4    C1 p+1       -0.0030877   -0.0012433   -0.0030758    0.0000493   -0.0000481
 5    C1 p-1        0.0011984   -0.0050110   -0.0000551    0.0000227   -0.0000243
 6    C2 s0        -0.0286884   -0.0035757    0.0294530    0.0001750    0.0001762
 7    C2 s0         0.0081565    0.0010729   -0.0074941    0.0001593    0.0001579
 8    C2 p0         0.0000000    0.0000000    0.0000000    0.0000000    0.0000000
 9    C2 p+1       -0.0030877   -0.0012433    0.0030758    0.0000493    0.0000481
 10   C2 p-1        0.0011984   -0.0050110    0.0000551    0.0000227    0.0000243
 11   C3 s0         0.4263034    0.5553377    0.5452318   -0.0002756    0.0005658
 12   C3 s0         0.0241330    0.0204993    0.0198268    0.0000026   -0.0000611
 13   C3 p0         0.0000000    0.0000000    0.0000000    0.0000000    0.0000000
 14   C3 p+1        0.0038471   -0.0022340   -0.0023444   -0.0000805    0.0000271
 15   C3 p-1       -0.0011294   -0.0002430    0.0001231   -0.0000065    0.0000169
 16   C4 s0        -0.4263034   -0.5553377    0.5452318    0.0002756    0.0005658
 17   C4 s0        -0.0241330   -0.0204993    0.0198268   -0.0000026   -0.0000611
 18   C4 p0         0.0000000    0.0000000    0.0000000    0.0000000    0.0000000
 19   C4 p+1        0.0038471   -0.0022340    0.0023444   -0.0000805   -0.0000271
 20   C4 p-1       -0.0011294   -0.0002430   -0.0001231   -0.0000065   -0.0000169
 21   C5 s0        -0.5543637    0.4276083    0.4393588    0.0007851    0.0008457
 22   C5 s0        -0.0285957    0.0136371    0.0142009   -0.0000159   -0.0000365
 23   C5 p0         0.0000000    0.0000000    0.0000000    0.0000000    0.0000000
 24   C5 p+1        0.0033482    0.0030013    0.0030133   -0.0001055   -0.0000891
 25   C5 p-1        0.0001062   -0.0009340   -0.0006565    0.0000061    0.0000025
 26   C6 s0         0.5543637   -0.4276083    0.4393588   -0.0007851    0.0008457
 27   C6 s0         0.0285957   -0.0136371    0.0142009    0.0000159   -0.0000365
 28   C6 p0         0.0000000    0.0000000    0.0000000    0.0000000    0.0000000
 29   C6 p+1        0.0033482    0.0030013   -0.0030133   -0.0001055    0.0000891
 30   C6 p-1        0.0001062   -0.0009340    0.0006565    0.0000061   -0.0000025
 31   H7 s0        -0.0039923   -0.0048924   -0.0049689    0.0000116   -0.0000165
 32   H8 s0         0.0039923    0.0048924   -0.0049689   -0.0000116   -0.0000165
 33   H9 s0         0.0051388   -0.0037224   -0.0040117    0.0001034    0.0001035
 34   H10 s0       -0.0051388    0.0037224   -0.0040117   -0.0001034    0.0001035
 35   C11 s0       -0.0136960   -0.0033280    0.0172733    0.0089852    0.0089893
 36   C11 s0       -0.0007283   -0.0001725    0.0007507   -0.0068914   -0.0068912
 37   C11 p0        0.0000000    0.0000000    0.0000000    0.0000000    0.0000000
 38   C11 p+1      -0.0000521   -0.0000245    0.0001865   -0.0033617   -0.0033614
 39   C11 p-1      -0.0000553    0.0000082    0.0000253   -0.0030978   -0.0030975
 40   C12 s0        0.0136960    0.0033280    0.0172733   -0.0089852    0.0089893
 41   C12 s0        0.0007283    0.0001725    0.0007507    0.0068914   -0.0068912
 42   C12 p0        0.0000000    0.0000000    0.0000000    0.0000000    0.0000000
 43   C12 p+1      -0.0000521   -0.0000245   -0.0001865   -0.0033617    0.0033614
 44   C12 p-1      -0.0000553    0.0000082   -0.0000253   -0.0030978    0.0030975
 45   H13 s0        0.0001803    0.0000532   -0.0002512    0.0000437    0.0000434
 46   H14 s0       -0.0001803   -0.0000532   -0.0002512   -0.0000437    0.0000434
 47   C15 s0        0.0009320   -0.0002148   -0.0011470    0.7004805    0.7004803
 48   C15 s0        0.0002776    0.0000266   -0.0003254    0.0308522    0.0308519
 49   C15 p0        0.0000000    0.0000000    0.0000000    0.0000000    0.0000000
 50   C15 p+1      -0.0001412   -0.0000100    0.0001831   -0.0009311   -0.0009309
 51   C15 p-1      -0.0000271   -0.0000520    0.0000538   -0.0008929   -0.0008928
 52   C16 s0       -0.0009320    0.0002148   -0.0011470   -0.7004805    0.7004803
 53   C16 s0       -0.0002776   -0.0000266   -0.0003254   -0.0308522    0.0308519
 54   C16 p0        0.0000000    0.0000000    0.0000000    0.0000000    0.0000000
 55   C16 p+1      -0.0001412   -0.0000100   -0.0001831   -0.0009311    0.0009309
 56   C16 p-1      -0.0000271   -0.0000520   -0.0000538   -0.0008929    0.0008928
 57   H17 s0       -0.0001543    0.0000916    0.0000978   -0.0063574   -0.0063575
 58   H18 s0        0.0001543   -0.0000916    0.0000978    0.0063574   -0.0063575
 59   H19 s0        0.0000076   -0.0000103   -0.0000105   -0.0063666   -0.0063666
 60   H20 s0       -0.0000076    0.0000103   -0.0000105    0.0063666   -0.0063666

            Ene   -10.0071559  -10.0065096  -10.0063670   -9.9924351   -9.9924350
            Sym            Bu           Bu           Ag           Bu           Ag
            Occ             2            2            2            2            2


                           11           12           13           14           15

 1    C1 s0         0.1078572    0.1035485    0.0045240    0.0126035    0.0996501
 2    C1 s0        -0.2747057   -0.2737909   -0.0148196   -0.0340849   -0.2740715
 3    C1 p0         0.0000000    0.0000000    0.0000000    0.0000000    0.0000000
 4    C1 p+1       -0.0407442    0.0329979    0.0961944   -0.0224146   -0.0563089
 5    C1 p-1        0.0053084   -0.0043084   -0.0099233   -0.1250852    0.0175491
 6    C2 s0         0.1078572   -0.1035485    0.0045240   -0.0126035   -0.0996501
 7    C2 s0        -0.2747057    0.2737909   -0.0148196    0.0340849    0.2740715
 8    C2 p0         0.0000000    0.0000000    0.0000000    0.0000000    0.0000000
 9    C2 p+1        0.0407442    0.0329979   -0.0961944   -0.0224146   -0.0563089
 10   C2 p-1       -0.0053084   -0.0043084    0.0099233   -0.1250852    0.0175491
 11   C3 s0         0.0978422    0.0390623   -0.0463102    0.1323223    0.0407670
 12   C3 s0        -0.2470199   -0.1022269    0.1214655   -0.3571405   -0.1126812
 13   C3 p0         0.0000000    0.0000000    0.0000000    0.0000000    0.0000000
 14   C3 p+1       -0.0147439    0.0588249    0.0371119   -0.0561947    0.0912391
 15   C3 p-1        0.0533016    0.0276611   -0.0159658   -0.0037483    0.0383095
 16   C4 s0         0.0978422   -0.0390623   -0.0463102   -0.1323223   -0.0407670
 17   C4 s0        -0.2470199    0.1022269    0.1214655    0.3571405    0.1126812
 18   C4 p0         0.0000000    0.0000000    0.0000000    0.0000000    0.0000000
 19   C4 p+1        0.0147439    0.0588249   -0.0371119   -0.0561947    0.0912391
 20   C4 p-1       -0.0533016    0.0276611    0.0159658   -0.0037483    0.0383095
 21   C5 s0         0.0975702   -0.0427848   -0.0417279    0.1200908   -0.0732967
 22   C5 s0        -0.2466859    0.1125462    0.1089528   -0.3239077    0.2022866
 23   C5 p0         0.0000000    0.0000000    0.0000000    0.0000000    0.0000000
 24   C5 p+1        0.0312190    0.0468814   -0.0473353    0.0657956    0.0472190
 25   C5 p-1        0.0458992   -0.0444065   -0.0022572   -0.0343400   -0.0538469
 26   C6 s0         0.0975702    0.0427848   -0.0417279   -0.1200908    0.0732967
 27   C6 s0        -0.2466859   -0.1125462    0.1089528    0.3239077   -0.2022866
 28   C6 p0         0.0000000    0.0000000    0.0000000    0.0000000    0.0000000
 29   C6 p+1       -0.0312190    0.0468814    0.0473353    0.0657956    0.0472190
 30   C6 p-1       -0.0458992   -0.0444065    0.0022572   -0.0343400   -0.0538469
 31   H7 s0        -0.0449446   -0.0268631    0.0233475   -0.0983071   -0.0321814
 32   H8 s0        -0.0449446    0.0268631    0.0233475    0.0983071    0.0321814
 33   H9 s0        -0.0451922    0.0307586    0.0166024   -0.0899817    0.0534626
 34   H10 s0       -0.0451922   -0.0307586    0.0166024    0.0899817   -0.0534626
 35   C11 s0        0.0497189   -0.1138163    0.1192379   -0.0001978    0.0516186
 36   C11 s0       -0.1278144    0.2971760   -0.3148260    0.0012692   -0.1368589
 37   C11 p0        0.0000000    0.0000000    0.0000000    0.0000000    0.0000000
 38   C11 p+1       0.0285092   -0.0086635   -0.0572707   -0.0183753   -0.1288648
 39   C11 p-1      -0.0127689    0.0341481   -0.0456211   -0.0230349   -0.0397887
 40   C12 s0        0.0497189    0.1138163    0.1192379    0.0001978   -0.0516186
 41   C12 s0       -0.1278144   -0.2971760   -0.3148260   -0.0012692    0.1368589
 42   C12 p0        0.0000000    0.0000000    0.0000000    0.0000000    0.0000000
 43   C12 p+1      -0.0285092   -0.0086635    0.0572707   -0.0183753   -0.1288648
 44   C12 p-1       0.0127689    0.0341481    0.0456211   -0.0230349   -0.0397887
 45   H13 s0       -0.0256023    0.0670148   -0.0765308    0.0098383   -0.0376367
 46   H14 s0       -0.0256023   -0.0670148   -0.0765308   -0.0098383    0.0376367
 47   C15 s0        0.0246703   -0.0807251    0.1174593    0.0144985    0.1102667
 48   C15 s0       -0.0626876    0.2093085   -0.3097617   -0.0379184   -0.2995009
 49   C15 p0        0.0000000    0.0000000    0.0000000    0.0000000    0.0000000
 50   C15 p+1       0.0202956   -0.0497286    0.0525678    0.0063745    0.0162230
 51   C15 p-1       0.0124965   -0.0375250    0.0493310   -0.0015372    0.0346056
 52   C16 s0        0.0246703    0.0807251    0.1174593   -0.0144985   -0.1102667
 53   C16 s0       -0.0626876   -0.2093085   -0.3097617    0.0379184    0.2995009
 54   C16 p0        0.0000000    0.0000000    0.0000000    0.0000000    0.0000000
 55   C16 p+1      -0.0202956   -0.0497286   -0.0525678    0.0063745    0.0162230
 56   C16 p-1      -0.0124965   -0.0375250   -0.0493310   -0.0015372    0.0346056
 57   H17 s0       -0.0141233    0.0485766   -0.0741958   -0.0147815   -0.0773973
 58   H18 s0       -0.0141233   -0.0485766   -0.0741958    0.0147815    0.0773973
 59   H19 s0       -0.0105829    0.0436838   -0.0748335   -0.0089373   -0.0899524
 60   H20 s0       -0.0105829   -0.0436838   -0.0748335    0.0089373    0.0899524

            Ene    -0.8094909   -0.7539637   -0.7178897   -0.6999525   -0.6673442
            Sym            Ag           Bu           Ag           Bu           Bu
            Occ             2            2            2            2            2


                           16           17           18           19           20

 1    C1 s0         0.0709819    0.0543134    0.0130292    0.0545409    0.0322794
 2    C1 s0        -0.2064051   -0.1607743   -0.0370770   -0.1622003   -0.1063154
 3    C1 p0         0.0000000    0.0000000    0.0000000    0.0000000    0.0000000
 4    C1 p+1        0.0726892    0.0630687   -0.1351898   -0.1424507    0.1325357
 5    C1 p-1       -0.1207024    0.1851703    0.0529598   -0.0201433   -0.0508102
 6    C2 s0         0.0709819    0.0543134   -0.0130292    0.0545409    0.0322794
 7    C2 s0        -0.2064051   -0.1607743    0.0370770   -0.1622003   -0.1063154
 8    C2 p0         0.0000000    0.0000000    0.0000000    0.0000000    0.0000000
 9    C2 p+1       -0.0726892   -0.0630687   -0.1351898    0.1424507   -0.1325357
 10   C2 p-1        0.1207024   -0.1851703    0.0529598    0.0201433    0.0508102
 11   C3 s0         0.0030119   -0.1104522    0.0506654   -0.0069643    0.0133565
 12   C3 s0        -0.0100037    0.3260472   -0.1544645    0.0255463   -0.0515636
 13   C3 p0         0.0000000    0.0000000    0.0000000    0.0000000    0.0000000
 14   C3 p+1        0.1598590   -0.0369212    0.0048151    0.0870611    0.1420027
 15   C3 p-1        0.0306887    0.0814906    0.0052631    0.1848738   -0.1362698
 16   C4 s0         0.0030119   -0.1104522   -0.0506654   -0.0069643    0.0133565
 17   C4 s0        -0.0100037    0.3260472    0.1544645    0.0255463   -0.0515636
 18   C4 p0         0.0000000    0.0000000    0.0000000    0.0000000    0.0000000
 19   C4 p+1       -0.1598590    0.0369212    0.0048151   -0.0870611   -0.1420027
 20   C4 p-1       -0.0306887   -0.0814906    0.0052631   -0.1848738    0.1362698
 21   C5 s0        -0.0819043    0.0574828   -0.0303665   -0.0522338   -0.0197733
 22   C5 s0         0.2338094   -0.1707846    0.0920604    0.1660201    0.0561830
 23   C5 p0         0.0000000    0.0000000    0.0000000    0.0000000    0.0000000
 24   C5 p+1       -0.0232202   -0.1708379    0.0787317    0.0363377   -0.1356101
 25   C5 p-1        0.0653863    0.0857288   -0.0354571    0.2020418   -0.0852887
 26   C6 s0        -0.0819043    0.0574828    0.0303665   -0.0522338   -0.0197733
 27   C6 s0         0.2338094   -0.1707846   -0.0920604    0.1660201    0.0561830
 28   C6 p0         0.0000000    0.0000000    0.0000000    0.0000000    0.0000000
 29   C6 p+1        0.0232202    0.1708379    0.0787317   -0.0363377    0.1356101
 30   C6 p-1       -0.0653863   -0.0857288   -0.0354571   -0.2020418    0.0852887
 31   H7 s0        -0.0192656    0.1692375   -0.0503329    0.0994454   -0.1360278
 32   H8 s0        -0.0192656    0.1692375    0.0503329    0.0994454   -0.1360278
 33   H9 s0         0.1064114   -0.0838464    0.0558006    0.1692627   -0.0904463
 34   H10 s0        0.1064114   -0.0838464   -0.0558006    0.1692627   -0.0904463
 35   C11 s0        0.0530527    0.0075700    0.0988488   -0.0591319   -0.0401685
 36   C11 s0       -0.1596058   -0.0244874   -0.3027672    0.1807970    0.1276648
 37   C11 p0        0.0000000    0.0000000    0.0000000    0.0000000    0.0000000
 38   C11 p+1       0.1288882    0.0781225    0.0405520    0.0018028    0.1851830
 39   C11 p-1       0.0818682   -0.0462388    0.1162265   -0.0645609   -0.1139510
 40   C12 s0        0.0530527    0.0075700   -0.0988488   -0.0591319   -0.0401685
 41   C12 s0       -0.1596058   -0.0244874    0.3027672    0.1807970    0.1276648
 42   C12 p0        0.0000000    0.0000000    0.0000000    0.0000000    0.0000000
 43   C12 p+1      -0.1288882   -0.0781225    0.0405520   -0.0018028   -0.1851830
 44   C12 p-1      -0.0818682    0.0462388    0.1162265    0.0645609    0.1139510
 45   H13 s0       -0.0800216    0.0321700   -0.1705131    0.1125379    0.1530855
 46   H14 s0       -0.0800216    0.0321700    0.1705131    0.1125379    0.1530855
 47   C15 s0       -0.0837104   -0.0378554   -0.0807457    0.0515564    0.0168796
 48   C15 s0        0.2414244    0.1134436    0.2491839   -0.1634857   -0.0633513
 49   C15 p0        0.0000000    0.0000000    0.0000000    0.0000000    0.0000000
 50   C15 p+1       0.0381036    0.0494727    0.0907003   -0.0812825    0.0101291
 51   C15 p-1       0.0357668   -0.0136710    0.1235529   -0.0795459   -0.2126616
 52   C16 s0       -0.0837104   -0.0378554    0.0807457    0.0515564    0.0168796
 53   C16 s0        0.2414244    0.1134436   -0.2491839   -0.1634857   -0.0633513
 54   C16 p0        0.0000000    0.0000000    0.0000000    0.0000000    0.0000000
 55   C16 p+1      -0.0381036   -0.0494727    0.0907003    0.0812825   -0.0101291
 56   C16 p-1      -0.0357668    0.0136710    0.1235529    0.0795459    0.2126616
 57   H17 s0        0.1035369    0.0227703    0.1606218   -0.0947721   -0.1790996
 58   H18 s0        0.1035369    0.0227703   -0.1606218   -0.0947721   -0.1790996
 59   H19 s0        0.0977550    0.0678520    0.1247491   -0.0971994    0.0214248
 60   H20 s0        0.0977550    0.0678520   -0.1247491   -0.0971994    0.0214248

            Ene    -0.5885317   -0.5591728   -0.5314441   -0.5099531   -0.4576087
            Sym            Ag           Ag           Bu           Ag           Ag
            Occ             2            2            2            2            2


                           21           22           23           24           25

 1    C1 s0         0.0227675    0.0694471    0.0227776    0.0216667    0.0025679
 2    C1 s0        -0.0780876   -0.2352899   -0.0775313   -0.0715691   -0.0088083
 3    C1 p0         0.0000000    0.0000000    0.0000000    0.0000000    0.0000000
 4    C1 p+1        0.1345007   -0.0269235   -0.1443421    0.0102719   -0.0784282
 5    C1 p-1        0.1254531   -0.1012355    0.2201425   -0.0156932   -0.0853418
 6    C2 s0        -0.0227675   -0.0694471   -0.0227776    0.0216667   -0.0025679
 7    C2 s0         0.0780876    0.2352899    0.0775313   -0.0715691    0.0088083
 8    C2 p0         0.0000000    0.0000000    0.0000000    0.0000000    0.0000000
 9    C2 p+1        0.1345007   -0.0269235   -0.1443421   -0.0102719   -0.0784282
 10   C2 p-1        0.1254531   -0.1012355    0.2201425    0.0156932   -0.0853418
 11   C3 s0        -0.0221639   -0.0473780    0.0012531   -0.0251399    0.0284914
 12   C3 s0         0.0746202    0.1629545   -0.0014879    0.0839627   -0.0906759
 13   C3 p0         0.0000000    0.0000000    0.0000000    0.0000000    0.0000000
 14   C3 p+1       -0.1850370    0.0605887   -0.1206671    0.0821254   -0.1468264
 15   C3 p-1        0.0177424    0.2225427    0.0026088   -0.0059721    0.3068987
 16   C4 s0         0.0221639    0.0473780   -0.0012531   -0.0251399   -0.0284914
 17   C4 s0        -0.0746202   -0.1629545    0.0014879    0.0839627    0.0906759
 18   C4 p0         0.0000000    0.0000000    0.0000000    0.0000000    0.0000000
 19   C4 p+1       -0.1850370    0.0605887   -0.1206671   -0.0821254   -0.1468264
 20   C4 p-1        0.0177424    0.2225427    0.0026088    0.0059721    0.3068987
 21   C5 s0         0.0425912    0.0440511   -0.0117376    0.0182400    0.0197016
 22   C5 s0        -0.1389903   -0.1529046    0.0366453   -0.0680043   -0.0621974
 23   C5 p0         0.0000000    0.0000000    0.0000000    0.0000000    0.0000000
 24   C5 p+1        0.1018985   -0.1774578    0.0578980   -0.1365303    0.2251940
 25   C5 p-1       -0.0962531   -0.1135953   -0.2509714   -0.0377575    0.1891138
 26   C6 s0        -0.0425912   -0.0440511    0.0117376    0.0182400   -0.0197016
 27   C6 s0         0.1389903    0.1529046   -0.0366453   -0.0680043    0.0621974
 28   C6 p0         0.0000000    0.0000000    0.0000000    0.0000000    0.0000000
 29   C6 p+1        0.1018985   -0.1774578    0.0578980    0.1365303    0.2251940
 30   C6 p-1       -0.0962531   -0.1135953   -0.2509714    0.0377575    0.1891138
 31   H7 s0         0.1002407    0.2266439    0.0367461    0.0060582    0.2522796
 32   H8 s0        -0.1002407   -0.2266439   -0.0367461    0.0060582   -0.2522796
 33   H9 s0        -0.0599191   -0.2304443   -0.1327711   -0.1140864    0.2181992
 34   H10 s0        0.0599191    0.2304443    0.1327711   -0.1140864   -0.2181992
 35   C11 s0       -0.0168876    0.0152918    0.0025703   -0.0276450   -0.0019364
 36   C11 s0        0.0515821   -0.0422912   -0.0149167    0.0805814    0.0046179
 37   C11 p0        0.0000000    0.0000000    0.0000000    0.0000000    0.0000000
 38   C11 p+1      -0.1020815   -0.1251018    0.1812858    0.0805550    0.0669607
 39   C11 p-1       0.2187584   -0.0386927    0.0437267    0.2518808   -0.0182737
 40   C12 s0        0.0168876   -0.0152918   -0.0025703   -0.0276450    0.0019364
 41   C12 s0       -0.0515821    0.0422912    0.0149167    0.0805814   -0.0046179
 42   C12 p0        0.0000000    0.0000000    0.0000000    0.0000000    0.0000000
 43   C12 p+1      -0.1020815   -0.1251018    0.1812858   -0.0805550    0.0669607
 44   C12 p-1       0.2187584   -0.0386927    0.0437267   -0.2518808   -0.0182737
 45   H13 s0       -0.1555240   -0.0280353   -0.0123296   -0.1450908    0.0167328
 46   H14 s0        0.1555240    0.0280353    0.0123296   -0.1450908   -0.0167328
 47   C15 s0        0.0081354   -0.0122355   -0.0010601   -0.0044381    0.0044515
 48   C15 s0       -0.0313420    0.0507805   -0.0075009   -0.0001022   -0.0184963
 49   C15 p0        0.0000000    0.0000000    0.0000000    0.0000000    0.0000000
 50   C15 p+1      -0.2106669    0.1332429    0.0392685   -0.3389258    0.0058507
 51   C15 p-1       0.0896068    0.0762456   -0.2503211   -0.0128963   -0.0764992
 52   C16 s0       -0.0081354    0.0122355    0.0010601   -0.0044381   -0.0044515
 53   C16 s0        0.0313420   -0.0507805    0.0075009   -0.0001022    0.0184963
 54   C16 p0        0.0000000    0.0000000    0.0000000    0.0000000    0.0000000
 55   C16 p+1      -0.2106669    0.1332429    0.0392685    0.3389258    0.0058507
 56   C16 p-1       0.0896068    0.0762456   -0.2503211    0.0128963   -0.0764992
 57   H17 s0        0.0730702    0.0423160   -0.2154201    0.0249600   -0.0539454
 58   H18 s0       -0.0730702   -0.0423160    0.2154201    0.0249600    0.0539454
 59   H19 s0       -0.1781040    0.1050701    0.0871646   -0.2626004    0.0151720
 60   H20 s0        0.1781040   -0.1050701   -0.0871646   -0.2626004   -0.0151720

            Ene    -0.4392098   -0.4110391   -0.3977076   -0.3959529   -0.3744462
            Sym            Bu           Bu           Bu           Ag           Bu
            Occ             2            2            2            2            2


                           26           27           28           29           30

 1    C1 s0         0.0031473    0.0250526    0.0000000    0.0102808    0.0034232
 2    C1 s0        -0.0116750   -0.0902300    0.0000000   -0.0448521   -0.0228212
 3    C1 p0         0.0000000    0.0000000    0.3376036    0.0000000    0.0000000
 4    C1 p+1        0.1774007   -0.0012474    0.0000000    0.2423891    0.2678079
 5    C1 p-1        0.1679422    0.0889254    0.0000000   -0.0910190    0.1321129
 6    C2 s0        -0.0031473    0.0250526    0.0000000   -0.0102808    0.0034232
 7    C2 s0         0.0116750   -0.0902300    0.0000000    0.0448521   -0.0228212
 8    C2 p0         0.0000000    0.0000000    0.3376036    0.0000000    0.0000000
 9    C2 p+1        0.1774007    0.0012474    0.0000000    0.2423891   -0.2678079
 10   C2 p-1        0.1679422   -0.0889254    0.0000000   -0.0910190   -0.1321129
 11   C3 s0        -0.0175826    0.0052921    0.0000000   -0.0068512   -0.0027097
 12   C3 s0         0.0635624   -0.0269387    0.0000000    0.0211788    0.0088319
 13   C3 p0         0.0000000    0.0000000    0.2979834    0.0000000    0.0000000
 14   C3 p+1       -0.2238864    0.1342360    0.0000000    0.0413088   -0.2775681
 15   C3 p-1       -0.1016870   -0.1277539    0.0000000   -0.0647067   -0.1339183
 16   C4 s0         0.0175826    0.0052921    0.0000000    0.0068512   -0.0027097
 17   C4 s0        -0.0635624   -0.0269387    0.0000000   -0.0211788    0.0088319
 18   C4 p0         0.0000000    0.0000000    0.2979834    0.0000000    0.0000000
 19   C4 p+1       -0.2238864   -0.1342360    0.0000000    0.0413088    0.2775681
 20   C4 p-1       -0.1016870    0.1277539    0.0000000   -0.0647067    0.1339183
 21   C5 s0         0.0071182   -0.0075402    0.0000000    0.0137435    0.0088755
 22   C5 s0        -0.0204222    0.0253695    0.0000000   -0.0472401   -0.0246513
 23   C5 p0         0.0000000    0.0000000    0.2971695    0.0000000    0.0000000
 24   C5 p+1        0.1935986   -0.1401140    0.0000000   -0.0085611    0.2340914
 25   C5 p-1       -0.0697556    0.0632095    0.0000000    0.1444473    0.0815691
 26   C6 s0        -0.0071182   -0.0075402    0.0000000   -0.0137435    0.0088755
 27   C6 s0         0.0204222    0.0253695    0.0000000    0.0472401   -0.0246513
 28   C6 p0         0.0000000    0.0000000    0.2971695    0.0000000    0.0000000
 29   C6 p+1        0.1935986    0.1401140    0.0000000   -0.0085611   -0.2340914
 30   C6 p-1       -0.0697556   -0.0632095    0.0000000    0.1444473   -0.0815691
 31   H7 s0         0.0075281   -0.1564817    0.0000000   -0.0467174   -0.0202755
 32   H8 s0        -0.0075281   -0.1564817    0.0000000    0.0467174   -0.0202755
 33   H9 s0         0.0469213    0.0078051    0.0000000    0.0538457    0.2403798
 34   H10 s0       -0.0469213    0.0078051    0.0000000   -0.0538457    0.2403798
 35   C11 s0        0.0010963   -0.0168953    0.0000000   -0.0027300    0.0198795
 36   C11 s0        0.0124447    0.0713287    0.0000000    0.0065588   -0.0827943
 37   C11 p0        0.0000000    0.0000000    0.1739455    0.0000000    0.0000000
 38   C11 p+1      -0.1867905   -0.0865394    0.0000000   -0.1701452    0.2483644
 39   C11 p-1      -0.2025534   -0.2092595    0.0000000    0.2164453   -0.0422524
 40   C12 s0       -0.0010963   -0.0168953    0.0000000    0.0027300    0.0198795
 41   C12 s0       -0.0124447    0.0713287    0.0000000   -0.0065588   -0.0827943
 42   C12 p0        0.0000000    0.0000000    0.1739455    0.0000000    0.0000000
 43   C12 p+1      -0.1867905    0.0865394    0.0000000   -0.1701452   -0.2483644
 44   C12 p-1      -0.2025534    0.2092595    0.0000000    0.2164453    0.0422524
 45   H13 s0        0.1456017    0.2002211    0.0000000   -0.2590999    0.0664557
 46   H14 s0       -0.1456017    0.2002211    0.0000000    0.2590999    0.0664557
 47   C15 s0        0.0205133    0.0105094    0.0000000   -0.0034946   -0.0083261
 48   C15 s0       -0.0565111   -0.0270401    0.0000000    0.0144060    0.0212644
 49   C15 p0        0.0000000    0.0000000    0.0924434    0.0000000    0.0000000
 50   C15 p+1       0.2451085   -0.0498675    0.0000000    0.1378161   -0.1449539
 51   C15 p-1       0.1211358    0.2949562    0.0000000   -0.1990045   -0.0283577
 52   C16 s0       -0.0205133    0.0105094    0.0000000    0.0034946   -0.0083261
 53   C16 s0        0.0565111   -0.0270401    0.0000000   -0.0144060    0.0212644
 54   C16 p0        0.0000000    0.0000000    0.0924434    0.0000000    0.0000000
 55   C16 p+1       0.2451085    0.0498675    0.0000000    0.1378161    0.1449539
 56   C16 p-1       0.1211358   -0.2949562    0.0000000   -0.1990045    0.0283577
 57   H17 s0        0.0514272    0.2680250    0.0000000   -0.2310434    0.0523420
 58   H18 s0       -0.0514272    0.2680250    0.0000000    0.2310434    0.0523420
 59   H19 s0        0.1578712   -0.1430513    0.0000000    0.2123522   -0.1355565
 60   H20 s0       -0.1578712   -0.1430513    0.0000000   -0.2123522   -0.1355565

            Ene    -0.3509558   -0.3470322   -0.3244847   -0.3110846   -0.2930080
            Sym            Bu           Ag           Au           Bu           Ag
            Occ             2            2            2            2            2


                           31           32           33           34           35

 1    C1 s0         0.0069864    0.0000000    0.0000000    0.0000000    0.0000000
 2    C1 s0        -0.0337689    0.0000000    0.0000000    0.0000000    0.0000000
 3    C1 p0         0.0000000    0.3489509    0.0180171    0.0057503    0.3875641
 4    C1 p+1        0.0962409    0.0000000    0.0000000    0.0000000    0.0000000
 5    C1 p-1       -0.2954379    0.0000000    0.0000000    0.0000000    0.0000000
 6    C2 s0         0.0069864    0.0000000    0.0000000    0.0000000    0.0000000
 7    C2 s0        -0.0337689    0.0000000    0.0000000    0.0000000    0.0000000
 8    C2 p0         0.0000000   -0.3489509    0.0180171   -0.0057503   -0.3875641
 9    C2 p+1       -0.0962409    0.0000000    0.0000000    0.0000000    0.0000000
 10   C2 p-1        0.2954379    0.0000000    0.0000000    0.0000000    0.0000000
 11   C3 s0         0.0120058    0.0000000    0.0000000    0.0000000    0.0000000
 12   C3 s0        -0.0355849    0.0000000    0.0000000    0.0000000    0.0000000
 13   C3 p0         0.0000000    0.1316496    0.1792023    0.4636304    0.2150628
 14   C3 p+1       -0.0501486    0.0000000    0.0000000    0.0000000    0.0000000
 15   C3 p-1        0.2219157    0.0000000    0.0000000    0.0000000    0.0000000
 16   C4 s0         0.0120058    0.0000000    0.0000000    0.0000000    0.0000000
 17   C4 s0        -0.0355849    0.0000000    0.0000000    0.0000000    0.0000000
 18   C4 p0         0.0000000   -0.1316496    0.1792023   -0.4636304   -0.2150628
 19   C4 p+1        0.0501486    0.0000000    0.0000000    0.0000000    0.0000000
 20   C4 p-1       -0.2219157    0.0000000    0.0000000    0.0000000    0.0000000
 21   C5 s0        -0.0076144    0.0000000    0.0000000    0.0000000    0.0000000
 22   C5 s0         0.0219487    0.0000000    0.0000000    0.0000000    0.0000000
 23   C5 p0         0.0000000   -0.1320980    0.1766294    0.4575318   -0.2307589
 24   C5 p+1        0.0972401    0.0000000    0.0000000    0.0000000    0.0000000
 25   C5 p-1       -0.2801664    0.0000000    0.0000000    0.0000000    0.0000000
 26   C6 s0        -0.0076144    0.0000000    0.0000000    0.0000000    0.0000000
 27   C6 s0         0.0219487    0.0000000    0.0000000    0.0000000    0.0000000
 28   C6 p0         0.0000000    0.1320980    0.1766294   -0.4575318    0.2307589
 29   C6 p+1       -0.0972401    0.0000000    0.0000000    0.0000000    0.0000000
 30   C6 p-1        0.2801664    0.0000000    0.0000000    0.0000000    0.0000000
 31   H7 s0         0.2580795    0.0000000    0.0000000    0.0000000    0.0000000
 32   H8 s0         0.2580795    0.0000000    0.0000000    0.0000000    0.0000000
 33   H9 s0        -0.1513789    0.0000000    0.0000000    0.0000000    0.0000000
 34   H10 s0       -0.1513789    0.0000000    0.0000000    0.0000000    0.0000000
 35   C11 s0        0.0111239    0.0000000    0.0000000    0.0000000    0.0000000
 36   C11 s0       -0.0384050    0.0000000    0.0000000    0.0000000    0.0000000
 37   C11 p0        0.0000000   -0.3764874   -0.4137856   -0.0003568    0.2236726
 38   C11 p+1       0.1125935    0.0000000    0.0000000    0.0000000    0.0000000
 39   C11 p-1      -0.1363549    0.0000000    0.0000000    0.0000000    0.0000000
 40   C12 s0        0.0111239    0.0000000    0.0000000    0.0000000    0.0000000
 41   C12 s0       -0.0384050    0.0000000    0.0000000    0.0000000    0.0000000
 42   C12 p0        0.0000000    0.3764874   -0.4137856    0.0003568   -0.2236726
 43   C12 p+1      -0.1125935    0.0000000    0.0000000    0.0000000    0.0000000
 44   C12 p-1       0.1363549    0.0000000    0.0000000    0.0000000    0.0000000
 45   H13 s0        0.1827245    0.0000000    0.0000000    0.0000000    0.0000000
 46   H14 s0        0.1827245    0.0000000    0.0000000    0.0000000    0.0000000
 47   C15 s0        0.0046749    0.0000000    0.0000000    0.0000000    0.0000000
 48   C15 s0       -0.0183710    0.0000000    0.0000000    0.0000000    0.0000000
 49   C15 p0        0.0000000   -0.2714085   -0.4179586    0.0095521    0.3973572
 50   C15 p+1      -0.0381576    0.0000000    0.0000000    0.0000000    0.0000000
 51   C15 p-1       0.1094160    0.0000000    0.0000000    0.0000000    0.0000000
 52   C16 s0        0.0046749    0.0000000    0.0000000    0.0000000    0.0000000
 53   C16 s0       -0.0183710    0.0000000    0.0000000    0.0000000    0.0000000
 54   C16 p0        0.0000000    0.2714085   -0.4179586   -0.0095521   -0.3973572
 55   C16 p+1       0.0381576    0.0000000    0.0000000    0.0000000    0.0000000
 56   C16 p-1      -0.1094160    0.0000000    0.0000000    0.0000000    0.0000000
 57   H17 s0        0.1159454    0.0000000    0.0000000    0.0000000    0.0000000
 58   H18 s0        0.1159454    0.0000000    0.0000000    0.0000000    0.0000000
 59   H19 s0       -0.0898258    0.0000000    0.0000000    0.0000000    0.0000000
 60   H20 s0       -0.0898258    0.0000000    0.0000000    0.0000000    0.0000000

            Ene    -0.2875202   -0.2634696   -0.2123532   -0.1951826   -0.1530106
            Sym            Ag           Bg           Au           Bg           Bg
            Occ             2            2            2            2            2


                           36           37           38           39           40

 1    C1 s0         0.0000000    0.0000000    0.0000000    0.0000000    0.0000000
 2    C1 s0         0.0000000    0.0000000    0.0000000    0.0000000    0.0000000
 3    C1 p0         0.4426699    0.0319196    0.0234491    0.4972201    0.5434777
 4    C1 p+1        0.0000000    0.0000000    0.0000000    0.0000000    0.0000000
 5    C1 p-1        0.0000000    0.0000000    0.0000000    0.0000000    0.0000000
 6    C2 s0         0.0000000    0.0000000    0.0000000    0.0000000    0.0000000
 7    C2 s0         0.0000000    0.0000000    0.0000000    0.0000000    0.0000000
 8    C2 p0         0.4426699    0.0319196   -0.0234491    0.4972201   -0.5434777
 9    C2 p+1        0.0000000    0.0000000    0.0000000    0.0000000    0.0000000
 10   C2 p-1        0.0000000    0.0000000    0.0000000    0.0000000    0.0000000
 11   C3 s0         0.0000000    0.0000000    0.0000000    0.0000000    0.0000000
 12   C3 s0         0.0000000    0.0000000    0.0000000    0.0000000    0.0000000
 13   C3 p0        -0.2322706   -0.5826878   -0.2406827   -0.1667396   -0.4641872
 14   C3 p+1        0.0000000    0.0000000    0.0000000    0.0000000    0.0000000
 15   C3 p-1        0.0000000    0.0000000    0.0000000    0.0000000    0.0000000
 16   C4 s0         0.0000000    0.0000000    0.0000000    0.0000000    0.0000000
 17   C4 s0         0.0000000    0.0000000    0.0000000    0.0000000    0.0000000
 18   C4 p0        -0.2322706   -0.5826878    0.2406827   -0.1667396    0.4641872
 19   C4 p+1        0.0000000    0.0000000    0.0000000    0.0000000    0.0000000
 20   C4 p-1        0.0000000    0.0000000    0.0000000    0.0000000    0.0000000
 21   C5 s0         0.0000000    0.0000000    0.0000000    0.0000000    0.0000000
 22   C5 s0         0.0000000    0.0000000    0.0000000    0.0000000    0.0000000
 23   C5 p0        -0.2775443    0.5532411    0.2322373   -0.1992019    0.4668819
 24   C5 p+1        0.0000000    0.0000000    0.0000000    0.0000000    0.0000000
 25   C5 p-1        0.0000000    0.0000000    0.0000000    0.0000000    0.0000000
 26   C6 s0         0.0000000    0.0000000    0.0000000    0.0000000    0.0000000
 27   C6 s0         0.0000000    0.0000000    0.0000000    0.0000000    0.0000000
 28   C6 p0        -0.2775443    0.5532411   -0.2322373   -0.1992019   -0.4668819
 29   C6 p+1        0.0000000    0.0000000    0.0000000    0.0000000    0.0000000
 30   C6 p-1        0.0000000    0.0000000    0.0000000    0.0000000    0.0000000
 31   H7 s0         0.0000000    0.0000000    0.0000000    0.0000000    0.0000000
 32   H8 s0         0.0000000    0.0000000    0.0000000    0.0000000    0.0000000
 33   H9 s0         0.0000000    0.0000000    0.0000000    0.0000000    0.0000000
 34   H10 s0        0.0000000    0.0000000    0.0000000    0.0000000    0.0000000
 35   C11 s0        0.0000000    0.0000000    0.0000000    0.0000000    0.0000000
 36   C11 s0        0.0000000    0.0000000    0.0000000    0.0000000    0.0000000
 37   C11 p0        0.2561378   -0.0038058   -0.5221682   -0.5291280    0.2877212
 38   C11 p+1       0.0000000    0.0000000    0.0000000    0.0000000    0.0000000
 39   C11 p-1       0.0000000    0.0000000    0.0000000    0.0000000    0.0000000
 40   C12 s0        0.0000000    0.0000000    0.0000000    0.0000000    0.0000000
 41   C12 s0        0.0000000    0.0000000    0.0000000    0.0000000    0.0000000
 42   C12 p0        0.2561378   -0.0038058    0.5221682   -0.5291280   -0.2877212
 43   C12 p+1       0.0000000    0.0000000    0.0000000    0.0000000    0.0000000
 44   C12 p-1       0.0000000    0.0000000    0.0000000    0.0000000    0.0000000
 45   H13 s0        0.0000000    0.0000000    0.0000000    0.0000000    0.0000000
 46   H14 s0        0.0000000    0.0000000    0.0000000    0.0000000    0.0000000
 47   C15 s0        0.0000000    0.0000000    0.0000000    0.0000000    0.0000000
 48   C15 s0        0.0000000    0.0000000    0.0000000    0.0000000    0.0000000
 49   C15 p0       -0.4496137   -0.0107623    0.5231104    0.3796967   -0.1561488
 50   C15 p+1       0.0000000    0.0000000    0.0000000    0.0000000    0.0000000
 51   C15 p-1       0.0000000    0.0000000    0.0000000    0.0000000    0.0000000
 52   C16 s0        0.0000000    0.0000000    0.0000000    0.0000000    0.0000000
 53   C16 s0        0.0000000    0.0000000    0.0000000    0.0000000    0.0000000
 54   C16 p0       -0.4496137   -0.0107623   -0.5231104    0.3796967    0.1561488
 55   C16 p+1       0.0000000    0.0000000    0.0000000    0.0000000    0.0000000
 56   C16 p-1       0.0000000    0.0000000    0.0000000    0.0000000    0.0000000
 57   H17 s0        0.0000000    0.0000000    0.0000000    0.0000000    0.0000000
 58   H18 s0        0.0000000    0.0000000    0.0000000    0.0000000    0.0000000
 59   H19 s0        0.0000000    0.0000000    0.0000000    0.0000000    0.0000000
 60   H20 s0        0.0000000    0.0000000    0.0000000    0.0000000    0.0000000

            Ene     0.0375065    0.0901137    0.1107249    0.1821993    0.2723067
            Sym            Au           Au           Bg           Au           Bg
            Occ             0            0            0            0            0


                           41           42           43           44           45

 1    C1 s0         0.0682245    0.0337340    0.0583289    0.0226687    0.0527529
 2    C1 s0        -0.4014798   -0.1981777   -0.3383228   -0.1369720   -0.3182837
 3    C1 p0         0.0000000    0.0000000    0.0000000    0.0000000    0.0000000
 4    C1 p+1        0.2740685    0.1370273    0.4610087   -0.0751785    0.1540637
 5    C1 p-1       -0.0858355   -0.2843775    0.1003027   -0.1039830    0.2596310
 6    C2 s0         0.0682245   -0.0337340   -0.0583289    0.0226687    0.0527529
 7    C2 s0        -0.4014798    0.1981777    0.3383228   -0.1369720   -0.3182837
 8    C2 p0         0.0000000    0.0000000    0.0000000    0.0000000    0.0000000
 9    C2 p+1       -0.2740685    0.1370273    0.4610087    0.0751785   -0.1540637
 10   C2 p-1        0.0858355   -0.2843775    0.1003027    0.1039830   -0.2596310
 11   C3 s0         0.0281423   -0.0059463   -0.0250361   -0.0644269    0.0725685
 12   C3 s0        -0.1734740    0.0287345    0.1522026    0.3934482   -0.4437659
 13   C3 p0         0.0000000    0.0000000    0.0000000    0.0000000    0.0000000
 14   C3 p+1        0.0549792    0.0123702    0.2292477   -0.1242408   -0.1645174
 15   C3 p-1       -0.3042663   -0.3553709    0.1316360    0.0016968   -0.0490668
 16   C4 s0         0.0281423    0.0059463    0.0250361   -0.0644269    0.0725685
 17   C4 s0        -0.1734740   -0.0287345   -0.1522026    0.3934482   -0.4437659
 18   C4 p0         0.0000000    0.0000000    0.0000000    0.0000000    0.0000000
 19   C4 p+1       -0.0549792    0.0123702    0.2292477    0.1242408    0.1645174
 20   C4 p-1        0.3042663   -0.3553709    0.1316360   -0.0016968    0.0490668
 21   C5 s0         0.0464966    0.0158569    0.0050759   -0.0199443   -0.1014386
 22   C5 s0        -0.2809642   -0.0965802   -0.0231585    0.1275234    0.6198501
 23   C5 p0         0.0000000    0.0000000    0.0000000    0.0000000    0.0000000
 24   C5 p+1       -0.1233428    0.0069171    0.3205526    0.2059186   -0.0100510
 25   C5 p-1       -0.2032147   -0.2859381    0.2678093    0.1749611   -0.0386965
 26   C6 s0         0.0464966   -0.0158569   -0.0050759   -0.0199443   -0.1014386
 27   C6 s0        -0.2809642    0.0965802    0.0231585    0.1275234    0.6198501
 28   C6 p0         0.0000000    0.0000000    0.0000000    0.0000000    0.0000000
 29   C6 p+1        0.1233428    0.0069171    0.3205526   -0.2059186    0.0100510
 30   C6 p-1        0.2032147   -0.2859381    0.2678093   -0.1749611    0.0386965
 31   H7 s0         0.4137919    0.3218755   -0.1157949   -0.2916167    0.2268658
 32   H8 s0         0.4137919   -0.3218755    0.1157949   -0.2916167    0.2268658
 33   H9 s0         0.4238202    0.2708243   -0.4056108   -0.2949561   -0.2234266
 34   H10 s0        0.4238202   -0.2708243    0.4056108   -0.2949561   -0.2234266
 35   C11 s0       -0.0500114   -0.0076971    0.0934563    0.0635835   -0.0247334
 36   C11 s0        0.2820725    0.0469877   -0.5460308   -0.3822142    0.1573155
 37   C11 p0        0.0000000    0.0000000    0.0000000    0.0000000    0.0000000
 38   C11 p+1      -0.3391758    0.2183090    0.3325887   -0.0738122   -0.2336953
 39   C11 p-1       0.2432051   -0.3435669   -0.0566178    0.3380393   -0.1403369
 40   C12 s0       -0.0500114    0.0076971   -0.0934563    0.0635835   -0.0247334
 41   C12 s0        0.2820725   -0.0469877    0.5460308   -0.3822142    0.1573155
 42   C12 p0        0.0000000    0.0000000    0.0000000    0.0000000    0.0000000
 43   C12 p+1       0.3391758    0.2183090    0.3325887    0.0738122    0.2336953
 44   C12 p-1      -0.2432051   -0.3435669   -0.0566178   -0.3380393    0.1403369
 45   H13 s0        0.1444421   -0.4338961    0.1589186    0.5796317   -0.1692516
 46   H14 s0        0.1444421    0.4338961   -0.1589186    0.5796317   -0.1692516
 47   C15 s0        0.0409298   -0.0025550   -0.0508908   -0.0199230   -0.1034465
 48   C15 s0       -0.2370004    0.0193185    0.2974828    0.1108163    0.6474864
 49   C15 p0        0.0000000    0.0000000    0.0000000    0.0000000    0.0000000
 50   C15 p+1      -0.1489208    0.1678843    0.1428426   -0.2391713    0.0757233
 51   C15 p-1       0.1376265   -0.3024635   -0.1007362    0.3032489    0.2381697
 52   C16 s0        0.0409298    0.0025550    0.0508908   -0.0199230   -0.1034465
 53   C16 s0       -0.2370004   -0.0193185   -0.2974828    0.1108163    0.6474864
 54   C16 p0        0.0000000    0.0000000    0.0000000    0.0000000    0.0000000
 55   C16 p+1       0.1489208    0.1678843    0.1428426    0.2391713   -0.0757233
 56   C16 p-1      -0.1376265   -0.3024635   -0.1007362   -0.3032489   -0.2381697
 57   H17 s0       -0.1078542    0.3231433    0.0106839   -0.3914621   -0.5134092
 58   H18 s0       -0.1078542   -0.3231433   -0.0106839   -0.3914621   -0.5134092
 59   H19 s0        0.3585859   -0.2838162   -0.3519199    0.2524711   -0.3208864
 60   H20 s0        0.3585859    0.2838162    0.3519199    0.2524711   -0.3208864

            Ene     0.3324664    0.3406253    0.3795119    0.3812584    0.4103160
            Sym            Ag           Bu           Bu           Ag           Ag
            Occ             0            0            0            0            0


                           46           47           48           49           50

 1    C1 s0         0.0811907    0.0221372    0.1289334    0.0608427    0.0372362
 2    C1 s0        -0.4762908   -0.1382558   -0.7823313   -0.3617856   -0.2327378
 3    C1 p0         0.0000000    0.0000000    0.0000000    0.0000000    0.0000000
 4    C1 p+1        0.0166318   -0.2438264   -0.0342154   -0.1115202   -0.0473396
 5    C1 p-1        0.1148143    0.1098234    0.0195617   -0.1461829   -0.3480988
 6    C2 s0        -0.0811907   -0.0221372    0.1289334   -0.0608427    0.0372362
 7    C2 s0         0.4762908    0.1382558   -0.7823313    0.3617856   -0.2327378
 8    C2 p0         0.0000000    0.0000000    0.0000000    0.0000000    0.0000000
 9    C2 p+1        0.0166318   -0.2438264    0.0342154   -0.1115202    0.0473396
 10   C2 p-1        0.1148143    0.1098234   -0.0195617   -0.1461829    0.3480988
 11   C3 s0        -0.0741567   -0.0595023   -0.0799995   -0.0583777   -0.1117669
 12   C3 s0         0.4407397    0.3686645    0.4993977    0.3536415    0.7063475
 13   C3 p0         0.0000000    0.0000000    0.0000000    0.0000000    0.0000000
 14   C3 p+1        0.0223859   -0.3165479   -0.2830547   -0.1286551    0.1177320
 15   C3 p-1        0.1003734    0.3150069    0.0174601   -0.1488305   -0.0926327
 16   C4 s0         0.0741567    0.0595023   -0.0799995    0.0583777   -0.1117669
 17   C4 s0        -0.4407397   -0.3686645    0.4993977   -0.3536415    0.7063475
 18   C4 p0         0.0000000    0.0000000    0.0000000    0.0000000    0.0000000
 19   C4 p+1        0.0223859   -0.3165479    0.2830547   -0.1286551   -0.1177320
 20   C4 p-1        0.1003734    0.3150069   -0.0174601   -0.1488305    0.0926327
 21   C5 s0         0.1013980    0.0073518   -0.0659530    0.0663734    0.0976465
 22   C5 s0        -0.6131433   -0.0329491    0.4118257   -0.4072277   -0.6193774
 23   C5 p0         0.0000000    0.0000000    0.0000000    0.0000000    0.0000000
 24   C5 p+1       -0.1332350   -0.1113077    0.2459159   -0.1421622    0.1809152
 25   C5 p-1       -0.0057994    0.2088820   -0.2384081   -0.1732516   -0.1385091
 26   C6 s0        -0.1013980   -0.0073518   -0.0659530   -0.0663734    0.0976465
 27   C6 s0         0.6131433    0.0329491    0.4118257    0.4072277   -0.6193774
 28   C6 p0         0.0000000    0.0000000    0.0000000    0.0000000    0.0000000
 29   C6 p+1       -0.1332350   -0.1113077   -0.2459159   -0.1421622   -0.1809152
 30   C6 p-1       -0.0057994    0.2088820    0.2384081   -0.1732516    0.1385091
 31   H7 s0        -0.3224969   -0.6031293   -0.3239894   -0.0774202   -0.2197936
 32   H8 s0         0.3224969    0.6031293   -0.3239894    0.0774202   -0.2197936
 33   H9 s0         0.3541690   -0.0447242   -0.1926777    0.4772056    0.3339076
 34   H10 s0       -0.3541690    0.0447242   -0.1926777   -0.4772056    0.3339076
 35   C11 s0        0.0407317   -0.0712584   -0.0922380    0.0708462   -0.0305652
 36   C11 s0       -0.2569375    0.4469100    0.5568720   -0.4289196    0.2135415
 37   C11 p0        0.0000000    0.0000000    0.0000000    0.0000000    0.0000000
 38   C11 p+1       0.1726266   -0.0499090   -0.0845098   -0.1194345   -0.0744068
 39   C11 p-1       0.1626885   -0.2251139   -0.1164689    0.0625101   -0.0310800
 40   C12 s0       -0.0407317    0.0712584   -0.0922380   -0.0708462   -0.0305652
 41   C12 s0        0.2569375   -0.4469100    0.5568720    0.4289196    0.2135415
 42   C12 p0        0.0000000    0.0000000    0.0000000    0.0000000    0.0000000
 43   C12 p+1       0.1726266   -0.0499090    0.0845098   -0.1194345    0.0744068
 44   C12 p-1       0.1626885   -0.2251139    0.1164689    0.0625101    0.0310800
 45   H13 s0        0.2112956   -0.4371549   -0.3645674    0.3007830   -0.0719265
 46   H14 s0       -0.2112956    0.4371549   -0.3645674   -0.3007830   -0.0719265
 47   C15 s0        0.0858626   -0.0202369    0.0674721   -0.1128569   -0.0645795
 48   C15 s0       -0.5396703    0.1353985   -0.4097870    0.7066842    0.4149328
 49   C15 p0        0.0000000    0.0000000    0.0000000    0.0000000    0.0000000
 50   C15 p+1      -0.1344862    0.2956087   -0.0513886    0.0239527    0.3819519
 51   C15 p-1      -0.2516770   -0.0502690    0.0001425    0.1460818    0.1347813
 52   C16 s0       -0.0858626    0.0202369    0.0674721    0.1128569   -0.0645795
 53   C16 s0        0.5396703   -0.1353985   -0.4097870   -0.7066842    0.4149328
 54   C16 p0        0.0000000    0.0000000    0.0000000    0.0000000    0.0000000
 55   C16 p+1      -0.1344862    0.2956087    0.0513886    0.0239527   -0.3819519
 56   C16 p-1      -0.2516770   -0.0502690   -0.0001425    0.1460818   -0.1347813
 57   H17 s0        0.4478481    0.0512596    0.2116095   -0.5255262   -0.2950079
 58   H18 s0       -0.4478481   -0.0512596    0.2116095    0.5255262   -0.2950079
 59   H19 s0        0.3176180   -0.3376047    0.2594717   -0.3234689   -0.4750874
 60   H20 s0       -0.3176180    0.3376047    0.2594717    0.3234689   -0.4750874

            Ene     0.4112025    0.4257742    0.4393342    0.4536814    0.4783082
            Sym            Bu           Bu           Ag           Bu           Ag
            Occ             0            0            0            0            0


                           51           52           53           54           55

 1    C1 s0         0.0672329    0.0031877    0.0005229    0.0587586    0.0899207
 2    C1 s0        -0.4488072   -0.0113331    0.0025063   -0.4056641   -0.6087474
 3    C1 p0         0.0000000    0.0000000    0.0000000    0.0000000    0.0000000
 4    C1 p+1       -0.6024093   -0.0567793    0.0450394    0.0074209    0.0516072
 5    C1 p-1        0.1248972   -0.5609800   -0.2067857   -0.2496531    0.2124892
 6    C2 s0         0.0672329   -0.0031877    0.0005229   -0.0587586   -0.0899207
 7    C2 s0        -0.4488072    0.0113331    0.0025063    0.4056641    0.6087474
 8    C2 p0         0.0000000    0.0000000    0.0000000    0.0000000    0.0000000
 9    C2 p+1        0.6024093   -0.0567793   -0.0450394    0.0074209    0.0516072
 10   C2 p-1       -0.1248972   -0.5609800    0.2067857   -0.2496531    0.2124892
 11   C3 s0        -0.0118546   -0.0966000   -0.0039174    0.0367832    0.0073376
 12   C3 s0         0.0774785    0.6477705    0.0315079   -0.2500689   -0.0639245
 13   C3 p0         0.0000000    0.0000000    0.0000000    0.0000000    0.0000000
 14   C3 p+1       -0.1544679   -0.1078887    0.2006931   -0.7220123   -0.0869742
 15   C3 p-1       -0.4532229    0.0206417   -0.5361708   -0.2179899   -0.2517258
 16   C4 s0        -0.0118546    0.0966000   -0.0039174   -0.0367832   -0.0073376
 17   C4 s0         0.0774785   -0.6477705    0.0315079    0.2500689    0.0639245
 18   C4 p0         0.0000000    0.0000000    0.0000000    0.0000000    0.0000000
 19   C4 p+1        0.1544679   -0.1078887   -0.2006931   -0.7220123   -0.0869742
 20   C4 p-1        0.4532229    0.0206417    0.5361708   -0.2179899   -0.2517258
 21   C5 s0        -0.0490962   -0.0355325    0.0021475   -0.0872903    0.0351783
 22   C5 s0         0.3176968    0.2476375   -0.0209983    0.5999898   -0.2322628
 23   C5 p0         0.0000000    0.0000000    0.0000000    0.0000000    0.0000000
 24   C5 p+1       -0.0246548    0.4790925    0.3978225   -0.3957030   -0.1875741
 25   C5 p-1       -0.3242276   -0.1921171    0.5240082    0.3314434    0.3653232
 26   C6 s0        -0.0490962    0.0355325    0.0021475    0.0872903   -0.0351783
 27   C6 s0         0.3176968   -0.2476375   -0.0209983   -0.5999898    0.2322628
 28   C6 p0         0.0000000    0.0000000    0.0000000    0.0000000    0.0000000
 29   C6 p+1        0.0246548    0.4790925   -0.3978225   -0.3957030   -0.1875741
 30   C6 p-1        0.3242276   -0.1921171   -0.5240082    0.3314434    0.3653232
 31   H7 s0         0.2532093   -0.3067967    0.4482604    0.0781030    0.1409934
 32   H8 s0         0.2532093    0.3067967    0.4482604   -0.0781030   -0.1409934
 33   H9 s0         0.0560939   -0.2100869   -0.5190677   -0.2610651    0.0021408
 34   H10 s0        0.0560939    0.2100869   -0.5190677    0.2610651   -0.0021408
 35   C11 s0        0.0752455    0.0268919   -0.0514278    0.0605275   -0.0232458
 36   C11 s0       -0.4915743   -0.1944176    0.3514888   -0.4154757    0.1788050
 37   C11 p0        0.0000000    0.0000000    0.0000000    0.0000000    0.0000000
 38   C11 p+1      -0.0093263   -0.0413713    0.1540572   -0.0631371    0.4820727
 39   C11 p-1       0.1532069   -0.2661746    0.1208941    0.0648128   -0.3080170
 40   C12 s0        0.0752455   -0.0268919   -0.0514278   -0.0605275    0.0232458
 41   C12 s0       -0.4915743    0.1944176    0.3514888    0.4154757   -0.1788050
 42   C12 p0        0.0000000    0.0000000    0.0000000    0.0000000    0.0000000
 43   C12 p+1       0.0093263   -0.0413713   -0.1540572   -0.0631371    0.4820727
 44   C12 p-1      -0.1532069   -0.2661746   -0.1208941    0.0648128   -0.3080170
 45   H13 s0        0.3077320   -0.1486796   -0.0922429    0.2376959   -0.3505193
 46   H14 s0        0.3077320    0.1486796   -0.0922429   -0.2376959    0.3505193
 47   C15 s0       -0.0197183   -0.0089830    0.0426637   -0.0068634    0.0184971
 48   C15 s0        0.1225063    0.0695114   -0.2900884    0.0427692   -0.1312968
 49   C15 p0        0.0000000    0.0000000    0.0000000    0.0000000    0.0000000
 50   C15 p+1       0.1264179   -0.4836047    0.2668121   -0.1064361   -0.2393879
 51   C15 p-1      -0.3414995    0.0210882    0.0841000   -0.2626332    0.5276368
 52   C16 s0       -0.0197183    0.0089830    0.0426637    0.0068634   -0.0184971
 53   C16 s0        0.1225063   -0.0695114   -0.2900884   -0.0427692    0.1312968
 54   C16 p0        0.0000000    0.0000000    0.0000000    0.0000000    0.0000000
 55   C16 p+1      -0.1264179   -0.4836047   -0.2668121   -0.1064361   -0.2393879
 56   C16 p-1       0.3414995    0.0210882   -0.0841000   -0.2626332    0.5276368
 57   H17 s0        0.2301894   -0.1003899    0.1399928    0.2043482   -0.3631760
 58   H18 s0        0.2301894    0.1003899    0.1399928   -0.2043482    0.3631760
 59   H19 s0       -0.2477525    0.3560300   -0.0644312   -0.0043041    0.3387762
 60   H20 s0       -0.2477525   -0.3560300   -0.0644312    0.0043041   -0.3387762

            Ene     0.5255471    0.5463376    0.5764059    0.5984325    0.6248766
            Sym            Ag           Bu           Ag           Bu           Bu
            Occ             0            0            0            0            0


                           56           57           58           59           60

 1    C1 s0         0.0150991    0.0166068    0.0200600    0.0049906    0.0441398
 2    C1 s0        -0.0906070   -0.1059969   -0.1414692   -0.0334018   -0.3284452
 3    C1 p0         0.0000000    0.0000000    0.0000000    0.0000000    0.0000000
 4    C1 p+1        0.3652457    0.3810511   -0.1342310   -0.0473689   -0.6584536
 5    C1 p-1       -0.1169609    0.1337581   -0.4549682   -0.7026855    0.1597604
 6    C2 s0         0.0150991    0.0166068   -0.0200600    0.0049906   -0.0441398
 7    C2 s0        -0.0906070   -0.1059969    0.1414692   -0.0334018    0.3284452
 8    C2 p0         0.0000000    0.0000000    0.0000000    0.0000000    0.0000000
 9    C2 p+1       -0.3652457   -0.3810511   -0.1342310    0.0473689   -0.6584536
 10   C2 p-1        0.1169609   -0.1337581   -0.4549682    0.7026855    0.1597604
 11   C3 s0         0.0272551   -0.0190882   -0.0461022   -0.0074475   -0.0519588
 12   C3 s0        -0.1911700    0.1376135    0.3335519    0.0518140    0.3768014
 13   C3 p0         0.0000000    0.0000000    0.0000000    0.0000000    0.0000000
 14   C3 p+1       -0.3845566    0.3915819   -0.1274443   -0.5329805    0.2438613
 15   C3 p-1        0.2530597    0.1131015   -0.1952438   -0.2419095   -0.5671687
 16   C4 s0         0.0272551   -0.0190882    0.0461022   -0.0074475    0.0519588
 17   C4 s0        -0.1911700    0.1376135   -0.3335519    0.0518140   -0.3768014
 18   C4 p0         0.0000000    0.0000000    0.0000000    0.0000000    0.0000000
 19   C4 p+1        0.3845566   -0.3915819   -0.1274443    0.5329805    0.2438613
 20   C4 p-1       -0.2530597   -0.1131015   -0.1952438    0.2419095   -0.5671687
 21   C5 s0        -0.0318129    0.0165810   -0.0207378    0.0075822    0.0567525
 22   C5 s0         0.2188695   -0.1201610    0.1548250   -0.0514352   -0.4138280
 23   C5 p0         0.0000000    0.0000000    0.0000000    0.0000000    0.0000000
 24   C5 p+1       -0.3059547    0.4491208    0.2143501   -0.4130994    0.3935530
 25   C5 p-1        0.1713373    0.0239206   -0.0455884    0.4340898    0.4983521
 26   C6 s0        -0.0318129    0.0165810    0.0207378    0.0075822   -0.0567525
 27   C6 s0         0.2188695   -0.1201610   -0.1548250   -0.0514352    0.4138280
 28   C6 p0         0.0000000    0.0000000    0.0000000    0.0000000    0.0000000
 29   C6 p+1        0.3059547   -0.4491208    0.2143501    0.4130994    0.3935530
 30   C6 p-1       -0.1713373   -0.0239206   -0.0455884   -0.4340898    0.4983521
 31   H7 s0        -0.2098490   -0.0415408   -0.0208163    0.0073441    0.2696686
 32   H8 s0        -0.2098490   -0.0415408    0.0208163    0.0073441   -0.2696686
 33   H9 s0        -0.0571080   -0.1960795   -0.1045183   -0.0392121   -0.2778577
 34   H10 s0       -0.0571080   -0.1960795    0.1045183   -0.0392121    0.2778577
 35   C11 s0       -0.0410982    0.0418574   -0.0615284    0.0273730   -0.0127299
 36   C11 s0        0.2852764   -0.3280730    0.4665355   -0.2175282    0.0783565
 37   C11 p0        0.0000000    0.0000000    0.0000000    0.0000000    0.0000000
 38   C11 p+1      -0.1751570   -0.6625846    0.4620195   -0.3172757   -0.3606854
 39   C11 p-1       0.5484728   -0.1142417    0.6101533   -0.4312588    0.0199698
 40   C12 s0       -0.0410982    0.0418574    0.0615284    0.0273730    0.0127299
 41   C12 s0        0.2852764   -0.3280730   -0.4665355   -0.2175282   -0.0783565
 42   C12 p0        0.0000000    0.0000000    0.0000000    0.0000000    0.0000000
 43   C12 p+1       0.1751570    0.6625846    0.4620195    0.3172757   -0.3606854
 44   C12 p-1      -0.5484728    0.1142417    0.6101533    0.4312588    0.0199698
 45   H13 s0        0.3150288    0.1472936    0.1709812   -0.1575396    0.0481015
 46   H14 s0        0.3150288    0.1472936   -0.1709812   -0.1575396   -0.0481015
 47   C15 s0        0.0313271   -0.0490223    0.0712969   -0.0416601   -0.0096064
 48   C15 s0       -0.2270882    0.3667091   -0.5379928    0.3256688    0.0819366
 49   C15 p0        0.0000000    0.0000000    0.0000000    0.0000000    0.0000000
 50   C15 p+1       0.5350781   -0.1968993    0.5386142   -0.3185958   -0.0008912
 51   C15 p-1      -0.1675728   -0.5813075    0.3970384   -0.2564920   -0.2191241
 52   C16 s0        0.0313271   -0.0490223   -0.0712969   -0.0416601    0.0096064
 53   C16 s0       -0.2270882    0.3667091    0.5379928    0.3256688   -0.0819366
 54   C16 p0        0.0000000    0.0000000    0.0000000    0.0000000    0.0000000
 55   C16 p+1      -0.5350781    0.1968993    0.5386142    0.3185958   -0.0008912
 56   C16 p-1       0.1675728    0.5813075    0.3970384    0.2564920   -0.2191241
 57   H17 s0        0.2893778    0.2629111   -0.0100729    0.0324914    0.1372165
 58   H18 s0        0.2893778    0.2629111    0.0100729    0.0324914   -0.1372165
 59   H19 s0       -0.3307340   -0.1157407   -0.0932879    0.0478822   -0.0647595
 60   H20 s0       -0.3307340   -0.1157407    0.0932879    0.0478822    0.0647595

            Ene     0.6398106    0.6828292    0.7173472    0.7790471    0.7942426
            Sym            Ag           Ag           Bu           Ag           Bu
            Occ             0            0            0            0            0



*** tstop() called on osmium at Sun Jun 11 22:51:18 2023
Module time:
	user time   =      10.56 seconds =       0.18 minutes
	system time =       0.24 seconds =       0.00 minutes
	total time  =         11 seconds =       0.18 minutes
Total time:
	user time   =      10.56 seconds =       0.18 minutes
	system time =       0.24 seconds =       0.00 minutes
	total time  =         11 seconds =       0.18 minutes


Properties will be evaluated at   0.000000,   0.000000,   0.000000 [a0]
OEProp: No title given, name of density matrix used for the following properties is 'SCF density'

 Multipole Moments:

 ------------------------------------------------------------------------------------
     Multipole            Electronic (a.u.)      Nuclear  (a.u.)        Total (a.u.)
 ------------------------------------------------------------------------------------

 L = 1.  Multiply by 2.5417464519 to convert [e a0] to [Debye]
 Dipole X            :          0.0000000            0.0000000            0.0000000
 Dipole Y            :          0.0000000            0.0000000            0.0000000
 Dipole Z            :          0.0000000            0.0000000            0.0000000
 Magnitude           :                                                    0.0000000

 L = 2.  Multiply by 1.3450342976 to convert [e a0^2] to [Debye ang]
 Quadrupole XX       :      -1534.5999385         1496.8839879          -37.7159506
 Quadrupole XY       :        -11.5257517           11.4580037           -0.0677480
 Quadrupole XZ       :          0.0000000            0.0000000            0.0000000
 Quadrupole YY       :       -282.2252274          244.8754365          -37.3497909
 Quadrupole YZ       :          0.0000000            0.0000000            0.0000000
 Quadrupole ZZ       :        -43.5874068            0.0000000          -43.5874068
 Traceless XX        :       -914.4624143          916.2975131            1.8350988
 Traceless YY        :        337.9122968         -335.7110383            2.2012585
 Traceless ZZ        :        576.5501174         -580.5864748           -4.0363574

 L = 3.  Multiply by 0.7117614979 to convert [e a0^3] to [Debye ang^2]
 Octupole XXX        :          0.0000000            0.0000000            0.0000000
 Octupole XXY        :          0.0000000            0.0000000            0.0000000
 Octupole XXZ        :          0.0000000            0.0000000            0.0000000
 Octupole XYY        :          0.0000000            0.0000000            0.0000000
 Octupole XYZ        :          0.0000000            0.0000000            0.0000000
 Octupole XZZ        :          0.0000000            0.0000000            0.0000000
 Octupole YYY        :          0.0000000            0.0000000            0.0000000
 Octupole YYZ        :          0.0000000            0.0000000            0.0000000
 Octupole YZZ        :          0.0000000            0.0000000            0.0000000
 Octupole ZZZ        :          0.0000000            0.0000000            0.0000000

 L = 4.  Multiply by 0.3766479641 to convert [e a0^4] to [Debye ang^3]
 Hexadecapole XXXX   :     -73427.7950217        68490.6488536        -4937.1461680
 Hexadecapole XXXY   :      -2529.1855199         2491.6209064          -37.5646135
 Hexadecapole XXXZ   :          0.0000000            0.0000000            0.0000000
 Hexadecapole XXYY   :      -3618.1543314         2641.3398160         -976.8145155
 Hexadecapole XXYZ   :          0.0000000            0.0000000            0.0000000
 Hexadecapole XXZZ   :       -975.0274671            0.0000000         -975.0274671
 Hexadecapole XYYY   :         25.3068646          -48.3518189          -23.0449544
 Hexadecapole XYYZ   :          0.0000000            0.0000000            0.0000000
 Hexadecapole XYZZ   :         -7.1189207            0.0000000           -7.1189207
 Hexadecapole XZZZ   :          0.0000000            0.0000000            0.0000000
 Hexadecapole YYYY   :      -2980.6489702         2103.6746443         -876.9743259
 Hexadecapole YYYZ   :          0.0000000            0.0000000            0.0000000
 Hexadecapole YYZZ   :       -191.8261435            0.0000000         -191.8261435
 Hexadecapole YZZZ   :          0.0000000            0.0000000            0.0000000
 Hexadecapole ZZZZ   :       -126.4123589            0.0000000         -126.4123589

 L = 5.  Multiply by 0.1993135191 to convert [e a0^5] to [Debye ang^4]
 32-pole XXXXX       :          0.0000000            0.0000000            0.0000000
 32-pole XXXXY       :          0.0000000            0.0000000            0.0000000
 32-pole XXXXZ       :          0.0000000            0.0000000            0.0000000
 32-pole XXXYY       :          0.0000000            0.0000000            0.0000000
 32-pole XXXYZ       :          0.0000000            0.0000000            0.0000000
 32-pole XXXZZ       :          0.0000000            0.0000000            0.0000000
 32-pole XXYYY       :          0.0000000            0.0000000            0.0000000
 32-pole XXYYZ       :          0.0000000            0.0000000            0.0000000
 32-pole XXYZZ       :          0.0000000            0.0000000            0.0000000
 32-pole XXZZZ       :          0.0000000            0.0000000            0.0000000
 32-pole XYYYY       :          0.0000000            0.0000000            0.0000000
 32-pole XYYYZ       :          0.0000000            0.0000000            0.0000000
 32-pole XYYZZ       :          0.0000000            0.0000000            0.0000000
 32-pole XYZZZ       :          0.0000000            0.0000000            0.0000000
 32-pole XZZZZ       :          0.0000000            0.0000000            0.0000000
 32-pole YYYYY       :          0.0000000            0.0000000            0.0000000
 32-pole YYYYZ       :          0.0000000            0.0000000            0.0000000
 32-pole YYYZZ       :          0.0000000            0.0000000            0.0000000
 32-pole YYZZZ       :          0.0000000            0.0000000            0.0000000
 32-pole YZZZZ       :          0.0000000            0.0000000            0.0000000
 32-pole ZZZZZ       :          0.0000000            0.0000000            0.0000000

 ------------------------------------------------------------------------------------
  Mulliken Charges: (a.u.)
   Center  Symbol    Alpha    Beta     Spin     Total
       1     C     3.00219  3.00219  0.00000 -0.00438
       2     C     3.00219  3.00219  0.00000 -0.00438
       3     C     3.03835  3.03835  0.00000 -0.07670
       4     C     3.03835  3.03835  0.00000 -0.07670
       5     C     3.03854  3.03854  0.00000 -0.07709
       6     C     3.03854  3.03854  0.00000 -0.07709
       7     H     0.46102  0.46102  0.00000  0.07796
       8     H     0.46102  0.46102  0.00000  0.07796
       9     H     0.46036  0.46036  0.00000  0.07929
      10     H     0.46036  0.46036  0.00000  0.07929
      11     C     3.03817  3.03817  0.00000 -0.07634
      12     C     3.03817  3.03817  0.00000 -0.07634
      13     H     0.46167  0.46167  0.00000  0.07666
      14     H     0.46167  0.46167  0.00000  0.07666
      15     C     3.07738  3.07738  0.00000 -0.15475
      16     C     3.07738  3.07738  0.00000 -0.15475
      17     H     0.46196  0.46196  0.00000  0.07609
      18     H     0.46196  0.46196  0.00000  0.07609
      19     H     0.46037  0.46037  0.00000  0.07926
      20     H     0.46037  0.46037  0.00000  0.07926

   Total alpha = 35.00000, Total beta = 35.00000, Total charge = -0.00000

  Lowdin Charges: (a.u.)
   Center  Symbol    Alpha    Beta     Spin     Total
       1     C     2.99813  2.99813  0.00000  0.00375
       2     C     2.99813  2.99813  0.00000  0.00375
       3     C     3.02196  3.02196  0.00000 -0.04391
       4     C     3.02196  3.02196  0.00000 -0.04391
       5     C     3.02210  3.02210  0.00000 -0.04419
       6     C     3.02210  3.02210  0.00000 -0.04419
       7     H     0.47890  0.47890  0.00000  0.04220
       8     H     0.47890  0.47890  0.00000  0.04220
       9     H     0.47813  0.47813  0.00000  0.04373
      10     H     0.47813  0.47813  0.00000  0.04373
      11     C     3.01949  3.01949  0.00000 -0.03898
      12     C     3.01949  3.01949  0.00000 -0.03898
      13     H     0.47949  0.47949  0.00000  0.04102
      14     H     0.47949  0.47949  0.00000  0.04102
      15     C     3.04583  3.04583  0.00000 -0.09165
      16     C     3.04583  3.04583  0.00000 -0.09165
      17     H     0.47849  0.47849  0.00000  0.04302
      18     H     0.47849  0.47849  0.00000  0.04302
      19     H     0.47749  0.47749  0.00000  0.04502
      20     H     0.47749  0.47749  0.00000  0.04502

  Total alpha = 35.00000, Total beta = 35.00000, Total charge = -0.00000

    Psi4 stopped on: Sunday, 11 June 2023 10:51PM
    Psi4 wall time for execution: 0:00:10.93

*** Psi4 exiting successfully. Buy a developer a beer!
