
    -----------------------------------------------------------------------
          Psi4: An Open-Source Ab Initio Electronic Structure Package
                               Psi4 1.7 release

                         Git: Rev {HEAD} 6ce35a5 


    D. G. A. Smith, L. A. Burns, A. C. Simmonett, R. M. Parrish,
    M. C. Schieber, R. Galvelis, P. Kraus, H. Kruse, R. Di Remigio,
    A. Alenaizan, A. M. James, S. Lehtola, J. P. Misiewicz, M. Scheurer,
    R. A. Shaw, J. B. Schriber, Y. Xie, Z. L. Glick, D. A. Sirianni,
    J. S. O'Brien, J. M. Waldrop, A. Kumar, E. G. Hohenstein,
    B. P. Pritchard, B. R. Brooks, H. F. Schaefer III, A. Yu. Sokolov,
    K. Patkowski, A. E. DePrince III, U. Bozkaya, R. A. King,
    F. A. Evangelista, J. M. Turney, T. D. Crawford, C. D. Sherrill,
    J. Chem. Phys. 152(18) 184108 (2020). https://doi.org/10.1063/5.0006002

                            Additional Code Authors
    E. T. Seidl, C. L. Janssen, E. F. Valeev, M. L. Leininger,
    J. F. Gonthier, R. M. Richard, H. R. McAlexander, M. Saitow, X. Wang,
    P. Verma, M. H. Lechner, A. Jiang, S. Behnle, A. G. Heide,
    M. F. Herbst, and D. L. Poole

             Previous Authors, Complete List of Code Contributors,
                       and Citations for Specific Modules
    https://github.com/psi4/psi4/blob/master/codemeta.json
    https://github.com/psi4/psi4/graphs/contributors
    http://psicode.org/psi4manual/master/introduction.html#citing-psifour

    -----------------------------------------------------------------------


    Psi4 started on: Sunday, 11 June 2023 10:51PM

    Process ID: 69090
    Host:       osmium
    PSIDATADIR: /home/eric/.pyenv/versions/miniforge3-4.10.1-3/envs/psi4-dev/share/psi4
    Memory:     500.0 MiB
    Threads:    1
    
  ==> Input File <==

--------------------------------------------------------------------------
molecule water {
0 1
O
H 1 0.99
H 1 0.99 2 106.0
}

set {
    basis sto-3g
}

energy('mp2')
--------------------------------------------------------------------------

Scratch directory: /tmp/
    SCF Algorithm Type (re)set to DF.

*** tstart() called on osmium
*** at Sun Jun 11 22:51:08 2023

   => Loading Basis Set <=

    Name: STO-3G
    Role: ORBITAL
    Keyword: BASIS
    atoms 1   entry O          line    81 file /home/eric/.pyenv/versions/miniforge3-4.10.1-3/envs/psi4-dev/share/psi4/basis/sto-3g.gbs 
    atoms 2-3 entry H          line    19 file /home/eric/.pyenv/versions/miniforge3-4.10.1-3/envs/psi4-dev/share/psi4/basis/sto-3g.gbs 


         ---------------------------------------------------------
                                   SCF
               by Justin Turney, Rob Parrish, Andy Simmonett
                          and Daniel G. A. Smith
                              RHF Reference
                        1 Threads,    500 MiB Core
         ---------------------------------------------------------

  ==> Geometry <==

    Molecular point group: c2v
    Full point group: C2v

    Geometry (in Angstrom), charge = 0, multiplicity = 1:

       Center              X                  Y                   Z               Mass       
    ------------   -----------------  -----------------  -----------------  -----------------
         O            0.000000000000     0.000000000000    -0.066678531538    15.994914619570
         H            0.000000000000    -0.790649154947     0.529118341382     1.007825032230
         H            0.000000000000     0.790649154947     0.529118341382     1.007825032230

  Running in c2v symmetry.

  Rotational constants: A =     26.52958  B =     13.37869  C =      8.89367 [cm^-1]
  Rotational constants: A = 795336.70717  B = 401083.17149  C = 266625.60076 [MHz]
  Nuclear repulsion =    8.887006260809876

  Charge       = 0
  Multiplicity = 1
  Electrons    = 10
  Nalpha       = 5
  Nbeta        = 5

  ==> Algorithm <==

  SCF Algorithm Type is DF.
  DIIS enabled.
  MOM disabled.
  Fractional occupation disabled.
  Guess Type is SAD.
  Energy threshold   = 1.00e-08
  Density threshold  = 1.00e-08
  Integral threshold = 1.00e-12

  ==> Primary Basis <==

  Basis Set: STO-3G
    Blend: STO-3G
    Number of shells: 5
    Number of basis functions: 7
    Number of Cartesian functions: 7
    Spherical Harmonics?: true
    Max angular momentum: 1

   => Loading Basis Set <=

    Name: (STO-3G AUX)
    Role: JKFIT
    Keyword: DF_BASIS_SCF
    atoms 1   entry O          line   318 file /home/eric/.pyenv/versions/miniforge3-4.10.1-3/envs/psi4-dev/share/psi4/basis/def2-universal-jkfit.gbs 
    atoms 2-3 entry H          line    18 file /home/eric/.pyenv/versions/miniforge3-4.10.1-3/envs/psi4-dev/share/psi4/basis/def2-universal-jkfit.gbs 

  ==> Integral Setup <==

  DFHelper Memory: AOs need 0.000 GiB; user supplied 0.366 GiB. Using in-core AOs.

  ==> MemDFJK: Density-Fitted J/K Matrices <==

    J tasked:                   Yes
    K tasked:                   Yes
    wK tasked:                   No
    OpenMP threads:               1
    Memory [MiB]:               375
    Algorithm:                 Core
    Schwarz Cutoff:           1E-12
    Mask sparsity (%):       0.0000
    Fitting Condition:        1E-10

   => Auxiliary Basis Set <=

  Basis Set: (STO-3G AUX)
    Blend: DEF2-UNIVERSAL-JKFIT
    Number of shells: 37
    Number of basis functions: 113
    Number of Cartesian functions: 133
    Spherical Harmonics?: true
    Max angular momentum: 4

  Minimum eigenvalue in the overlap matrix is 3.3370618791E-01.
  Reciprocal condition number of the overlap matrix is 1.9580012703E-01.
    Using symmetric orthogonalization.

  ==> Pre-Iterations <==

  SCF Guess: Superposition of Atomic Densities via on-the-fly atomic UHF (no occupation information).

   -------------------------
    Irrep   Nso     Nmo    
   -------------------------
     A1         4       4 
     A2         0       0 
     B1         1       1 
     B2         2       2 
   -------------------------
    Total       7       7
   -------------------------

  ==> Iterations <==

                           Total Energy        Delta E     RMS |[F,P]|

   @DF-RHF iter SAD:   -74.14297592295972   -7.41430e+01   0.00000e+00 
   @DF-RHF iter   1:   -74.91155100978654   -7.68575e-01   5.53247e-02 DIIS/ADIIS
   @DF-RHF iter   2:   -74.96336303704138   -5.18120e-02   8.76069e-03 DIIS/ADIIS
   @DF-RHF iter   3:   -74.96433807964057   -9.75043e-04   2.01339e-03 DIIS/ADIIS
   @DF-RHF iter   4:   -74.96441557381340   -7.74942e-05   2.15431e-04 DIIS/ADIIS
   @DF-RHF iter   5:   -74.96441712314223   -1.54933e-06   1.80293e-05 DIIS
   @DF-RHF iter   6:   -74.96441713225829   -9.11606e-09   4.15317e-07 DIIS
   @DF-RHF iter   7:   -74.96441713226277   -4.47642e-12   2.08028e-09 DIIS
  Energy and wave function converged.


  ==> Post-Iterations <==

    Orbital Energies [Eh]
    ---------------------

    Doubly Occupied:                                                      

       1A1   -20.243976     2A1    -1.250662     1B2    -0.603166  
       3A1    -0.445470     1B1    -0.388215  

    Virtual:                                                              

       4A1     0.570772     2B2     0.708631  

    Final Occupation by Irrep:
             A1    A2    B1    B2 
    DOCC [     3,    0,    1,    1 ]
    NA   [     3,    0,    1,    1 ]
    NB   [     3,    0,    1,    1 ]

  @DF-RHF Final Energy:   -74.96441713226277

   => Energetics <=

    Nuclear Repulsion Energy =              8.8870062608098763
    One-Electron Energy =                -121.8398687308066997
    Two-Electron Energy =                  37.9884453377340705
    Total Energy =                        -74.9644171322627528

Computation Completed


Properties will be evaluated at   0.000000,   0.000000,   0.000000 [a0]

Properties computed using the SCF density matrix


 Multipole Moments:

 ------------------------------------------------------------------------------------
     Multipole            Electronic (a.u.)      Nuclear  (a.u.)        Total (a.u.)
 ------------------------------------------------------------------------------------

 L = 1.  Multiply by 2.5417464519 to convert [e a0] to [Debye]
 Dipole X            :          0.0000000            0.0000000            0.0000000
 Dipole Y            :          0.0000000            0.0000000            0.0000000
 Dipole Z            :         -0.3334523            0.9917442            0.6582919
 Magnitude           :                                                    0.6582919

 ------------------------------------------------------------------------------------

*** tstop() called on osmium at Sun Jun 11 22:51:08 2023
Module time:
	user time   =       0.28 seconds =       0.00 minutes
	system time =       0.00 seconds =       0.00 minutes
	total time  =          0 seconds =       0.00 minutes
Total time:
	user time   =       0.28 seconds =       0.00 minutes
	system time =       0.00 seconds =       0.00 minutes
	total time  =          0 seconds =       0.00 minutes

*** tstart() called on osmium
*** at Sun Jun 11 22:51:08 2023


  //>>>>>>>>>>>>>>>>>>>>>>>>>>>>>>>>>>>//
  //               DFMP2               //
  //<<<<<<<<<<<<<<<<<<<<<<<<<<<<<<<<<<<//

   => Loading Basis Set <=

    Name: (STO-3G AUX)
    Role: RIFIT
    Keyword: DF_BASIS_MP2
    atoms 1   entry O          line   233 file /home/eric/.pyenv/versions/miniforge3-4.10.1-3/envs/psi4-dev/share/psi4/basis/def2-svp-ri.gbs 
    atoms 2-3 entry H          line    22 file /home/eric/.pyenv/versions/miniforge3-4.10.1-3/envs/psi4-dev/share/psi4/basis/def2-svp-ri.gbs 

	 --------------------------------------------------------
	                          DF-MP2                         
	      2nd-Order Density-Fitted Moller-Plesset Theory     
	              RMP2 Wavefunction,   1 Threads             
	                                                         
	        Rob Parrish, Justin Turney, Andy Simmonett,      
	           Ed Hohenstein, and C. David Sherrill          
	 --------------------------------------------------------

   => Auxiliary Basis Set <=

  Basis Set: (STO-3G AUX)
    Blend: DEF2-SVP-RI
    Number of shells: 28
    Number of basis functions: 76
    Number of Cartesian functions: 85
    Spherical Harmonics?: true
    Max angular momentum: 3

	 --------------------------------------------------------
	                 NBF =     7, NAUX =    76
	 --------------------------------------------------------
	   CLASS    FOCC     OCC    AOCC    AVIR     VIR    FVIR
	   PAIRS       0       5       5       2       2       0
	 --------------------------------------------------------

	-----------------------------------------------------------
	 ==================> DF-MP2 Energies <==================== 
	-----------------------------------------------------------
	 Reference Energy          =     -74.9644171322627670 [Eh]
	 Singles Energy            =      -0.0000000000000000 [Eh]
	 Same-Spin Energy          =      -0.0021861282758613 [Eh]
	 Opposite-Spin Energy      =      -0.0358524302098530 [Eh]
	 Correlation Energy        =      -0.0380385584857143 [Eh]
	 Total Energy              =     -75.0024556907484765 [Eh]
	-----------------------------------------------------------
	 ================> DF-SCS-MP2 Energies <================== 
	-----------------------------------------------------------
	 SCS Same-Spin Scale       =       0.3333333333333333 [-]
	 SCS Opposite-Spin Scale   =       1.2000000000000000 [-]
	 SCS Same-Spin Energy      =      -0.0007287094252871 [Eh]
	 SCS Opposite-Spin Energy  =      -0.0430229162518236 [Eh]
	 SCS Correlation Energy    =      -0.0437516256771107 [Eh]
	 SCS Total Energy          =     -75.0081687579398846 [Eh]
	-----------------------------------------------------------


*** tstop() called on osmium at Sun Jun 11 22:51:08 2023
Module time:
	user time   =       0.04 seconds =       0.00 minutes
	system time =       0.00 seconds =       0.00 minutes
	total time  =          0 seconds =       0.00 minutes
Total time:
	user time   =       0.32 seconds =       0.01 minutes
	system time =       0.00 seconds =       0.00 minutes
	total time  =          0 seconds =       0.00 minutes

    Psi4 stopped on: Sunday, 11 June 2023 10:51PM
    Psi4 wall time for execution: 0:00:00.42

*** Psi4 exiting successfully. Buy a developer a beer!
