      -----------------------------------------------------------      
     |                   =====================                   |     
     |                           x T B                           |     
     |                   =====================                   |     
     |                         S. Grimme                         |     
     |          Mulliken Center for Theoretical Chemistry        |     
     |                    University of Bonn                     |     
      -----------------------------------------------------------      

   * xtb version 6.6.1 (8d0f1dd) compiled by 'conda@1efc2f54142f' on 2023-08-01

   xtb is free software: you can redistribute it and/or modify it under
   the terms of the GNU Lesser General Public License as published by
   the Free Software Foundation, either version 3 of the License, or
   (at your option) any later version.
   
   xtb is distributed in the hope that it will be useful,
   but WITHOUT ANY WARRANTY; without even the implied warranty of
   MERCHANTABILITY or FITNESS FOR A PARTICULAR PURPOSE.  See the
   GNU Lesser General Public License for more details.
   
   Cite this work as:
   * C. Bannwarth, E. Caldeweyher, S. Ehlert, A. Hansen, P. Pracht,
     J. Seibert, S. Spicher, S. Grimme, WIREs Comput. Mol. Sci., 2020, 11,
     e01493. DOI: 10.1002/wcms.1493
   
   for GFN2-xTB:
   * C. Bannwarth, S. Ehlert and S. Grimme., J. Chem. Theory Comput., 2019,
     15, 1652-1671. DOI: 10.1021/acs.jctc.8b01176
   for GFN1-xTB:
   * S. Grimme, C. Bannwarth, P. Shushkov, J. Chem. Theory Comput., 2017,
     13, 1989-2009. DOI: 10.1021/acs.jctc.7b00118
   for GFN0-xTB:
   * P. Pracht, E. Caldeweyher, S. Ehlert, S. Grimme, ChemRxiv, 2019, preprint.
     DOI: 10.26434/chemrxiv.8326202.v1
   for GFN-FF:
   * S. Spicher and S. Grimme, Angew. Chem. Int. Ed., 2020, 59, 15665-15673.
     DOI: 10.1002/anie.202004239
   
   for ALPB and GBSA implicit solvation:
   * S. Ehlert, M. Stahn, S. Spicher, S. Grimme, J. Chem. Theory Comput.,
     2021, 17, 4250-4261. DOI: 10.1021/acs.jctc.1c00471
   
   for DFT-D4:
   * E. Caldeweyher, C. Bannwarth and S. Grimme, J. Chem. Phys., 2017,
     147, 034112. DOI: 10.1063/1.4993215
   * E. Caldeweyher, S. Ehlert, A. Hansen, H. Neugebauer, S. Spicher,
     C. Bannwarth and S. Grimme, J. Chem. Phys., 2019, 150, 154122.
     DOI: 10.1063/1.5090222
   * E. Caldeweyher, J.-M. Mewes, S. Ehlert and S. Grimme, Phys. Chem. Chem. Phys.
     2020, 22, 8499-8512. DOI: 10.1039/D0CP00502A
   
   for sTDA-xTB:
   * S. Grimme and C. Bannwarth, J. Chem. Phys., 2016, 145, 054103.
     DOI: 10.1063/1.4959605
   
   in the mass-spec context:
   * V. Asgeirsson, C. Bauer and S. Grimme, Chem. Sci., 2017, 8, 4879.
     DOI: 10.1039/c7sc00601b
   * J. Koopman and S. Grimme, ACS Omega 2019, 4, 12, 15120-15133.
     DOI: 10.1021/acsomega.9b02011
   
   for metadynamics refer to:
   * S. Grimme, J. Chem. Theory Comput., 2019, 155, 2847-2862
     DOI: 10.1021/acs.jctc.9b00143
   
   for SPH calculations refer to:
   * S. Spicher and S. Grimme, J. Chem. Theory Comput., 2021, 17, 1701-1714
     DOI: 10.1021/acs.jctc.0c01306
   
   with help from (in alphabetical order)
   P. Atkinson, C. Bannwarth, F. Bohle, G. Brandenburg, E. Caldeweyher
   M. Checinski, S. Dohm, S. Ehlert, S. Ehrlich, I. Gerasimov, C. Hölzer
   A. Katbashev, J. Koopman, C. Lavigne, S. Lehtola, F. März, M. Müller,
   F. Musil, H. Neugebauer, J. Pisarek, C. Plett, P. Pracht, F. Pultar,
   J. Seibert, P. Shushkov, S. Spicher, M. Stahn, M. Steiner, T. Strunk,
   J. Stückrath, T. Rose, and J. Unsleber
   
 * started run on 2023/10/28 at 11:46:53.396     

           -------------------------------------------------
          |                Calculation Setup                |
           -------------------------------------------------

          program call               : xtb POSCAR --gfn 1 --opt
          coordinate file            : POSCAR
          omp threads                :                    20

   ID    Z sym.   atoms
    1   29 Cu     1

           -------------------------------------------------
          |                 G F N 1 - x T B                 |
           -------------------------------------------------

        Reference                      10.1021/acs.jctc.7b00118
      * Hamiltonian:
        H0-scaling (s, p, d)           1.850000    2.250000    2.000000
        zeta-weighting                 0.000000
      * Dispersion:
        s8                             2.400000
        a1                             0.630000
        a2                             5.000000
        s9                             0.000000
      * Repulsion:
        kExp                           1.500000
        rExp                           1.000000
      * Coulomb:
        alpha                          2.000000
        third order                    atomic
        anisotropic                    false
      * Halogen bond correction:
        rad-scale                      1.300000
        damping                        0.440000


          ...................................................
          :                      SETUP                      :
          :.................................................:
          :  # basis functions                  10          :
          :  # atomic orbitals                   9          :
          :  # shells                            3          :
          :  # electrons                        11          :
          :  # halogen bonds                     0          :
          :  max. iterations                   250          :
          :  Hamiltonian                  GFN1-xTB          :
          :  restarted?                      false          :
          :  GBSA solvation                  false          :
          :  PC potential                    false          :
          :  electronic temp.          300.0000000     K    :
          :  accuracy                    1.0000000          :
          :  -> integral cutoff          0.2500000E+02      :
          :  -> integral neglect         0.1000000E-07      :
          :  -> SCF convergence          0.1000000E-05 Eh   :
          :  -> wf. convergence          0.2000000E-04 e    :
          :  Broyden damping             0.4000000          :
          ...................................................

 iter      E             dE          RMSdq      gap      omega  full diag
   1     -4.3908896 -0.439089E+01  0.141E+01    3.95       4.0  T
   2     -4.3908896  0.000000E+00  0.113E+01    3.95       4.0  T
   3     -4.3908896  0.000000E+00  0.871E+00    3.95       4.0  T
   4     -4.3908896  0.000000E+00  0.697E+00    3.95       4.0  T
   5     -4.3908896  0.000000E+00  0.558E+00    3.95       4.0  T
   6     -4.3908896  0.000000E+00  0.446E+00    3.95       4.0  T
   7     -4.3908896  0.000000E+00  0.357E+00    3.95       4.0  T
   8     -4.3908896  0.000000E+00  0.285E+00    3.95       4.0  T
   9     -4.3908896  0.000000E+00  0.228E+00    3.95       4.0  T
  10     -4.3908896  0.000000E+00  0.183E+00    3.95       4.0  T
  11     -4.3908896  0.000000E+00  0.146E+00    3.95       4.0  T
  12     -4.3908896  0.000000E+00  0.117E+00    3.95       4.0  T
  13     -4.3908896  0.000000E+00  0.935E-01    3.95       4.0  T
  14     -4.3908896  0.000000E+00  0.748E-01    3.95       4.0  T
  15     -4.3908896  0.000000E+00  0.599E-01    3.95       4.0  T
  16     -4.3908896  0.000000E+00  0.479E-01    3.95       4.0  T
  17     -4.3908896  0.000000E+00  0.383E-01    3.95       4.0  T
  18     -4.3908896  0.000000E+00  0.307E-01    3.95       4.0  T
  19     -4.3908896  0.000000E+00  0.245E-01    3.95       4.0  T
  20     -4.3908896  0.000000E+00  0.196E-01    3.95       4.0  T
  21     -4.3908896  0.000000E+00  0.157E-01    3.95       4.0  T
  22     -4.3908896  0.000000E+00  0.126E-01    3.95       4.0  T
  23     -4.3908896  0.000000E+00  0.100E-01    3.95       4.0  T
  24     -4.3908896  0.000000E+00  0.803E-02    3.95       4.0  T
  25     -4.3908896  0.000000E+00  0.643E-02    3.95       4.0  T
  26     -4.3908896  0.000000E+00  0.514E-02    3.95       4.0  T
  27     -4.3908896  0.000000E+00  0.411E-02    3.95       4.0  T
  28     -4.3908896  0.000000E+00  0.329E-02    3.95       4.0  T
  29     -4.3908896  0.000000E+00  0.263E-02    3.95       4.0  T
  30     -4.3908896  0.000000E+00  0.211E-02    3.95       4.0  T
  31     -4.3908896  0.000000E+00  0.169E-02    3.95       4.0  T
  32     -4.3908896  0.000000E+00  0.135E-02    3.95       4.0  T
  33     -4.3908896  0.000000E+00  0.108E-02    3.95       4.0  T
  34     -4.3908896  0.000000E+00  0.863E-03    3.95       4.0  T
  35     -4.3908896  0.000000E+00  0.690E-03    3.95       4.0  T
  36     -4.3908896  0.000000E+00  0.552E-03    3.95       4.0  T
  37     -4.3908896  0.000000E+00  0.442E-03    3.95       4.0  T
  38     -4.3908896  0.000000E+00  0.353E-03    3.95       4.0  T
  39     -4.3908896  0.000000E+00  0.283E-03    3.95       4.0  T
  40     -4.3908896  0.000000E+00  0.226E-03    3.95       4.0  T
  41     -4.3908896  0.000000E+00  0.181E-03    3.95       4.0  T
  42     -4.3908896  0.000000E+00  0.145E-03    3.95       4.0  T
  43     -4.3908896  0.000000E+00  0.116E-03    3.95       4.0  T
  44     -4.3908896  0.000000E+00  0.926E-04    3.95       4.0  T
  45     -4.3908896  0.000000E+00  0.741E-04    3.95       4.0  T
  46     -4.3908896  0.000000E+00  0.593E-04    3.95       4.0  T
  47     -4.3908896  0.000000E+00  0.474E-04    3.95       4.0  T
  48     -4.3908896  0.000000E+00  0.379E-04    3.95       4.0  T
  49     -4.3908896  0.000000E+00  0.304E-04    3.95       4.0  T
  50     -4.3908896  0.000000E+00  0.243E-04    3.95       4.0  T
  51     -4.3908896  0.000000E+00  0.194E-04    3.95       4.0  T
  52     -4.3908896  0.000000E+00  0.155E-04    3.95       4.0  T

   *** convergence criteria satisfied after 52 iterations ***

         #    Occupation            Energy/Eh            Energy/eV
      -------------------------------------------------------------
         1        2.0000           -0.4240631             -11.5393
         2        2.0000           -0.4240631             -11.5393
         3        2.0000           -0.4240631             -11.5393
         4        2.0000           -0.4240631             -11.5393
         5        2.0000           -0.4240631             -11.5393
         6        1.0000           -0.3256540              -8.8615 (HOMO)
         7                         -0.1803417              -4.9073 (LUMO)
         8                         -0.1803417              -4.9073
         9                         -0.1803417              -4.9073
      -------------------------------------------------------------
                  HL-Gap            0.1453123 Eh            3.9541 eV
             Fermi-level           -0.3139282 Eh           -8.5424 eV

 SCC (total)                   0 d,  0 h,  0 min,  0.146 sec
 SCC setup                      ...        0 min,  0.018 sec ( 12.597%)
 Dispersion                     ...        0 min,  0.031 sec ( 21.224%)
 classical contributions        ...        0 min,  0.020 sec ( 13.490%)
 integral evaluation            ...        0 min,  0.049 sec ( 33.360%)
 iterations                     ...        0 min,  0.005 sec (  3.239%)
 molecular gradient             ...        0 min,  0.023 sec ( 16.036%)
 printout                       ...        0 min,  0.000 sec (  0.037%)

         :::::::::::::::::::::::::::::::::::::::::::::::::::::
         ::                     SUMMARY                     ::
         :::::::::::::::::::::::::::::::::::::::::::::::::::::
         :: total energy              -4.401702736329 Eh    ::
         :: gradient norm              0.000000000000 Eh/a0 ::
         :: HOMO-LUMO gap              3.954148000000 eV    ::
         ::.................................................::
         :: SCC energy                -4.390889612685 Eh    ::
         :: -> electrostatic           0.001157788813 Eh    ::
         :: repulsion energy           0.003174593721 Eh    ::
         :: dispersion energy         -0.013987717365 Eh    ::
         :: halogen bond corr.         0.000000000000 Eh    ::
         :: add. restraining           0.000000000000 Eh    ::
         :: total charge               0.000000000000 e     ::
         :::::::::::::::::::::::::::::::::::::::::::::::::::::

      ----------------------------------------------------------- 
     |                   =====================                   |
     |                        A N C O P T                        |
     |                   =====================                   |
     |               Approximate Normal Coordinate               |
     |                Rational Function Optimizer                |
      ----------------------------------------------------------- 
================
 final structure:
================
 xtb: 6.6.1 (8d0f1dd)
    1.00000000000000
    0.00000000000000    3.41095565493989    3.41095565493989
    3.41095565493989    0.00000000000000    3.41095565493989
    3.41095565493989    3.41095565493989    0.00000000000000
 Cu  
 1
Cartesian
    0.00000000000000    0.00000000000000    0.00000000000000

 Bond Distances (Angstroems)
 ---------------------------


 selected bond angles (degree)
 --------------------


 selected dihedral angles (degree)
 ---------------------------------

           -------------------------------------------------
          |                Final Singlepoint                |
           -------------------------------------------------

          ...................................................
          :                      SETUP                      :
          :.................................................:
          :  # basis functions                  10          :
          :  # atomic orbitals                   9          :
          :  # shells                            3          :
          :  # electrons                        11          :
          :  # halogen bonds                     0          :
          :  max. iterations                   250          :
          :  Hamiltonian                  GFN1-xTB          :
          :  restarted?                      false          :
          :  GBSA solvation                  false          :
          :  PC potential                    false          :
          :  electronic temp.          300.0000000     K    :
          :  accuracy                    1.0000000          :
          :  -> integral cutoff          0.2500000E+02      :
          :  -> integral neglect         0.1000000E-07      :
          :  -> SCF convergence          0.1000000E-05 Eh   :
          :  -> wf. convergence          0.2000000E-04 e    :
          :  Broyden damping             0.4000000          :
          ...................................................

 iter      E             dE          RMSdq      gap      omega  full diag
   1     -4.3908896 -0.439089E+01  0.124E-04    3.95       4.0  T
   2     -4.3908896  0.000000E+00  0.995E-05    3.95       4.0  T
   3     -4.3908896  0.000000E+00  0.766E-05    3.95       4.0  T

   *** convergence criteria satisfied after 3 iterations ***

         #    Occupation            Energy/Eh            Energy/eV
      -------------------------------------------------------------
         1        2.0000           -0.4240632             -11.5393
         2        2.0000           -0.4240632             -11.5393
         3        2.0000           -0.4240632             -11.5393
         4        2.0000           -0.4240632             -11.5393
         5        2.0000           -0.4240632             -11.5393
         6        1.0000           -0.3256541              -8.8615 (HOMO)
         7                         -0.1803418              -4.9074 (LUMO)
         8                         -0.1803418              -4.9074
         9                         -0.1803418              -4.9074
      -------------------------------------------------------------
                  HL-Gap            0.1453123 Eh            3.9541 eV
             Fermi-level           -0.3139283 Eh           -8.5424 eV

 SCC (total)                   0 d,  0 h,  0 min,  0.082 sec
 SCC setup                      ...        0 min,  0.010 sec ( 12.133%)
 Dispersion                     ...        0 min,  0.017 sec ( 21.425%)
 classical contributions        ...        0 min,  0.008 sec ( 10.392%)
 integral evaluation            ...        0 min,  0.019 sec ( 22.740%)
 iterations                     ...        0 min,  0.000 sec (  0.262%)
 molecular gradient             ...        0 min,  0.025 sec ( 31.159%)
 printout                       ...        0 min,  0.002 sec (  1.856%)

         :::::::::::::::::::::::::::::::::::::::::::::::::::::
         ::                     SUMMARY                     ::
         :::::::::::::::::::::::::::::::::::::::::::::::::::::
         :: total energy              -4.401702736329 Eh    ::
         :: gradient norm              0.000000000000 Eh/a0 ::
         :: HOMO-LUMO gap              3.954148000000 eV    ::
         ::.................................................::
         :: SCC energy                -4.390889612685 Eh    ::
         :: -> electrostatic           0.001157788813 Eh    ::
         :: repulsion energy           0.003174593721 Eh    ::
         :: dispersion energy         -0.013987717365 Eh    ::
         :: halogen bond corr.         0.000000000000 Eh    ::
         :: add. restraining           0.000000000000 Eh    ::
         :: total charge               0.000000000000 e     ::
         :::::::::::::::::::::::::::::::::::::::::::::::::::::

           -------------------------------------------------
          |                Property Printout                |
           -------------------------------------------------
 Periodic properties
           -------------------------------------------------
          |                Geometry Summary                 |
           -------------------------------------------------

 * 1 atoms in unit cell

     #   Z                                     position/Å        charge
     1  29 Cu       0.0000000     0.0000000     0.0000000    11.0000000

 * 3D periodic system

 * cell parameter

      |a|/Å         |b|/Å         |c|/Å        α/°      β/°      γ/°
    2.5526557     2.5526557     2.5526557    60.000   60.000   60.000

 * direct lattice/Å

            a     0.0000000     1.8050002     1.8050002
            b     1.8050002     0.0000000     1.8050002
            c     1.8050002     1.8050002     0.0000000

 * reciprocal lattice/Å⁻¹

           a*    -1.7404944     1.7404944     1.7404944
           b*     1.7404944    -1.7404944     1.7404944
           c*     1.7404944     1.7404944    -1.7404944

 * geometry in fractional coordinates

     #   Z                         fractional coordinates
     1  29 Cu       0.0000000     0.0000000     0.0000000

 * volume of direct unit cell/Å³ =    11.7614735

 * mass density of direct unit cell/g·cm⁻³ =     8.9717228


optimized geometry written to: xtbopt.poscar


           -------------------------------------------------
          | TOTAL ENERGY               -4.401702736329 Eh   |
          | GRADIENT NORM               0.000000000000 Eh/α |
          | HOMO-LUMO GAP               3.954148000000 eV   |
           -------------------------------------------------

------------------------------------------------------------------------
 * finished run on 2023/10/28 at 11:46:53.809     
------------------------------------------------------------------------
 total:
 * wall-time:     0 d,  0 h,  0 min,  0.413 sec
 *  cpu-time:     0 d,  0 h,  0 min,  6.699 sec
 * ratio c/w:    16.231 speedup
 SCF:
 * wall-time:     0 d,  0 h,  0 min,  0.146 sec
 *  cpu-time:     0 d,  0 h,  0 min,  2.692 sec
 * ratio c/w:    18.469 speedup
 ANC optimizer:
 * wall-time:     0 d,  0 h,  0 min,  0.082 sec
 *  cpu-time:     0 d,  0 h,  0 min,  1.512 sec
 * ratio c/w:    18.453 speedup

