      -----------------------------------------------------------      
     |                   =====================                   |     
     |                           x T B                           |     
     |                   =====================                   |     
     |                         S. Grimme                         |     
     |          Mulliken Center for Theoretical Chemistry        |     
     |                    University of Bonn                     |     
      -----------------------------------------------------------      

   * xtb version 6.6.1 (8d0f1dd) compiled by 'conda@1efc2f54142f' on 2023-08-01

   xtb is free software: you can redistribute it and/or modify it under
   the terms of the GNU Lesser General Public License as published by
   the Free Software Foundation, either version 3 of the License, or
   (at your option) any later version.
   
   xtb is distributed in the hope that it will be useful,
   but WITHOUT ANY WARRANTY; without even the implied warranty of
   MERCHANTABILITY or FITNESS FOR A PARTICULAR PURPOSE.  See the
   GNU Lesser General Public License for more details.
   
   Cite this work as:
   * C. Bannwarth, E. Caldeweyher, S. Ehlert, A. Hansen, P. Pracht,
     J. Seibert, S. Spicher, S. Grimme, WIREs Comput. Mol. Sci., 2020, 11,
     e01493. DOI: 10.1002/wcms.1493
   
   for GFN2-xTB:
   * C. Bannwarth, S. Ehlert and S. Grimme., J. Chem. Theory Comput., 2019,
     15, 1652-1671. DOI: 10.1021/acs.jctc.8b01176
   for GFN1-xTB:
   * S. Grimme, C. Bannwarth, P. Shushkov, J. Chem. Theory Comput., 2017,
     13, 1989-2009. DOI: 10.1021/acs.jctc.7b00118
   for GFN0-xTB:
   * P. Pracht, E. Caldeweyher, S. Ehlert, S. Grimme, ChemRxiv, 2019, preprint.
     DOI: 10.26434/chemrxiv.8326202.v1
   for GFN-FF:
   * S. Spicher and S. Grimme, Angew. Chem. Int. Ed., 2020, 59, 15665-15673.
     DOI: 10.1002/anie.202004239
   
   for ALPB and GBSA implicit solvation:
   * S. Ehlert, M. Stahn, S. Spicher, S. Grimme, J. Chem. Theory Comput.,
     2021, 17, 4250-4261. DOI: 10.1021/acs.jctc.1c00471
   
   for DFT-D4:
   * E. Caldeweyher, C. Bannwarth and S. Grimme, J. Chem. Phys., 2017,
     147, 034112. DOI: 10.1063/1.4993215
   * E. Caldeweyher, S. Ehlert, A. Hansen, H. Neugebauer, S. Spicher,
     C. Bannwarth and S. Grimme, J. Chem. Phys., 2019, 150, 154122.
     DOI: 10.1063/1.5090222
   * E. Caldeweyher, J.-M. Mewes, S. Ehlert and S. Grimme, Phys. Chem. Chem. Phys.
     2020, 22, 8499-8512. DOI: 10.1039/D0CP00502A
   
   for sTDA-xTB:
   * S. Grimme and C. Bannwarth, J. Chem. Phys., 2016, 145, 054103.
     DOI: 10.1063/1.4959605
   
   in the mass-spec context:
   * V. Asgeirsson, C. Bauer and S. Grimme, Chem. Sci., 2017, 8, 4879.
     DOI: 10.1039/c7sc00601b
   * J. Koopman and S. Grimme, ACS Omega 2019, 4, 12, 15120-15133.
     DOI: 10.1021/acsomega.9b02011
   
   for metadynamics refer to:
   * S. Grimme, J. Chem. Theory Comput., 2019, 155, 2847-2862
     DOI: 10.1021/acs.jctc.9b00143
   
   for SPH calculations refer to:
   * S. Spicher and S. Grimme, J. Chem. Theory Comput., 2021, 17, 1701-1714
     DOI: 10.1021/acs.jctc.0c01306
   
   with help from (in alphabetical order)
   P. Atkinson, C. Bannwarth, F. Bohle, G. Brandenburg, E. Caldeweyher
   M. Checinski, S. Dohm, S. Ehlert, S. Ehrlich, I. Gerasimov, C. Hölzer
   A. Katbashev, J. Koopman, C. Lavigne, S. Lehtola, F. März, M. Müller,
   F. Musil, H. Neugebauer, J. Pisarek, C. Plett, P. Pracht, F. Pultar,
   J. Seibert, P. Shushkov, S. Spicher, M. Stahn, M. Steiner, T. Strunk,
   J. Stückrath, T. Rose, and J. Unsleber
   
 * started run on 2023/10/27 at 12:12:43.682     

           -------------------------------------------------
          |                Calculation Setup                |
           -------------------------------------------------

          program call               : xtb coord.xyz --uhf 0 --charge 1 --opt --pop
          coordinate file            : coord.xyz
          omp threads                :                    20

   ID    Z sym.   atoms
    1    6 C      1-6, 11, 12, 15, 16
    2    1 H      7-10, 13, 14, 17-20

           -------------------------------------------------
          |                 G F N 2 - x T B                 |
           -------------------------------------------------

        Reference                      10.1021/acs.jctc.8b01176
      * Hamiltonian:
        H0-scaling (s, p, d)           1.850000    2.230000    2.230000
        zeta-weighting                 0.500000
      * Dispersion:
        s8                             2.700000
        a1                             0.520000
        a2                             5.000000
        s9                             5.000000
      * Repulsion:
        kExp                           1.500000    1.000000
        rExp                           1.000000
      * Coulomb:
        alpha                          2.000000
        third order                    shell-resolved
        anisotropic                    true
        a3                             3.000000
        a5                             4.000000
        cn-shift                       1.200000
        cn-exp                         4.000000
        max-rad                        5.000000


          ...................................................
          :                      SETUP                      :
          :.................................................:
          :  # basis functions                  50          :
          :  # atomic orbitals                  50          :
          :  # shells                           30          :
          :  # electrons                        49          :
          :  max. iterations                   250          :
          :  Hamiltonian                  GFN2-xTB          :
          :  restarted?                      false          :
          :  GBSA solvation                  false          :
          :  PC potential                    false          :
          :  electronic temp.          300.0000000     K    :
          :  accuracy                    1.0000000          :
          :  -> integral cutoff          0.2500000E+02      :
          :  -> integral neglect         0.1000000E-07      :
          :  -> SCF convergence          0.1000000E-05 Eh   :
          :  -> wf. convergence          0.1000000E-03 e    :
          :  Broyden damping             0.4000000          :
          ...................................................

 iter      E             dE          RMSdq      gap      omega  full diag
   1    -26.3950303 -0.263950E+02  0.615E+00    3.00       0.0  T
   2    -26.4148043 -0.197740E-01  0.371E+00    3.00       1.0  T
   3    -26.4112898  0.351442E-02  0.693E-01    2.98       1.0  T
   4    -26.4154097 -0.411983E-02  0.301E-01    2.99       1.0  T
   5    -26.4166395 -0.122983E-02  0.119E-01    2.98       1.0  T
   6    -26.4168507 -0.211243E-03  0.386E-02    2.99       1.0  T
   7    -26.4168456  0.512503E-05  0.240E-02    2.99       1.0  T
   8    -26.4168542 -0.862457E-05  0.266E-03    2.99       8.4  T
   9    -26.4168543 -0.903033E-07  0.973E-04    2.99      23.0  T
  10    -26.4168543 -0.111816E-07  0.628E-04    2.99      35.6  T

   *** convergence criteria satisfied after 10 iterations ***

         #    Occupation            Energy/Eh            Energy/eV
      -------------------------------------------------------------
         1        2.0000           -0.8229483             -22.3936
       ...           ...                  ...                  ...
        19        2.0000           -0.6199426             -16.8695
        20        2.0000           -0.5977056             -16.2644
        21        2.0000           -0.5971339             -16.2488
        22        2.0000           -0.5901400             -16.0585
        23        2.0000           -0.5864096             -15.9570
        24        2.0000           -0.5801057             -15.7855
        25        1.0000           -0.5567823             -15.1508 (HOMO)
        26                         -0.4470538             -12.1650 (LUMO)
        27                         -0.4047846             -11.0147
        28                         -0.3927169             -10.6864
        29                         -0.3381751              -9.2022
        30                         -0.2665070              -7.2520
       ...                                ...                  ...
        50                          0.4400796              11.9752
      -------------------------------------------------------------
                  HL-Gap            0.1097284 Eh            2.9859 eV
             Fermi-level           -0.5351807 Eh          -14.5630 eV

 SCC (total)                   0 d,  0 h,  0 min,  0.061 sec
 SCC setup                      ...        0 min,  0.002 sec (  3.679%)
 Dispersion                     ...        0 min,  0.001 sec (  1.813%)
 classical contributions        ...        0 min,  0.001 sec (  1.518%)
 integral evaluation            ...        0 min,  0.002 sec (  2.637%)
 iterations                     ...        0 min,  0.046 sec ( 75.478%)
 molecular gradient             ...        0 min,  0.009 sec ( 14.033%)
 printout                       ...        0 min,  0.000 sec (  0.787%)

         :::::::::::::::::::::::::::::::::::::::::::::::::::::
         ::                     SUMMARY                     ::
         :::::::::::::::::::::::::::::::::::::::::::::::::::::
         :: total energy             -25.964352049868 Eh    ::
         :: gradient norm              0.078626670802 Eh/a0 ::
         :: HOMO-LUMO gap              2.985863066947 eV    ::
         ::.................................................::
         :: SCC energy               -26.416854334877 Eh    ::
         :: -> isotropic ES            0.077613947020 Eh    ::
         :: -> anisotropic ES         -0.020285716394 Eh    ::
         :: -> anisotropic XC          0.028838127379 Eh    ::
         :: -> dispersion             -0.014839860008 Eh    ::
         :: repulsion energy           0.452553807816 Eh    ::
         :: add. restraining           0.000000000000 Eh    ::
         :: total charge               1.000000000000 e     ::
         :::::::::::::::::::::::::::::::::::::::::::::::::::::

      ----------------------------------------------------------- 
     |                   =====================                   |
     |                        A N C O P T                        |
     |                   =====================                   |
     |               Approximate Normal Coordinate               |
     |                Rational Function Optimizer                |
      ----------------------------------------------------------- 

          ...................................................
          :                      SETUP                      :
          :.................................................:
          :   optimization level            normal          :
          :   max. optcycles                   200          :
          :   ANC micro-cycles                  20          :
          :   degrees of freedom                54          :
          :.................................................:
          :   RF solver                   davidson          :
          :   write xtbopt.log                true          :
          :   linear?                        false          :
          :   energy convergence         0.5000000E-05 Eh   :
          :   grad. convergence          0.1000000E-02 Eh/α :
          :   maxmium RF displ.          1.0000000          :
          :   Hlow (freq-cutoff)         0.1000000E-01      :
          :   Hmax (freq-cutoff)         5.0000000          :
          :   S6 in model hess.         20.0000000          :
          ...................................................

generating ANC from model Hessian ...
Using Lindh-Hessian (1995)
 Shifting diagonal of input Hessian by    9.0998777474467513E-003
 Lowest  eigenvalues of input Hessian
    0.000000    0.000000    0.000000    0.000000    0.000000    0.000000
    0.010000    0.012295    0.012547    0.013702    0.015638    0.018701
    0.020199    0.021489    0.024348    0.029759    0.037313    0.041108
 Highest eigenvalues
    1.531922    1.736507    1.751064    1.824010    1.863524    1.927747


........................................................................
.............................. CYCLE    1 ..............................
........................................................................

 iter      E             dE          RMSdq      gap      omega  full diag
   1    -26.4168543 -0.264169E+02  0.616E-05    2.99       0.0  T
   2    -26.4168543  0.433431E-12  0.374E-05    2.99     598.4  T
   3    -26.4168543 -0.352074E-11  0.313E-05    2.99     713.7  T
     SCC iter.                  ...        0 min,  0.013 sec
     gradient                   ...        0 min,  0.006 sec
 * total energy  :   -25.9643521 Eh     change       -0.4677549E-08 Eh
   gradient norm :     0.0786259 Eh/α   predicted     0.0000000E+00 (-100.00%)
   displ. norm   :     0.3146729 α      lambda       -0.1221990E-01
   maximum displ.:     0.2161589 α      in ANC's #11, #16, #28, ...

........................................................................
.............................. CYCLE    2 ..............................
........................................................................

 iter      E             dE          RMSdq      gap      omega  full diag
   1    -26.4655087 -0.264655E+02  0.224E-01    2.85       0.0  T
   2    -26.4655144 -0.574295E-05  0.133E-01    2.85       1.0  T
   3    -26.4655030  0.114040E-04  0.274E-02    2.85       1.0  T
   4    -26.4655167 -0.136945E-04  0.464E-03    2.85       4.8  T
   5    -26.4655169 -0.185847E-06  0.322E-03    2.85       6.9  T
   6    -26.4655170 -0.628908E-07  0.122E-03    2.85      18.3  T
   7    -26.4655170 -0.208340E-07  0.208E-04    2.85     107.5  T
   8    -26.4655170 -0.301732E-10  0.134E-04    2.85     166.7  T
     SCC iter.                  ...        0 min,  0.027 sec
     gradient                   ...        0 min,  0.004 sec
 * total energy  :   -25.9727862 Eh     change       -0.8434126E-02 Eh
   gradient norm :     0.0360979 Eh/α   predicted    -0.6719418E-02 ( -20.33%)
   displ. norm   :     0.2119578 α      lambda       -0.2961798E-02
   maximum displ.:     0.1620783 α      in ANC's #11, #16, #6, ...

........................................................................
.............................. CYCLE    3 ..............................
........................................................................

 iter      E             dE          RMSdq      gap      omega  full diag
   1    -26.4878809 -0.264879E+02  0.136E-01    2.72       0.0  T
   2    -26.4878833 -0.230069E-05  0.803E-02    2.72       1.0  T
   3    -26.4878782  0.508626E-05  0.192E-02    2.72       1.2  T
   4    -26.4878839 -0.568885E-05  0.429E-03    2.72       5.2  T
   5    -26.4878842 -0.305811E-06  0.140E-03    2.72      16.0  T
   6    -26.4878842 -0.337213E-09  0.533E-04    2.72      42.0  T
   7    -26.4878842 -0.498527E-08  0.987E-05    2.72     226.4  T
     SCC iter.                  ...        0 min,  0.028 sec
     gradient                   ...        0 min,  0.005 sec
 * total energy  :   -25.9742398 Eh     change       -0.1453573E-02 Eh
   gradient norm :     0.0039691 Eh/α   predicted    -0.1547654E-02 (   6.47%)
   displ. norm   :     0.0248423 α      lambda       -0.5943793E-04
   maximum displ.:     0.0164795 α      in ANC's #6, #34, #28, ...

........................................................................
.............................. CYCLE    4 ..............................
........................................................................

 iter      E             dE          RMSdq      gap      omega  full diag
   1    -26.4851928 -0.264852E+02  0.194E-02    2.71       0.0  T
   2    -26.4851928 -0.440884E-07  0.114E-02    2.71       2.0  T
   3    -26.4851928  0.664587E-07  0.211E-03    2.71      10.6  T
   4    -26.4851928 -0.839445E-07  0.499E-04    2.71      44.8  T
   5    -26.4851928 -0.229009E-08  0.315E-04    2.71      71.0  T
     SCC iter.                  ...        0 min,  0.016 sec
     gradient                   ...        0 min,  0.014 sec
 * total energy  :   -25.9742794 Eh     change       -0.3969037E-04 Eh
   gradient norm :     0.0018856 Eh/α   predicted    -0.2985737E-04 ( -24.77%)
   displ. norm   :     0.0280318 α      lambda       -0.1351159E-04
   maximum displ.:     0.0220306 α      in ANC's #6, #11, #16, ...

........................................................................
.............................. CYCLE    5 ..............................
........................................................................

 iter      E             dE          RMSdq      gap      omega  full diag
   1    -26.4838879 -0.264839E+02  0.168E-02    2.70       0.0  T
   2    -26.4838880 -0.309159E-07  0.990E-03    2.70       2.3  T
   3    -26.4838878  0.177746E-06  0.303E-03    2.70       7.4  T
   4    -26.4838880 -0.196614E-06  0.599E-04    2.70      37.4  T
   5    -26.4838880 -0.270513E-08  0.427E-04    2.70      52.4  T
     SCC iter.                  ...        0 min,  0.026 sec
     gradient                   ...        0 min,  0.010 sec
 * total energy  :   -25.9742857 Eh     change       -0.6215016E-05 Eh
   gradient norm :     0.0008039 Eh/α   predicted    -0.6800941E-05 (   9.43%)
   displ. norm   :     0.0069500 α      lambda       -0.6495745E-06
   maximum displ.:     0.0048810 α      in ANC's #6, #11, #34, ...

........................................................................
.............................. CYCLE    6 ..............................
........................................................................

 iter      E             dE          RMSdq      gap      omega  full diag
   1    -26.4844847 -0.264845E+02  0.542E-03    2.71       0.0  T
   2    -26.4844847 -0.236728E-09  0.319E-03    2.71       7.0  T
   3    -26.4844846  0.106972E-06  0.192E-03    2.71      11.6  T
   4    -26.4844847 -0.108279E-06  0.354E-04    2.71      63.2  T
   5    -26.4844847 -0.308679E-08  0.833E-05    2.71     268.4  T
     SCC iter.                  ...        0 min,  0.059 sec
     gradient                   ...        0 min,  0.006 sec
 * total energy  :   -25.9742871 Eh     change       -0.1404418E-05 Eh
   gradient norm :     0.0000825 Eh/α   predicted    -0.9319559E-06 ( -33.64%)
   displ. norm   :     0.0007961 α      lambda       -0.6098048E-08
   maximum displ.:     0.0005186 α      in ANC's #6, #11, #22, ...

   *** GEOMETRY OPTIMIZATION CONVERGED AFTER 6 ITERATIONS ***

------------------------------------------------------------------------
 total energy gain   :        -0.0099350 Eh       -6.2343 kcal/mol
 total RMSD          :         0.1181629 a0        0.0625 Å
 total power (kW/mol):        -4.3473958 (step)  -95.6484 (real)
------------------------------------------------------------------------

 ANCopt (total)                0 d,  0 h,  0 min,  0.273 sec
 optimizer setup                ...        0 min,  0.000 sec (  0.033%)
 model hessian                  ...        0 min,  0.003 sec (  1.102%)
 ANC generation                 ...        0 min,  0.001 sec (  0.266%)
 coordinate transformation      ...        0 min,  0.000 sec (  0.015%)
 single point calculation       ...        0 min,  0.255 sec ( 93.521%)
 optimization log               ...        0 min,  0.001 sec (  0.222%)
 hessian update                 ...        0 min,  0.012 sec (  4.530%)
 rational function              ...        0 min,  0.001 sec (  0.199%)

================
 final structure:
================
20
 xtb: 6.6.1 (8d0f1dd)
C           -1.39651734364816        0.22678563087533       -0.00000000000238
C            1.39651295122111       -0.22678357429528        0.00000000000129
C           -0.47570469885584        1.30612141681176       -0.00000000000154
C            0.47570267859655       -1.30611883019334        0.00000000000001
C            0.87386119428085        1.09092935457664        0.00000000000157
C           -0.87386377063152       -1.09092830085537       -0.00000000000093
H           -0.85891618836122        2.31579193529678       -0.00000000000064
H            0.85891690611400       -2.31578846316329       -0.00000000000026
H            1.54504332391790        1.93454538359522        0.00000000000193
H           -1.54504365889076       -1.93454586568013       -0.00000000000113
C            2.79912910468647       -0.51844111634853        0.00000000000076
C           -2.79912472661850        0.51844262158968       -0.00000000000201
H            3.05524021901010       -1.57089912014778       -0.00000000000040
H           -3.05523565412899        1.57090124025121       -0.00000000000126
C            3.80031730528094        0.38738476930465       -0.00000000000015
C           -3.80031728479606       -0.38738870325527        0.00000000000247
H            3.63462559644459        1.45192531184068        0.00000000000061
H           -3.63462530994439       -1.45192975804004        0.00000000000126
H            4.82897999227818        0.06701179202969       -0.00000000000075
H           -4.82898063595524       -0.06701572419259        0.00000000000156

 Bond Distances (Angstroems)
 ---------------------------
C1-C3=1.4188         C1-C6=1.4176         C1-C12=1.4326        C2-C4=1.4188         C2-C5=1.4176         C2-C11=1.4326        
C3-C1=1.4188         C3-C5=1.3666         C3-H7=1.0799         C4-C2=1.4188         C4-C6=1.3666         C4-H8=1.0799         
C5-C2=1.4176         C5-C3=1.3666         C5-H9=1.0780         C6-C1=1.4176         C6-C4=1.3666         C6-H10=1.0780        
H7-C3=1.0799         H8-C4=1.0799         H9-C5=1.0780         H10-C6=1.0780        C11-C2=1.4326        C11-H13=1.0832       
C11-C15=1.3501       C12-C1=1.4326        C12-H14=1.0832       C12-C16=1.3502       H13-C11=1.0832       H14-C12=1.0832       
C15-C11=1.3501       C15-H17=1.0774       C15-H19=1.0774       C16-C12=1.3502       C16-H18=1.0774       C16-H20=1.0774       
H17-C15=1.0774       H18-C16=1.0774       H19-C15=1.0774       H20-C16=1.0774       
 C  H  Rav=1.0792 sigma=0.0022  Rmin=1.0774  Rmax=1.0832    10
 C  C  Rav=1.3971 sigma=0.0325  Rmin=1.3501  Rmax=1.4326    10

 selected bond angles (degree)
 --------------------
C6-C1-C3=117.90                C12-C1-C3=118.72               C12-C1-C6=123.38               C5-C2-C4=117.90                
C11-C2-C4=118.72               C11-C2-C5=123.38               C5-C3-C1=121.41                H7-C3-C1=118.75                
H7-C3-C5=119.84                C6-C4-C2=121.41                H8-C4-C2=118.75                H8-C4-C6=119.84                
C3-C5-C2=120.69                H9-C5-C2=119.86                H9-C5-C3=119.45                C4-C6-C1=120.69                
H10-C6-C1=119.86               H10-C6-C4=119.45               

 selected dihedral angles (degree)
 ---------------------------------
C5-C3-C1-C6=  0.00            C5-C3-C1-C12=180.00           H7-C3-C1-C6=180.00            H7-C3-C1-C12=  0.00           
C6-C4-C2-C5=  0.00            C6-C4-C2-C11=180.00           H8-C4-C2-C5=180.00            H8-C4-C2-C11=  0.00           
C3-C5-C2-C4=  0.00            C3-C5-C2-C11=180.00           H9-C5-C2-C4=180.00            H9-C5-C2-C11=  0.00           
C2-C5-C3-C1=  0.00            C2-C5-C3-H7=180.00            H9-C5-C3-C1=180.00            H9-C5-C3-H7=  0.00            
C4-C6-C1-C3=  0.00            C4-C6-C1-C12=180.00           H10-C6-C1-C3=180.00           H10-C6-C1-C12=  0.00          
C1-C6-C4-C2=  0.00            C1-C6-C4-H8=180.00            H10-C6-C4-C2=180.00           H10-C6-C4-H8=  0.00           
           -------------------------------------------------
          |                Final Singlepoint                |
           -------------------------------------------------

          ...................................................
          :                      SETUP                      :
          :.................................................:
          :  # basis functions                  50          :
          :  # atomic orbitals                  50          :
          :  # shells                           30          :
          :  # electrons                        49          :
          :  max. iterations                   250          :
          :  Hamiltonian                  GFN2-xTB          :
          :  restarted?                      false          :
          :  GBSA solvation                  false          :
          :  PC potential                    false          :
          :  electronic temp.          300.0000000     K    :
          :  accuracy                    1.0000000          :
          :  -> integral cutoff          0.2500000E+02      :
          :  -> integral neglect         0.1000000E-07      :
          :  -> SCF convergence          0.1000000E-05 Eh   :
          :  -> wf. convergence          0.1000000E-03 e    :
          :  Broyden damping             0.4000000          :
          ...................................................

 iter      E             dE          RMSdq      gap      omega  full diag
   1    -26.4844847 -0.264845E+02  0.414E-05    2.71       0.0  T
   2    -26.4844847 -0.710543E-11  0.313E-05    2.71     713.6  T
   3    -26.4844847 -0.136886E-10  0.130E-05    2.71    1721.8  T

   *** convergence criteria satisfied after 3 iterations ***

         #    Occupation            Energy/Eh            Energy/eV
      -------------------------------------------------------------
         1        2.0000           -0.8297986             -22.5800
       ...           ...                  ...                  ...
        19        2.0000           -0.6222919             -16.9334
        20        2.0000           -0.6007229             -16.3465
        21        2.0000           -0.6005479             -16.3417
        22        2.0000           -0.5927214             -16.1288
        23        2.0000           -0.5869883             -15.9728
        24        2.0000           -0.5866652             -15.9640
        25        1.0000           -0.5541405             -15.0789 (HOMO)
        26                         -0.4547171             -12.3735 (LUMO)
        27                         -0.3975989             -10.8192
        28                         -0.3944595             -10.7338
        29                         -0.3302653              -8.9870
        30                         -0.2541651              -6.9162
       ...                                ...                  ...
        50                          0.4975759              13.5397
      -------------------------------------------------------------
                  HL-Gap            0.0994233 Eh            2.7054 eV
             Fermi-level           -0.5372879 Eh          -14.6203 eV

 SCC (total)                   0 d,  0 h,  0 min,  0.044 sec
 SCC setup                      ...        0 min,  0.002 sec (  3.957%)
 Dispersion                     ...        0 min,  0.001 sec (  2.873%)
 classical contributions        ...        0 min,  0.001 sec (  2.005%)
 integral evaluation            ...        0 min,  0.007 sec ( 15.539%)
 iterations                     ...        0 min,  0.026 sec ( 58.858%)
 molecular gradient             ...        0 min,  0.007 sec ( 16.258%)
 printout                       ...        0 min,  0.000 sec (  0.458%)

         :::::::::::::::::::::::::::::::::::::::::::::::::::::
         ::                     SUMMARY                     ::
         :::::::::::::::::::::::::::::::::::::::::::::::::::::
         :: total energy             -25.974287063476 Eh    ::
         :: gradient norm              0.000082579584 Eh/a0 ::
         :: HOMO-LUMO gap              2.705446429265 eV    ::
         ::.................................................::
         :: SCC energy               -26.484484673820 Eh    ::
         :: -> isotropic ES            0.078260383506 Eh    ::
         :: -> anisotropic ES         -0.019547243226 Eh    ::
         :: -> anisotropic XC          0.026450373580 Eh    ::
         :: -> dispersion             -0.015114756615 Eh    ::
         :: repulsion energy           0.510246108869 Eh    ::
         :: add. restraining           0.000000000000 Eh    ::
         :: total charge               1.000000000609 e     ::
         :::::::::::::::::::::::::::::::::::::::::::::::::::::

           -------------------------------------------------
          |                Property Printout                |
           -------------------------------------------------

    * Orbital Energies and Occupations

         #    Occupation            Energy/Eh            Energy/eV
      -------------------------------------------------------------
         1        2.0000           -0.8297986             -22.5800
       ...           ...                  ...                  ...
        13        2.0000           -0.6688214             -18.1996
        14        2.0000           -0.6588225             -17.9275
        15        2.0000           -0.6553034             -17.8317
        16        2.0000           -0.6490532             -17.6616
        17        2.0000           -0.6343979             -17.2628
        18        2.0000           -0.6333106             -17.2333
        19        2.0000           -0.6222919             -16.9334
        20        2.0000           -0.6007229             -16.3465
        21        2.0000           -0.6005479             -16.3417
        22        2.0000           -0.5927214             -16.1288
        23        2.0000           -0.5869883             -15.9728
        24        2.0000           -0.5866652             -15.9640
        25        1.0000           -0.5541405             -15.0789 (HOMO)
        26                         -0.4547171             -12.3735 (LUMO)
        27                         -0.3975989             -10.8192
        28                         -0.3944595             -10.7338
        29                         -0.3302653              -8.9870
        30                         -0.2541651              -6.9162
        31                         -0.0622726              -1.6945
        32                         -0.0561132              -1.5269
        33                         -0.0538506              -1.4653
        34                         -0.0191156              -0.5202
        35                         -0.0156766              -0.4266
        36                         -0.0106341              -0.2894
       ...                                ...                  ...
        50                          0.4975759              13.5397
      -------------------------------------------------------------
                  HL-Gap            0.0994233 Eh            2.7054 eV
             Fermi-level           -0.5372879 Eh          -14.6203 eV

     #   Z          covCN         q      C6AA      α(0)
     1   6 C        2.969     0.065    26.535     8.449
     2   6 C        2.969     0.065    26.535     8.449
     3   6 C        2.918    -0.010    28.274     8.720
     4   6 C        2.918    -0.010    28.274     8.720
     5   6 C        2.912    -0.008    28.229     8.712
     6   6 C        2.912    -0.008    28.229     8.712
     7   1 H        0.926     0.088     1.895     2.153
     8   1 H        0.926     0.088     1.895     2.153
     9   1 H        0.926     0.088     1.898     2.154
    10   1 H        0.926     0.088     1.898     2.154
    11   6 C        2.897    -0.002    28.078     8.688
    12   6 C        2.897    -0.002    28.078     8.688
    13   1 H        0.925     0.095     1.835     2.118
    14   1 H        0.925     0.095     1.835     2.118
    15   6 C        2.838    -0.030    28.743     8.786
    16   6 C        2.838    -0.030    28.743     8.786
    17   1 H        0.926     0.102     1.767     2.079
    18   1 H        0.926     0.102     1.767     2.079
    19   1 H        0.926     0.113     1.673     2.023
    20   1 H        0.926     0.113     1.673     2.023

 Mol. C6AA /au·bohr⁶  :       4399.997268
 Mol. C8AA /au·bohr⁸  :     109665.295345
 Mol. α(0) /au        :        107.763971


Wiberg/Mayer (AO) data.
largest (>0.10) Wiberg bond orders for each atom

 ---------------------------------------------------------------------------
     #   Z sym  total        # sym  WBO       # sym  WBO       # sym  WBO
 ---------------------------------------------------------------------------
     1   6 C    3.957 --     6 C    1.257     3 C    1.257    12 C    1.214
     2   6 C    3.957 --     5 C    1.257     4 C    1.257    11 C    1.214
     3   6 C    3.981 --     5 C    1.572     1 C    1.257     7 H    0.961
     4   6 C    3.981 --     6 C    1.572     2 C    1.257     8 H    0.961
     5   6 C    3.981 --     3 C    1.572     2 C    1.257     9 H    0.958
     6   6 C    3.981 --     4 C    1.572     1 C    1.257    10 H    0.958
     7   1 H    0.992 --     3 C    0.961
     8   1 H    0.992 --     4 C    0.961
     9   1 H    0.992 --     5 C    0.958
    10   1 H    0.992 --     6 C    0.958
    11   6 C    3.943 --    15 C    1.690     2 C    1.214    13 H    0.956
    12   6 C    3.943 --    16 C    1.690     1 C    1.214    14 H    0.956
    13   1 H    0.991 --    11 C    0.956
    14   1 H    0.991 --    12 C    0.956
    15   6 C    3.820 --    11 C    1.690    19 H    0.969    17 H    0.964
    16   6 C    3.820 --    12 C    1.690    20 H    0.969    18 H    0.964
    17   1 H    0.990 --    15 C    0.964
    18   1 H    0.990 --    16 C    0.964
    19   1 H    0.987 --    15 C    0.969
    20   1 H    0.987 --    16 C    0.969
 ---------------------------------------------------------------------------

Topologies differ in total number of bonds
Writing topology from bond orders to xtbtopo.mol

molecular dipole:
                 x           y           z       tot (Debye)
 q only:       -0.000      -0.000      -0.000
   full:       -0.000      -0.000       0.000       0.000
molecular quadrupole (traceless):
                xx          xy          yy          xz          yz          zz
 q only:       29.921       1.545      -8.410      -0.000       0.000     -21.511
  q+dip:       32.550       1.486      -4.834      -0.000       0.000     -27.716
   full:       29.810       1.458      -7.843      -0.000       0.000     -21.967

           -------------------------------------------------
          |                Geometry Summary                 |
           -------------------------------------------------

      molecular mass/u    :      130.1867665
   center of mass at/Å    :       -0.0000004       0.0000003      -0.0000000
  moments of inertia/u·Å² :        0.1084195E+03   0.7045565E+03   0.8129760E+03
rotational constants/cm⁻¹ :        0.1554852E+00   0.2392659E-01   0.2073571E-01

 * 20 selected distances

     #   Z          #   Z                                           value/Å
     1   6 C        3   6 C                                       1.4187537
     2   6 C        4   6 C                                       1.4187517
     2   6 C        5   6 C                                       1.4175798
     3   6 C        5   6 C                                       1.3666148
     1   6 C        6   6 C                                       1.4175814
     4   6 C        6   6 C                                       1.3666151
     3   6 C        7   1 H                                       1.0799471
     4   6 C        8   1 H                                       1.0799473
     5   6 C        9   1 H                                       1.0780416
     6   6 C       10   1 H                                       1.0780414
     2   6 C       11   6 C                                       1.4326188 (max)
     1   6 C       12   6 C                                       1.4326101
    11   6 C       13   1 H                                       1.0831717
    12   6 C       14   1 H                                       1.0831723
    11   6 C       15   6 C                                       1.3501477
    12   6 C       16   6 C                                       1.3501545
    15   6 C       17   1 H                                       1.0773581 (min)
    16   6 C       18   1 H                                       1.0773587
    15   6 C       19   1 H                                       1.0773978
    16   6 C       20   1 H                                       1.0773984

 * 2 distinct bonds (by element types)

   Z      Z             #   av. dist./Å        max./Å        min./Å
   1 H    6 C          10     1.0791834     1.0831723     1.0773581
   6 C    6 C          10     1.3971428     1.4326188     1.3501477


optimized geometry written to: xtbopt.xyz


           -------------------------------------------------
          | TOTAL ENERGY              -25.974287063476 Eh   |
          | GRADIENT NORM               0.000082579584 Eh/α |
          | HOMO-LUMO GAP               2.705446429265 eV   |
           -------------------------------------------------

------------------------------------------------------------------------
 * finished run on 2023/10/27 at 12:12:44.104     
------------------------------------------------------------------------
 total:
 * wall-time:     0 d,  0 h,  0 min,  0.422 sec
 *  cpu-time:     0 d,  0 h,  0 min,  8.379 sec
 * ratio c/w:    19.856 speedup
 SCF:
 * wall-time:     0 d,  0 h,  0 min,  0.061 sec
 *  cpu-time:     0 d,  0 h,  0 min,  1.217 sec
 * ratio c/w:    19.977 speedup
 ANC optimizer:
 * wall-time:     0 d,  0 h,  0 min,  0.317 sec
 *  cpu-time:     0 d,  0 h,  0 min,  6.341 sec
 * ratio c/w:    19.993 speedup

