      -----------------------------------------------------------      
     |                   =====================                   |     
     |                           x T B                           |     
     |                   =====================                   |     
     |                         S. Grimme                         |     
     |          Mulliken Center for Theoretical Chemistry        |     
     |                    University of Bonn                     |     
      -----------------------------------------------------------      

   * xtb version 6.6.1 (8d0f1dd) compiled by 'conda@1efc2f54142f' on 2023-08-01

   xtb is free software: you can redistribute it and/or modify it under
   the terms of the GNU Lesser General Public License as published by
   the Free Software Foundation, either version 3 of the License, or
   (at your option) any later version.
   
   xtb is distributed in the hope that it will be useful,
   but WITHOUT ANY WARRANTY; without even the implied warranty of
   MERCHANTABILITY or FITNESS FOR A PARTICULAR PURPOSE.  See the
   GNU Lesser General Public License for more details.
   
   Cite this work as:
   * C. Bannwarth, E. Caldeweyher, S. Ehlert, A. Hansen, P. Pracht,
     J. Seibert, S. Spicher, S. Grimme, WIREs Comput. Mol. Sci., 2020, 11,
     e01493. DOI: 10.1002/wcms.1493
   
   for GFN2-xTB:
   * C. Bannwarth, S. Ehlert and S. Grimme., J. Chem. Theory Comput., 2019,
     15, 1652-1671. DOI: 10.1021/acs.jctc.8b01176
   for GFN1-xTB:
   * S. Grimme, C. Bannwarth, P. Shushkov, J. Chem. Theory Comput., 2017,
     13, 1989-2009. DOI: 10.1021/acs.jctc.7b00118
   for GFN0-xTB:
   * P. Pracht, E. Caldeweyher, S. Ehlert, S. Grimme, ChemRxiv, 2019, preprint.
     DOI: 10.26434/chemrxiv.8326202.v1
   for GFN-FF:
   * S. Spicher and S. Grimme, Angew. Chem. Int. Ed., 2020, 59, 15665-15673.
     DOI: 10.1002/anie.202004239
   
   for ALPB and GBSA implicit solvation:
   * S. Ehlert, M. Stahn, S. Spicher, S. Grimme, J. Chem. Theory Comput.,
     2021, 17, 4250-4261. DOI: 10.1021/acs.jctc.1c00471
   
   for DFT-D4:
   * E. Caldeweyher, C. Bannwarth and S. Grimme, J. Chem. Phys., 2017,
     147, 034112. DOI: 10.1063/1.4993215
   * E. Caldeweyher, S. Ehlert, A. Hansen, H. Neugebauer, S. Spicher,
     C. Bannwarth and S. Grimme, J. Chem. Phys., 2019, 150, 154122.
     DOI: 10.1063/1.5090222
   * E. Caldeweyher, J.-M. Mewes, S. Ehlert and S. Grimme, Phys. Chem. Chem. Phys.
     2020, 22, 8499-8512. DOI: 10.1039/D0CP00502A
   
   for sTDA-xTB:
   * S. Grimme and C. Bannwarth, J. Chem. Phys., 2016, 145, 054103.
     DOI: 10.1063/1.4959605
   
   in the mass-spec context:
   * V. Asgeirsson, C. Bauer and S. Grimme, Chem. Sci., 2017, 8, 4879.
     DOI: 10.1039/c7sc00601b
   * J. Koopman and S. Grimme, ACS Omega 2019, 4, 12, 15120-15133.
     DOI: 10.1021/acsomega.9b02011
   
   for metadynamics refer to:
   * S. Grimme, J. Chem. Theory Comput., 2019, 155, 2847-2862
     DOI: 10.1021/acs.jctc.9b00143
   
   for SPH calculations refer to:
   * S. Spicher and S. Grimme, J. Chem. Theory Comput., 2021, 17, 1701-1714
     DOI: 10.1021/acs.jctc.0c01306
   
   with help from (in alphabetical order)
   P. Atkinson, C. Bannwarth, F. Bohle, G. Brandenburg, E. Caldeweyher
   M. Checinski, S. Dohm, S. Ehlert, S. Ehrlich, I. Gerasimov, C. Hölzer
   A. Katbashev, J. Koopman, C. Lavigne, S. Lehtola, F. März, M. Müller,
   F. Musil, H. Neugebauer, J. Pisarek, C. Plett, P. Pracht, F. Pultar,
   J. Seibert, P. Shushkov, S. Spicher, M. Stahn, M. Steiner, T. Strunk,
   J. Stückrath, T. Rose, and J. Unsleber
   
 * started run on 2023/10/26 at 11:26:46.296     

           -------------------------------------------------
          |                Calculation Setup                |
           -------------------------------------------------

          program call               : xtb coord.xyz --opt --hess --pop --gfn 1
          coordinate file            : coord.xyz
          omp threads                :                    20

   ID    Z sym.   atoms
    1    8 O      1
    2    1 H      2, 3

           -------------------------------------------------
          |                 G F N 1 - x T B                 |
           -------------------------------------------------

        Reference                      10.1021/acs.jctc.7b00118
      * Hamiltonian:
        H0-scaling (s, p, d)           1.850000    2.250000    2.000000
        zeta-weighting                 0.000000
      * Dispersion:
        s8                             2.400000
        a1                             0.630000
        a2                             5.000000
        s9                             0.000000
      * Repulsion:
        kExp                           1.500000
        rExp                           1.000000
      * Coulomb:
        alpha                          2.000000
        third order                    atomic
        anisotropic                    false
      * Halogen bond correction:
        rad-scale                      1.300000
        damping                        0.440000


          ...................................................
          :                      SETUP                      :
          :.................................................:
          :  # basis functions                   8          :
          :  # atomic orbitals                   8          :
          :  # shells                            6          :
          :  # electrons                         8          :
          :  # halogen bonds                     0          :
          :  max. iterations                   250          :
          :  Hamiltonian                  GFN1-xTB          :
          :  restarted?                      false          :
          :  GBSA solvation                  false          :
          :  PC potential                    false          :
          :  electronic temp.          300.0000000     K    :
          :  accuracy                    1.0000000          :
          :  -> integral cutoff          0.2500000E+02      :
          :  -> integral neglect         0.1000000E-07      :
          :  -> SCF convergence          0.1000000E-05 Eh   :
          :  -> wf. convergence          0.2000000E-04 e    :
          :  Broyden damping             0.4000000          :
          ...................................................

 iter      E             dE          RMSdq      gap      omega  full diag
   1     -5.8050744 -0.580507E+01  0.465E+00    9.83       0.0  T
   2     -5.8059230 -0.848584E-03  0.269E+00    9.50       1.0  T
   3     -5.8059930 -0.699903E-04  0.202E-01    9.25       1.0  T
   4     -5.8060276 -0.345952E-04  0.204E-03    9.34      28.3  T
   5     -5.8060276 -0.379524E-08  0.125E-05    9.34    4630.1  T
   6     -5.8060276 -0.257572E-13  0.590E-06    9.34    9787.3  T

   *** convergence criteria satisfied after 6 iterations ***

         #    Occupation            Energy/Eh            Energy/eV
      -------------------------------------------------------------
         1        2.0000           -0.7578306             -20.6216
         2        2.0000           -0.6124048             -16.6644
         3        2.0000           -0.5460558             -14.8589
         4        2.0000           -0.4998688             -13.6021 (HOMO)
         5                         -0.1566222              -4.2619 (LUMO)
         6                         -0.0501354              -1.3643
         7                          0.3461232               9.4185
         8                          0.4519049              12.2970
      -------------------------------------------------------------
                  HL-Gap            0.3432466 Eh            9.3402 eV
             Fermi-level           -0.3282455 Eh           -8.9320 eV

 SCC (total)                   0 d,  0 h,  0 min,  0.002 sec
 SCC setup                      ...        0 min,  0.000 sec (  9.426%)
 Dispersion                     ...        0 min,  0.000 sec ( 12.671%)
 classical contributions        ...        0 min,  0.000 sec (  6.496%)
 integral evaluation            ...        0 min,  0.000 sec ( 24.414%)
 iterations                     ...        0 min,  0.000 sec ( 20.372%)
 molecular gradient             ...        0 min,  0.000 sec ( 23.745%)
 printout                       ...        0 min,  0.000 sec (  2.287%)

         :::::::::::::::::::::::::::::::::::::::::::::::::::::
         ::                     SUMMARY                     ::
         :::::::::::::::::::::::::::::::::::::::::::::::::::::
         :: total energy              -5.768771622292 Eh    ::
         :: gradient norm              0.002207383584 Eh/a0 ::
         :: HOMO-LUMO gap              9.340215268044 eV    ::
         ::.................................................::
         :: SCC energy                -5.806027557782 Eh    ::
         :: -> electrostatic           0.050097920563 Eh    ::
         :: repulsion energy           0.037393506999 Eh    ::
         :: dispersion energy         -0.000137571509 Eh    ::
         :: halogen bond corr.         0.000000000000 Eh    ::
         :: add. restraining           0.000000000000 Eh    ::
         :: total charge               0.000000000000 e     ::
         :::::::::::::::::::::::::::::::::::::::::::::::::::::

      ----------------------------------------------------------- 
     |                   =====================                   |
     |                        A N C O P T                        |
     |                   =====================                   |
     |               Approximate Normal Coordinate               |
     |                Rational Function Optimizer                |
      ----------------------------------------------------------- 

          ...................................................
          :                      SETUP                      :
          :.................................................:
          :   optimization level            normal          :
          :   max. optcycles                   200          :
          :   ANC micro-cycles                  20          :
          :   degrees of freedom                 3          :
          :.................................................:
          :   RF solver                   davidson          :
          :   write xtbopt.log                true          :
          :   linear?                        false          :
          :   energy convergence         0.5000000E-05 Eh   :
          :   grad. convergence          0.1000000E-02 Eh/α :
          :   maxmium RF displ.          1.0000000          :
          :   Hlow (freq-cutoff)         0.1000000E-01      :
          :   Hmax (freq-cutoff)         5.0000000          :
          :   S6 in model hess.         20.0000000          :
          ...................................................

generating ANC from model Hessian ...
Using Lindh-Hessian (1995)
 Shifting diagonal of input Hessian by    0.0000000000000000     
 Lowest  eigenvalues of input Hessian
    0.000000    0.000000    0.000000    0.000000    0.000000    0.000000
    0.302595    1.206164    1.430767
 Highest eigenvalues
    0.000000    0.000000    0.000000    0.302595    1.206164    1.430767


........................................................................
.............................. CYCLE    1 ..............................
........................................................................

 iter      E             dE          RMSdq      gap      omega  full diag
   1     -5.8060276 -0.580603E+01  0.628E-08    9.34       0.0  T
   2     -5.8060276  0.621725E-14  0.295E-08    9.34  100000.0  T
   3     -5.8060276 -0.106581E-13  0.620E-10    9.34  100000.0  T
     SCC iter.                  ...        0 min,  0.000 sec
     gradient                   ...        0 min,  0.000 sec
 * total energy  :    -5.7687716 Eh     change       -0.2664535E-14 Eh
   gradient norm :     0.0022074 Eh/α   predicted     0.0000000E+00 (-100.00%)
   displ. norm   :     0.0028944 α      lambda       -0.5252959E-05
   maximum displ.:     0.0023188 α      in ANC's #1, #2, #3, ...

........................................................................
.............................. CYCLE    2 ..............................
........................................................................

 iter      E             dE          RMSdq      gap      omega  full diag
   1     -5.8063920 -0.580639E+01  0.525E-03    9.35       0.0  T
   2     -5.8063920 -0.745621E-08  0.277E-03    9.35      20.9  T
   3     -5.8063920 -0.798805E-09  0.554E-04    9.35     104.1  T
   4     -5.8063920 -0.953388E-10  0.354E-06    9.35   16306.8  T
   5     -5.8063920 -0.355271E-14  0.877E-08    9.35  100000.0  T
     SCC iter.                  ...        0 min,  0.000 sec
     gradient                   ...        0 min,  0.000 sec
 * total energy  :    -5.7687748 Eh     change       -0.3167036E-05 Eh
   gradient norm :     0.0004418 Eh/α   predicted    -0.2625969E-05 ( -17.08%)
   displ. norm   :     0.0011665 α      lambda       -0.2810849E-06
   maximum displ.:     0.0009711 α      in ANC's #1, #2, #3, ...

   *** GEOMETRY OPTIMIZATION CONVERGED AFTER 2 ITERATIONS ***

------------------------------------------------------------------------
 total energy gain   :        -0.0000032 Eh       -0.0020 kcal/mol
 total RMSD          :         0.0016711 a0        0.0009 Å
 total power (kW/mol):        -0.0041575 (step)   -2.3563 (real)
------------------------------------------------------------------------

 ANCopt (total)                0 d,  0 h,  0 min,  0.004 sec
 optimizer setup                ...        0 min,  0.000 sec (  1.173%)
 model hessian                  ...        0 min,  0.000 sec (  0.752%)
 ANC generation                 ...        0 min,  0.000 sec (  0.898%)
 coordinate transformation      ...        0 min,  0.000 sec (  0.129%)
 single point calculation       ...        0 min,  0.003 sec ( 87.339%)
 optimization log               ...        0 min,  0.000 sec (  1.845%)
 hessian update                 ...        0 min,  0.000 sec (  3.236%)
 rational function              ...        0 min,  0.000 sec (  1.905%)

================
 final structure:
================
3
 xtb: 6.6.1 (8d0f1dd)
O            1.07033817075195       -0.01762265851733        0.04968207191591
H            2.02855152174605       -0.00787658426846        0.03293347001731
H            0.76924030750200        0.43997924278580       -0.73670554193322

 Bond Distances (Angstroems)
 ---------------------------
O1-H2=0.9584         O1-H3=0.9584         H2-O1=0.9584         H3-O1=0.9584         
 O  H  Rav=0.9584 sigma=0.0000  Rmin=0.9584  Rmax=0.9584     2

 selected bond angles (degree)
 --------------------
H3-O1-H2=107.15                

 selected dihedral angles (degree)
 ---------------------------------

           -------------------------------------------------
          |                Final Singlepoint                |
           -------------------------------------------------

          ...................................................
          :                      SETUP                      :
          :.................................................:
          :  # basis functions                   8          :
          :  # atomic orbitals                   8          :
          :  # shells                            6          :
          :  # electrons                         8          :
          :  # halogen bonds                     0          :
          :  max. iterations                   250          :
          :  Hamiltonian                  GFN1-xTB          :
          :  restarted?                      false          :
          :  GBSA solvation                  false          :
          :  PC potential                    false          :
          :  electronic temp.          300.0000000     K    :
          :  accuracy                    1.0000000          :
          :  -> integral cutoff          0.2500000E+02      :
          :  -> integral neglect         0.1000000E-07      :
          :  -> SCF convergence          0.1000000E-05 Eh   :
          :  -> wf. convergence          0.2000000E-04 e    :
          :  Broyden damping             0.4000000          :
          ...................................................

 iter      E             dE          RMSdq      gap      omega  full diag
   1     -5.8063920 -0.580639E+01  0.172E-09    9.35       0.0  T
   2     -5.8063920  0.355271E-14  0.108E-09    9.35  100000.0  T
   3     -5.8063920  0.532907E-14  0.116E-10    9.35  100000.0  T

   *** convergence criteria satisfied after 3 iterations ***

         #    Occupation            Energy/Eh            Energy/eV
      -------------------------------------------------------------
         1        2.0000           -0.7579709             -20.6254
         2        2.0000           -0.6124863             -16.6666
         3        2.0000           -0.5461236             -14.8608
         4        2.0000           -0.4999445             -13.6042 (HOMO)
         5                         -0.1564800              -4.2580 (LUMO)
         6                         -0.0499420              -1.3590
         7                          0.3481465               9.4735
         8                          0.4549698              12.3804
      -------------------------------------------------------------
                  HL-Gap            0.3434645 Eh            9.3461 eV
             Fermi-level           -0.3282123 Eh           -8.9311 eV

 SCC (total)                   0 d,  0 h,  0 min,  0.002 sec
 SCC setup                      ...        0 min,  0.000 sec ( 10.934%)
 Dispersion                     ...        0 min,  0.000 sec ( 10.819%)
 classical contributions        ...        0 min,  0.000 sec (  5.438%)
 integral evaluation            ...        0 min,  0.000 sec ( 21.531%)
 iterations                     ...        0 min,  0.000 sec (  4.567%)
 molecular gradient             ...        0 min,  0.001 sec ( 43.515%)
 printout                       ...        0 min,  0.000 sec (  2.617%)

         :::::::::::::::::::::::::::::::::::::::::::::::::::::
         ::                     SUMMARY                     ::
         :::::::::::::::::::::::::::::::::::::::::::::::::::::
         :: total energy              -5.768774789328 Eh    ::
         :: gradient norm              0.000441792154 Eh/a0 ::
         :: HOMO-LUMO gap              9.346145868344 eV    ::
         ::.................................................::
         :: SCC energy                -5.806392002074 Eh    ::
         :: -> electrostatic           0.050072062315 Eh    ::
         :: repulsion energy           0.037754782931 Eh    ::
         :: dispersion energy         -0.000137570186 Eh    ::
         :: halogen bond corr.         0.000000000000 Eh    ::
         :: add. restraining           0.000000000000 Eh    ::
         :: total charge               0.000000000000 e     ::
         :::::::::::::::::::::::::::::::::::::::::::::::::::::

           -------------------------------------------------
          |                Property Printout                |
           -------------------------------------------------

    * Orbital Energies and Occupations

         #    Occupation            Energy/Eh            Energy/eV
      -------------------------------------------------------------
         1        2.0000           -0.7579709             -20.6254
         2        2.0000           -0.6124863             -16.6666
         3        2.0000           -0.5461236             -14.8608
         4        2.0000           -0.4999445             -13.6042 (HOMO)
         5                         -0.1564800              -4.2580 (LUMO)
         6                         -0.0499420              -1.3590
         7                          0.3481465               9.4735
         8                          0.4549698              12.3804
      -------------------------------------------------------------
                  HL-Gap            0.3434645 Eh            9.3461 eV
             Fermi-level           -0.3282123 Eh           -8.9311 eV

  Mulliken/CM5 charges         n(s)   n(p)   n(d)
     1O    -0.67111 -1.00665   1.689  4.982  0.000
     2H     0.33555  0.50331   0.664  0.000  0.000
     3H     0.33556  0.50334   0.664  0.000  0.000

Wiberg/Mayer (AO) data.
largest (>0.10) Wiberg bond orders for each atom

 ---------------------------------------------------------------------------
     #   Z sym  total        # sym  WBO       # sym  WBO       # sym  WBO
 ---------------------------------------------------------------------------
     1   8 O    1.786 --     2 H    0.893     3 H    0.893
     2   1 H    0.894 --     1 O    0.893
     3   1 H    0.894 --     1 O    0.893
 ---------------------------------------------------------------------------

Topologies differ in total number of bonds
Writing topology from bond orders to xtbtopo.mol

 dipole moment from electron density (au)
     X       Y       Z   
   0.6292   0.4475  -0.7691  total (Debye):    2.770

           -------------------------------------------------
          |                Geometry Summary                 |
           -------------------------------------------------

      molecular mass/u    :       18.0152864
   center of mass at/Å    :        1.1071034       0.0085251       0.0047472
  moments of inertia/u·Å² :        0.5797208E+00   0.1198837E+01   0.1778558E+01
rotational constants/cm⁻¹ :        0.2907888E+02   0.1406166E+02   0.9478261E+01

 * 2 selected distances

     #   Z          #   Z                                           value/Å
     1   8 O        2   1 H                                       0.9584094 (max)
     1   8 O        3   1 H                                       0.9583658 (min)

 * 1 distinct bonds (by element types)

   Z      Z             #   av. dist./Å        max./Å        min./Å
   1 H    8 O           2     0.9583876     0.9584094     0.9583658


optimized geometry written to: xtbopt.xyz


           -------------------------------------------------
          | TOTAL ENERGY               -5.768774789328 Eh   |
          | GRADIENT NORM               0.000441792154 Eh/α |
          | HOMO-LUMO GAP               9.346145868344 eV   |
           -------------------------------------------------

------------------------------------------------------------------------
 * finished run on 2023/10/26 at 11:26:46.403     
------------------------------------------------------------------------
 total:
 * wall-time:     0 d,  0 h,  0 min,  0.107 sec
 *  cpu-time:     0 d,  0 h,  0 min,  2.097 sec
 * ratio c/w:    19.587 speedup
 SCF:
 * wall-time:     0 d,  0 h,  0 min,  0.002 sec
 *  cpu-time:     0 d,  0 h,  0 min,  0.039 sec
 * ratio c/w:    19.308 speedup
 ANC optimizer:
 * wall-time:     0 d,  0 h,  0 min,  0.006 sec
 *  cpu-time:     0 d,  0 h,  0 min,  0.100 sec
 * ratio c/w:    16.781 speedup

