      -----------------------------------------------------------      
     |                   =====================                   |     
     |                           x T B                           |     
     |                   =====================                   |     
     |                         S. Grimme                         |     
     |          Mulliken Center for Theoretical Chemistry        |     
     |                    University of Bonn                     |     
      -----------------------------------------------------------      

   * xtb version 6.6.1 (8d0f1dd) compiled by 'conda@1efc2f54142f' on 2023-08-01

   xtb is free software: you can redistribute it and/or modify it under
   the terms of the GNU Lesser General Public License as published by
   the Free Software Foundation, either version 3 of the License, or
   (at your option) any later version.
   
   xtb is distributed in the hope that it will be useful,
   but WITHOUT ANY WARRANTY; without even the implied warranty of
   MERCHANTABILITY or FITNESS FOR A PARTICULAR PURPOSE.  See the
   GNU Lesser General Public License for more details.
   
   Cite this work as:
   * C. Bannwarth, E. Caldeweyher, S. Ehlert, A. Hansen, P. Pracht,
     J. Seibert, S. Spicher, S. Grimme, WIREs Comput. Mol. Sci., 2020, 11,
     e01493. DOI: 10.1002/wcms.1493
   
   for GFN2-xTB:
   * C. Bannwarth, S. Ehlert and S. Grimme., J. Chem. Theory Comput., 2019,
     15, 1652-1671. DOI: 10.1021/acs.jctc.8b01176
   for GFN1-xTB:
   * S. Grimme, C. Bannwarth, P. Shushkov, J. Chem. Theory Comput., 2017,
     13, 1989-2009. DOI: 10.1021/acs.jctc.7b00118
   for GFN0-xTB:
   * P. Pracht, E. Caldeweyher, S. Ehlert, S. Grimme, ChemRxiv, 2019, preprint.
     DOI: 10.26434/chemrxiv.8326202.v1
   for GFN-FF:
   * S. Spicher and S. Grimme, Angew. Chem. Int. Ed., 2020, 59, 15665-15673.
     DOI: 10.1002/anie.202004239
   
   for ALPB and GBSA implicit solvation:
   * S. Ehlert, M. Stahn, S. Spicher, S. Grimme, J. Chem. Theory Comput.,
     2021, 17, 4250-4261. DOI: 10.1021/acs.jctc.1c00471
   
   for DFT-D4:
   * E. Caldeweyher, C. Bannwarth and S. Grimme, J. Chem. Phys., 2017,
     147, 034112. DOI: 10.1063/1.4993215
   * E. Caldeweyher, S. Ehlert, A. Hansen, H. Neugebauer, S. Spicher,
     C. Bannwarth and S. Grimme, J. Chem. Phys., 2019, 150, 154122.
     DOI: 10.1063/1.5090222
   * E. Caldeweyher, J.-M. Mewes, S. Ehlert and S. Grimme, Phys. Chem. Chem. Phys.
     2020, 22, 8499-8512. DOI: 10.1039/D0CP00502A
   
   for sTDA-xTB:
   * S. Grimme and C. Bannwarth, J. Chem. Phys., 2016, 145, 054103.
     DOI: 10.1063/1.4959605
   
   in the mass-spec context:
   * V. Asgeirsson, C. Bauer and S. Grimme, Chem. Sci., 2017, 8, 4879.
     DOI: 10.1039/c7sc00601b
   * J. Koopman and S. Grimme, ACS Omega 2019, 4, 12, 15120-15133.
     DOI: 10.1021/acsomega.9b02011
   
   for metadynamics refer to:
   * S. Grimme, J. Chem. Theory Comput., 2019, 155, 2847-2862
     DOI: 10.1021/acs.jctc.9b00143
   
   for SPH calculations refer to:
   * S. Spicher and S. Grimme, J. Chem. Theory Comput., 2021, 17, 1701-1714
     DOI: 10.1021/acs.jctc.0c01306
   
   with help from (in alphabetical order)
   P. Atkinson, C. Bannwarth, F. Bohle, G. Brandenburg, E. Caldeweyher
   M. Checinski, S. Dohm, S. Ehlert, S. Ehrlich, I. Gerasimov, C. Hölzer
   A. Katbashev, J. Koopman, C. Lavigne, S. Lehtola, F. März, M. Müller,
   F. Musil, H. Neugebauer, J. Pisarek, C. Plett, P. Pracht, F. Pultar,
   J. Seibert, P. Shushkov, S. Spicher, M. Stahn, M. Steiner, T. Strunk,
   J. Stückrath, T. Rose, and J. Unsleber
   
 * started run on 2023/10/26 at 11:27:33.470     

           -------------------------------------------------
          |                Calculation Setup                |
           -------------------------------------------------

          program call               : xtb coord.xyz --opt --gfnff
          coordinate file            : coord.xyz
          omp threads                :                    20

   ID    Z sym.   atoms
    1    8 O      1
    2    1 H      2, 3

          ==================== Thresholds ====================
          CN  :   150.00000
          rep :   500.00000
          disp:  2500.00000
          HB1 :   250.00000
          HB2 :   450.00000

          Pauling EN used:
          Z : 1  EN :  2.20
          Z : 8  EN :  3.44
          electric field strengths (au): 0.000

           ------------------------------------------------- 
          |           Force Field Initialization            |
           ------------------------------------------------- 

          distances ...
          ----------------------------------------
          generating topology and atomic info file ...
          pair mat ...
          computing topology distances matrix with Floyd-Warshall algo ...
          making topology EEQ charges ...
          #fragments for EEQ constrain: 1
          fragment charges from <charges> :  0.000
          ----------------------------------------
          generating topology and atomic info file ...
          pair mat ...
          computing topology distances matrix with Floyd-Warshall algo ...
          making topology EEQ charges ...
          #fragments for EEQ constrain: 1
          fragment charges from <charges> :  0.000
          rings ...
          # BATM   0
          # H in HB   2

  atom   neighbors  erfCN metchar sp-hybrid imet pi  qest     coordinates
    1  O       2    1.92   0.00         3    0    0  -0.571    2.022298   -0.033445    0.094131
    2  H       1    0.97   0.00         0    0    0   0.285    3.835247   -0.015378    0.063084
    3  H       1    0.97   0.00         0    0    0   0.285    1.452162    0.832077   -1.393266

          #atoms :   3
          #bonds :   2
          #angl  :   1
          #tors  :   0
          #nmol  :   1
          #optfrag :   1
           ------------------------------------------------- 
          |                   G F N - F F                   |
          |          A general generic force-field          |
          |                  Version 1.0.3                  | 
           ------------------------------------------------- 
          Number of HB bonds (bound hydrogen)     0
          Number of HB bonds (unbound hydrogen)   0
          Number of XB bonds                      0

 E+G (total)                   0 d,  0 h,  0 min,  0.002 sec
 distance/D3 list               ...        0 min,  0.000 sec (  0.079%)
 non bonded repulsion           ...        0 min,  0.000 sec (  5.918%)
 dCN                            ...        0 min,  0.000 sec (  0.164%)
 EEQ energy and q               ...        0 min,  0.000 sec ( 19.423%)
 D3                             ...        0 min,  0.000 sec ( 11.698%)
 EEQ gradient                   ...        0 min,  0.000 sec ( 14.755%)
 bonds                          ...        0 min,  0.000 sec ( 20.016%)
 bend and torsion               ...        0 min,  0.001 sec ( 26.058%)
 bonded ATM                     ...        0 min,  0.000 sec (  0.034%)
 HB/XB (incl list setup)        ...        0 min,  0.000 sec (  0.593%)

         :::::::::::::::::::::::::::::::::::::::::::::::::::::
         ::                     SUMMARY                     ::
         :::::::::::::::::::::::::::::::::::::::::::::::::::::
         :: total energy              -0.327405667208 Eh    ::
         :: gradient norm              0.021455947754 Eh/a0 ::
         ::.................................................::
         :: bond energy               -0.269813650323 Eh    ::
         :: angle energy               0.001167514553 Eh    ::
         :: torsion energy             0.000000000000 Eh    ::
         :: repulsion energy           0.030786304642 Eh    ::
         :: electrostat energy        -0.089406523183 Eh    ::
         :: dispersion energy         -0.000139312897 Eh    ::
         :: HB energy                  0.000000000000 Eh    ::
         :: XB energy                  0.000000000000 Eh    ::
         :: bonded atm energy          0.000000000000 Eh    ::
         :: external energy            0.000000000000 Eh    ::
         :: add. restraining           0.000000000000 Eh    ::
         :: total charge              -0.000000000000 e     ::
         :::::::::::::::::::::::::::::::::::::::::::::::::::::

      ----------------------------------------------------------- 
     |                   =====================                   |
     |                        A N C O P T                        |
     |                   =====================                   |
     |               Approximate Normal Coordinate               |
     |                Rational Function Optimizer                |
      ----------------------------------------------------------- 

          ...................................................
          :                      SETUP                      :
          :.................................................:
          :   optimization level            normal          :
          :   max. optcycles                   200          :
          :   ANC micro-cycles                  20          :
          :   degrees of freedom                 3          :
          :.................................................:
          :   RF solver                   davidson          :
          :   write xtbopt.log                true          :
          :   linear?                        false          :
          :   energy convergence         0.5000000E-05 Eh   :
          :   grad. convergence          0.1000000E-02 Eh/α :
          :   maxmium RF displ.          1.0000000          :
          :   Hlow (freq-cutoff)         0.1000000E-01      :
          :   Hmax (freq-cutoff)         5.0000000          :
          :   S6 in model hess.         20.0000000          :
          ...................................................

generating ANC from model Hessian ...
Using GFN-FF Lindh-Hessian
 Shifting diagonal of input Hessian by    0.0000000000000000     
 Lowest  eigenvalues of input Hessian
    0.000000    0.000000    0.000000    0.000000    0.000000    0.000000
    0.568202    1.607983    1.647973
 Highest eigenvalues
    0.000000    0.000000    0.000000    0.568202    1.607983    1.647973


........................................................................
.............................. CYCLE    1 ..............................
........................................................................
     iter. time                 ...        0 min,  0.002 sec
 * total energy  :    -0.3274057 Eh     change        0.0000000E+00 Eh
   gradient norm :     0.0214559 Eh/α   predicted     0.0000000E+00 (    NaN%)
   displ. norm   :     0.0172209 α      lambda       -0.3330270E-03
   maximum displ.:     0.0123400 α      in ANC's #3, #1, #2, ...

........................................................................
.............................. CYCLE    2 ..............................
........................................................................
     iter. time                 ...        0 min,  0.002 sec
 * total energy  :    -0.3276208 Eh     change       -0.2151748E-03 Eh
   gradient norm :     0.0072073 Eh/α   predicted    -0.1665631E-03 ( -22.59%)
   displ. norm   :     0.0068767 α      lambda       -0.4805112E-04
   maximum displ.:     0.0063965 α      in ANC's #3, #1, #2, ...

........................................................................
.............................. CYCLE    3 ..............................
........................................................................
     iter. time                 ...        0 min,  0.001 sec
 * total energy  :    -0.3276478 Eh     change       -0.2696425E-04 Eh
   gradient norm :     0.0018065 Eh/α   predicted    -0.2402765E-04 ( -10.89%)
   displ. norm   :     0.0038551 α      lambda       -0.4595184E-05
   maximum displ.:     0.0028524 α      in ANC's #1, #3, #2, ...

........................................................................
.............................. CYCLE    4 ..............................
........................................................................
     iter. time                 ...        0 min,  0.001 sec
 * total energy  :    -0.3276527 Eh     change       -0.4935594E-05 Eh
   gradient norm :     0.0010765 Eh/α   predicted    -0.2297783E-05 ( -53.44%)
   displ. norm   :     0.0062864 α      lambda       -0.4283970E-05
   maximum displ.:     0.0060323 α      in ANC's #1, #3, #2, ...

........................................................................
.............................. CYCLE    5 ..............................
........................................................................
     iter. time                 ...        0 min,  0.001 sec
 * total energy  :    -0.3276561 Eh     change       -0.3349712E-05 Eh
   gradient norm :     0.0001085 Eh/α   predicted    -0.2142275E-05 ( -36.05%)
   displ. norm   :     0.0002657 α      lambda       -0.1354574E-07
   maximum displ.:     0.0002642 α      in ANC's #1, #3, #2, ...

   *** GEOMETRY OPTIMIZATION CONVERGED AFTER 5 ITERATIONS ***

------------------------------------------------------------------------
 total energy gain   :        -0.0002504 Eh       -0.1571 kcal/mol
 total RMSD          :         0.0137296 a0        0.0073 Å
 total power (kW/mol):        -0.1314978 (step)  -77.1160 (real)
------------------------------------------------------------------------

 ANCopt (total)                0 d,  0 h,  0 min,  0.009 sec
 optimizer setup                ...        0 min,  0.000 sec (  0.497%)
 model hessian                  ...        0 min,  0.000 sec (  4.753%)
 ANC generation                 ...        0 min,  0.000 sec (  0.757%)
 coordinate transformation      ...        0 min,  0.000 sec (  0.097%)
 single point calculation       ...        0 min,  0.007 sec ( 83.244%)
 optimization log               ...        0 min,  0.000 sec (  1.147%)
 hessian update                 ...        0 min,  0.001 sec (  6.859%)
 rational function              ...        0 min,  0.000 sec (  0.918%)

================
 final structure:
================
3
 xtb: 6.6.1 (8d0f1dd)
O            1.06485394370645       -0.02153786218080        0.05641033868640
H            2.03525621059129       -0.00733233430690        0.03199817794928
H            0.76801984570226        0.44335019648771       -0.74249851663568

 Bond Distances (Angstroems)
 ---------------------------
O1-H2=0.9708         O1-H3=0.9708         H2-O1=0.9708         H3-O1=0.9708         
 O  H  Rav=0.9708 sigma=0.0000  Rmin=0.9708  Rmax=0.9708     2

 selected bond angles (degree)
 --------------------
H3-O1-H2=106.14                

 selected dihedral angles (degree)
 ---------------------------------

           -------------------------------------------------
          |                Final Singlepoint                |
           -------------------------------------------------
         :::::::::::::::::::::::::::::::::::::::::::::::::::::
         ::                     SUMMARY                     ::
         :::::::::::::::::::::::::::::::::::::::::::::::::::::
         :: total energy              -0.327656091566 Eh    ::
         :: gradient norm              0.000108517774 Eh/a0 ::
         ::.................................................::
         :: bond energy               -0.268240452744 Eh    ::
         :: angle energy               0.000814963640 Eh    ::
         :: torsion energy             0.000000000000 Eh    ::
         :: repulsion energy           0.027422335849 Eh    ::
         :: electrostat energy        -0.087513581229 Eh    ::
         :: dispersion energy         -0.000139357083 Eh    ::
         :: HB energy                  0.000000000000 Eh    ::
         :: XB energy                  0.000000000000 Eh    ::
         :: bonded atm energy          0.000000000000 Eh    ::
         :: external energy            0.000000000000 Eh    ::
         :: add. restraining           0.000000000000 Eh    ::
         :: total charge               0.000000000000 e     ::
         :::::::::::::::::::::::::::::::::::::::::::::::::::::

           -------------------------------------------------
          |                Property Printout                |
           -------------------------------------------------
           -------------------------------------------------
          |                Geometry Summary                 |
           -------------------------------------------------

      molecular mass/u    :       18.0152864
   center of mass at/Å    :        1.1025396       0.0052670       0.0103462
  moments of inertia/u·Å² :        0.6091891E+00   0.1213988E+01   0.1823177E+01
rotational constants/cm⁻¹ :        0.2767225E+02   0.1388616E+02   0.9246294E+01

 * 2 selected distances

     #   Z          #   Z                                           value/Å
     1   8 O        2   1 H                                       0.9708133 (min)
     1   8 O        3   1 H                                       0.9708177 (max)

 * 1 distinct bonds (by element types)

   Z      Z             #   av. dist./Å        max./Å        min./Å
   1 H    8 O           2     0.9708155     0.9708177     0.9708133


optimized geometry written to: xtbopt.xyz


           -------------------------------------------------
          | TOTAL ENERGY               -0.327656091566 Eh   |
          | GRADIENT NORM               0.000108517774 Eh/α |
           -------------------------------------------------
########################################################################
[WARNING] Runtime exception occurred
-1- gfnff_setup: Could not read topology file.
########################################################################

------------------------------------------------------------------------
 * finished run on 2023/10/26 at 11:27:33.593     
------------------------------------------------------------------------
 total:
 * wall-time:     0 d,  0 h,  0 min,  0.122 sec
 *  cpu-time:     0 d,  0 h,  0 min,  2.055 sec
 * ratio c/w:    16.866 speedup
 SCF:
 * wall-time:     0 d,  0 h,  0 min,  0.004 sec
 *  cpu-time:     0 d,  0 h,  0 min,  0.041 sec
 * ratio c/w:    11.047 speedup
 ANC optimizer:
 * wall-time:     0 d,  0 h,  0 min,  0.010 sec
 *  cpu-time:     0 d,  0 h,  0 min,  0.107 sec
 * ratio c/w:    11.154 speedup

