      -----------------------------------------------------------      
     |                   =====================                   |     
     |                           x T B                           |     
     |                   =====================                   |     
     |                         S. Grimme                         |     
     |          Mulliken Center for Theoretical Chemistry        |     
     |                    University of Bonn                     |     
      -----------------------------------------------------------      

   * xtb version 6.6.1 (8d0f1dd) compiled by 'conda@1efc2f54142f' on 2023-08-01

   xtb is free software: you can redistribute it and/or modify it under
   the terms of the GNU Lesser General Public License as published by
   the Free Software Foundation, either version 3 of the License, or
   (at your option) any later version.
   
   xtb is distributed in the hope that it will be useful,
   but WITHOUT ANY WARRANTY; without even the implied warranty of
   MERCHANTABILITY or FITNESS FOR A PARTICULAR PURPOSE.  See the
   GNU Lesser General Public License for more details.
   
   Cite this work as:
   * C. Bannwarth, E. Caldeweyher, S. Ehlert, A. Hansen, P. Pracht,
     J. Seibert, S. Spicher, S. Grimme, WIREs Comput. Mol. Sci., 2020, 11,
     e01493. DOI: 10.1002/wcms.1493
   
   for GFN2-xTB:
   * C. Bannwarth, S. Ehlert and S. Grimme., J. Chem. Theory Comput., 2019,
     15, 1652-1671. DOI: 10.1021/acs.jctc.8b01176
   for GFN1-xTB:
   * S. Grimme, C. Bannwarth, P. Shushkov, J. Chem. Theory Comput., 2017,
     13, 1989-2009. DOI: 10.1021/acs.jctc.7b00118
   for GFN0-xTB:
   * P. Pracht, E. Caldeweyher, S. Ehlert, S. Grimme, ChemRxiv, 2019, preprint.
     DOI: 10.26434/chemrxiv.8326202.v1
   for GFN-FF:
   * S. Spicher and S. Grimme, Angew. Chem. Int. Ed., 2020, 59, 15665-15673.
     DOI: 10.1002/anie.202004239
   
   for ALPB and GBSA implicit solvation:
   * S. Ehlert, M. Stahn, S. Spicher, S. Grimme, J. Chem. Theory Comput.,
     2021, 17, 4250-4261. DOI: 10.1021/acs.jctc.1c00471
   
   for DFT-D4:
   * E. Caldeweyher, C. Bannwarth and S. Grimme, J. Chem. Phys., 2017,
     147, 034112. DOI: 10.1063/1.4993215
   * E. Caldeweyher, S. Ehlert, A. Hansen, H. Neugebauer, S. Spicher,
     C. Bannwarth and S. Grimme, J. Chem. Phys., 2019, 150, 154122.
     DOI: 10.1063/1.5090222
   * E. Caldeweyher, J.-M. Mewes, S. Ehlert and S. Grimme, Phys. Chem. Chem. Phys.
     2020, 22, 8499-8512. DOI: 10.1039/D0CP00502A
   
   for sTDA-xTB:
   * S. Grimme and C. Bannwarth, J. Chem. Phys., 2016, 145, 054103.
     DOI: 10.1063/1.4959605
   
   in the mass-spec context:
   * V. Asgeirsson, C. Bauer and S. Grimme, Chem. Sci., 2017, 8, 4879.
     DOI: 10.1039/c7sc00601b
   * J. Koopman and S. Grimme, ACS Omega 2019, 4, 12, 15120-15133.
     DOI: 10.1021/acsomega.9b02011
   
   for metadynamics refer to:
   * S. Grimme, J. Chem. Theory Comput., 2019, 155, 2847-2862
     DOI: 10.1021/acs.jctc.9b00143
   
   for SPH calculations refer to:
   * S. Spicher and S. Grimme, J. Chem. Theory Comput., 2021, 17, 1701-1714
     DOI: 10.1021/acs.jctc.0c01306
   
   with help from (in alphabetical order)
   P. Atkinson, C. Bannwarth, F. Bohle, G. Brandenburg, E. Caldeweyher
   M. Checinski, S. Dohm, S. Ehlert, S. Ehrlich, I. Gerasimov, C. Hölzer
   A. Katbashev, J. Koopman, C. Lavigne, S. Lehtola, F. März, M. Müller,
   F. Musil, H. Neugebauer, J. Pisarek, C. Plett, P. Pracht, F. Pultar,
   J. Seibert, P. Shushkov, S. Spicher, M. Stahn, M. Steiner, T. Strunk,
   J. Stückrath, T. Rose, and J. Unsleber
   
 * started run on 2023/10/26 at 11:18:54.145     

           -------------------------------------------------
          |                Calculation Setup                |
           -------------------------------------------------

          program call               : xtb coord.xyz
          coordinate file            : coord.xyz
          omp threads                :                    20

   ID    Z sym.   atoms
    1    8 O      1
    2    1 H      2, 3

           -------------------------------------------------
          |                 G F N 2 - x T B                 |
           -------------------------------------------------

        Reference                      10.1021/acs.jctc.8b01176
      * Hamiltonian:
        H0-scaling (s, p, d)           1.850000    2.230000    2.230000
        zeta-weighting                 0.500000
      * Dispersion:
        s8                             2.700000
        a1                             0.520000
        a2                             5.000000
        s9                             5.000000
      * Repulsion:
        kExp                           1.500000    1.000000
        rExp                           1.000000
      * Coulomb:
        alpha                          2.000000
        third order                    shell-resolved
        anisotropic                    true
        a3                             3.000000
        a5                             4.000000
        cn-shift                       1.200000
        cn-exp                         4.000000
        max-rad                        5.000000


          ...................................................
          :                      SETUP                      :
          :.................................................:
          :  # basis functions                   6          :
          :  # atomic orbitals                   6          :
          :  # shells                            4          :
          :  # electrons                         8          :
          :  max. iterations                   250          :
          :  Hamiltonian                  GFN2-xTB          :
          :  restarted?                      false          :
          :  GBSA solvation                  false          :
          :  PC potential                    false          :
          :  electronic temp.          300.0000000     K    :
          :  accuracy                    1.0000000          :
          :  -> integral cutoff          0.2500000E+02      :
          :  -> integral neglect         0.1000000E-07      :
          :  -> SCF convergence          0.1000000E-05 Eh   :
          :  -> wf. convergence          0.1000000E-03 e    :
          :  Broyden damping             0.4000000          :
          ...................................................

 iter      E             dE          RMSdq      gap      omega  full diag
   1     -5.1033200 -0.510332E+01  0.426E+00   14.75       0.0  T
   2     -5.1045439 -0.122385E-02  0.246E+00   14.48       1.0  T
   3     -5.1047729 -0.228988E-03  0.376E-01   14.26       1.0  T
   4     -5.1048336 -0.607075E-04  0.862E-02   14.41       1.0  T
   5     -5.1048367 -0.309636E-05  0.517E-02   14.36       1.1  T
   6     -5.1048382 -0.151011E-05  0.107E-03   14.38      54.2  T
   7     -5.1048382 -0.289432E-09  0.833E-04   14.38      69.3  T
   8     -5.1048382 -0.407949E-09  0.194E-05   14.38    2983.7  T

   *** convergence criteria satisfied after 8 iterations ***

         #    Occupation            Energy/Eh            Energy/eV
      -------------------------------------------------------------
         1        2.0000           -0.6800633             -18.5055
         2        2.0000           -0.5682638             -15.4632
         3        2.0000           -0.5109057             -13.9025
         4        2.0000           -0.4463854             -12.1468 (HOMO)
         5                          0.0821159               2.2345 (LUMO)
         6                          0.2509127               6.8277
      -------------------------------------------------------------
                  HL-Gap            0.5285013 Eh           14.3813 eV
             Fermi-level           -0.1821347 Eh           -4.9561 eV

 SCC (total)                   0 d,  0 h,  0 min,  0.018 sec
 SCC setup                      ...        0 min,  0.001 sec (  4.669%)
 Dispersion                     ...        0 min,  0.004 sec ( 19.958%)
 classical contributions        ...        0 min,  0.000 sec (  1.201%)
 integral evaluation            ...        0 min,  0.002 sec ( 13.333%)
 iterations                     ...        0 min,  0.010 sec ( 52.287%)
 molecular gradient             ...        0 min,  0.002 sec (  8.252%)
 printout                       ...        0 min,  0.000 sec (  0.221%)

         :::::::::::::::::::::::::::::::::::::::::::::::::::::
         ::                     SUMMARY                     ::
         :::::::::::::::::::::::::::::::::::::::::::::::::::::
         :: total energy              -5.070544323569 Eh    ::
         :: gradient norm              0.000458081396 Eh/a0 ::
         :: HOMO-LUMO gap             14.381252816459 eV    ::
         ::.................................................::
         :: SCC energy                -5.104838197286 Eh    ::
         :: -> isotropic ES            0.031458126438 Eh    ::
         :: -> anisotropic ES          0.000399371117 Eh    ::
         :: -> anisotropic XC         -0.000878101528 Eh    ::
         :: -> dispersion             -0.000141091880 Eh    ::
         :: repulsion energy           0.034293873691 Eh    ::
         :: add. restraining           0.000000000000 Eh    ::
         :: total charge               0.000000000000 e     ::
         :::::::::::::::::::::::::::::::::::::::::::::::::::::

           -------------------------------------------------
          |                Property Printout                |
           -------------------------------------------------

    * Orbital Energies and Occupations

         #    Occupation            Energy/Eh            Energy/eV
      -------------------------------------------------------------
         1        2.0000           -0.6800633             -18.5055
         2        2.0000           -0.5682638             -15.4632
         3        2.0000           -0.5109057             -13.9025
         4        2.0000           -0.4463854             -12.1468 (HOMO)
         5                          0.0821159               2.2345 (LUMO)
         6                          0.2509127               6.8277
      -------------------------------------------------------------
                  HL-Gap            0.5285013 Eh           14.3813 eV
             Fermi-level           -0.1821347 Eh           -4.9561 eV

     #   Z          covCN         q      C6AA      α(0)
     1   8 O        1.611    -0.565    24.356     6.661
     2   1 H        0.805     0.282     0.777     1.384
     3   1 H        0.805     0.282     0.777     1.384

 Mol. C6AA /au·bohr⁶  :         44.534933
 Mol. C8AA /au·bohr⁸  :        795.723100
 Mol. α(0) /au        :          9.429122


Wiberg/Mayer (AO) data.
largest (>0.10) Wiberg bond orders for each atom

 ---------------------------------------------------------------------------
     #   Z sym  total        # sym  WBO       # sym  WBO       # sym  WBO
 ---------------------------------------------------------------------------
     1   8 O    1.840 --     2 H    0.920     3 H    0.920
     2   1 H    0.920 --     1 O    0.920
     3   1 H    0.920 --     1 O    0.920
 ---------------------------------------------------------------------------

Topologies differ in total number of bonds
Writing topology from bond orders to xtbtopo.mol

molecular dipole:
                 x           y           z       tot (Debye)
 q only:        0.351       0.249      -0.429
   full:        0.504       0.358      -0.616       2.218
molecular quadrupole (traceless):
                xx          xy          yy          xz          yz          zz
 q only:        2.069       0.544      -1.297      -0.916      -0.489      -0.773
  q+dip:        2.881       0.814      -1.772      -1.371      -0.623      -1.109
   full:        3.035       0.778      -1.939      -1.310      -0.781      -1.096


           -------------------------------------------------
          | TOTAL ENERGY               -5.070544323569 Eh   |
          | GRADIENT NORM               0.000458081396 Eh/α |
          | HOMO-LUMO GAP              14.381252816459 eV   |
           -------------------------------------------------

------------------------------------------------------------------------
 * finished run on 2023/10/26 at 11:18:54.251     
------------------------------------------------------------------------
 total:
 * wall-time:     0 d,  0 h,  0 min,  0.106 sec
 *  cpu-time:     0 d,  0 h,  0 min,  2.065 sec
 * ratio c/w:    19.460 speedup
 SCF:
 * wall-time:     0 d,  0 h,  0 min,  0.018 sec
 *  cpu-time:     0 d,  0 h,  0 min,  0.363 sec
 * ratio c/w:    19.789 speedup

