Intel(R) Parallel Studio XE 2019 Update 4 for Linux*
Copyright (C) 2009-2019 Intel Corporation. All rights reserved.
 --invoking executable--
/ihome/kjordan/shu8/software/source/cfour/cfour-public/bin/xjoda


   *************************************************************************
         <<<     CCCCCC     CCCCCC   |||     CCCCCC     CCCCCC   >>>
       <<<      CCC        CCC       |||    CCC        CCC         >>>
      <<<      CCC        CCC        |||   CCC        CCC            >>>
    <<<        CCC        CCC        |||   CCC        CCC              >>>
      <<<      CCC        CCC        |||   CCC        CCC            >>>
       <<<      CCC        CCC       |||    CCC        CCC         >>>
         <<<     CCCCCC     CCCCCC   |||     CCCCCC     CCCCCC   >>>
   *************************************************************************

     ****************************************************************
     * CFOUR Coupled-Cluster techniques for Computational Chemistry *
     ****************************************************************
 

   Department of Chemistry                Institut fuer Physikalische Chemie
   University of Florida                  Universitaet Mainz
   Gainesville, FL 32611, USA             D-55099 Mainz, Germany

   Department of Chemistry                Fakultaet fuer Chemie und Biowiss.
   Johns Hopkins University               Karlsruher Institut fuer Technologie
   Baltimore, MD 21218, USA               D-76131 Karlsruhe, Germany

   Department of Chemistry                Department of Physical Chemistry
   Southern Methodist University          Eotvos Lorand University
   Dallas, TX 75275, USA                  H-1053 Budapest, Hungary

 
                       Version 2.1
 
                     smp-n214.crc.pitt.edu                             
                     Wed Jan 22 21:18:41 EST 2025                      
                     integer*8 version is running
 
********************************************************************************
*                          Input from ZMAT file                                *
********************************************************************************
RHF/aug-cc-pVQZ on C                                                            
C                                                                               
                                                                                
*ACES2(CALC=SCF                                                                 
BASIS=AUG-PVQZ                                                                  
REF=RHF                                                                         
SCF_CONV=12                                                                     
PRINT=1                                                                         
CHARGE=0                                                                        
MULTIPLICITY=1)                                                                 
                                                                                
********************************************************************************
    -------------------------------------------------------------------
                    CFOUR Control Parameters 
    -------------------------------------------------------------------
        External           Internal           Value            Units
          Name               Name
    -------------------------------------------------------------------
       ABCDTYPE             IABCDT         STANDARD    [  0]    ***   
       ANHARMONIC           IANHAR         OFF         [  0]    ***   
       ANH_ALGORIT          IANALG         STANDARD    [  0]    ***   
       ANH_DERIVAT          IANDER         SECOND      [  1]    ***   
       ANH_MODE             ANHMOD         VIBRATION   [  0]    ***   
       ANH_STEPSIZ          ICUBST             50000          x 10-6  
       ANH_SYMMETR          IANHSM         ABELIAN     [  0]    ***   
       AO_LADDERS           IAOLAD         SINGLEPASS  [  1]    ***   
       AV_SCF               IAVSCF         OFF         [  0]    ***   
       BASIS                IBASIS         AUG-PVQZ    [ 35]    ***   
       BOTHVECTORS          BOTHVC         OFF         [  0]    ***   
       BOX_POTENT           IPIAB          OFF         [  0]    ***   
       BREIT                IBREIT         OFF         [  0]    ***   
       BRUCK_CONV           IBRTOL          10D-  4             ***   
       BRUECKNER            IBRKNR         OFF         [  0]    ***   
       BUFFERSIZE           IBUFFS              4096            ***   
       CACHE_RECS           ICHREC             10               ***   
       CALCLEVEL            ICLLVL         SCF         [  0]    ***   
       CCORBOPT             ICCORB         OFF         [  0]  x 0.01  
       CC_CONV              ICCCNV          10D-  7             ***   
       CC_EXPORDER          ICCEOR              0               ***   
       CC_EXTRAPOL          ICCEXT         DIIS        [  1]    ***   
       CC_GUESS             ICCGES         MP2         [  0]    ***   
       CC_MAXCYC            ICCCYC              0              cycles 
       CC_PROGRAM           ICCPRO         VCC         [  0]    ***   
       CHARGE               ICHRGE              0               ***   
       CHOLESKY             ICHOLE         OFF         [  0]    ***   
       CIS_CONV             ICISTL              5               ***   
       COMM_SIZE            IPSIZE            ***               ***   
       CONSTANT             ICONST         OLD         [  1]    ***   
       CONTINUUM            ICONTU         NONE        [  0]    ***   
       CONTRACTION          ICNTYP         GENERAL     [  1]    ***   
       COORDINATES          ICOORD         INTERNAL    [  0]    ***   
       CPHF_CONVER          ICPHFT          10D- 16             ***   
       CPHF_MAXCYC          ICPHFC             64              cycles 
       CUBIC                ICUBIC         OFF         [  0]    ***   
       CURVILINEAR          ICURVY         OFF         [  0]    ***   
       DBOC                 IDBOC          OFF         [  0]    ***   
       DCT                  IDCT           OFF         [  0]    ***   
       DERIV_LEV            IDRLVL         ZERO        [  0]    ***   
       DEVMEM_SIZE          IDVMEM          50000000           MByte  
       DIAG_MRCC            IEOMST          10D-  0             ***   
       DIFF_TYPE            IDIFTY         RELAXED     [  0]    ***   
       DIRECT               IDIRCT         OFF         [  0]    ***   
       DROPMO               IDRPMO      NONE         
       ECP                  IECP           OFF         [  0]    ***   
       EIGENVECTOR          IVEC                1               ***   
       EL_ANHARM            IELANH         OFF         [  0]    ***   
       EOMFOLLOW            IEOMSR         ENERGY      [  0]    ***   
       EOMIP                IEOMIP         OFF         [  0]    ***   
       EOMLEVEL             HBARFM         SAME        [  0]    ***   
       EOM_MRCC             IMRCCE         NEW         [  1]    ***   
       EOM_NONIT            EOMNON         OFF         [  0]    ***   
       EOM_NSING            IEOMSI          10D-  0             ***   
       EOM_NSTATES          IMRCCD         DAVIDSON    [  0]    ***   
       EOM_NTRIP            IEOMTR          10D-  0             ***   
       EOM_ORDER            IEXORD         ENERGY      [  0]    ***   
       EOM_PROPSTA          IEOMST              0               ***   
       ESTATE_CONV          IEXTOL          10D-  5             ***   
       ESTATE_DIAG          IEXDIG         ITERATIVE   [  0]    ***   
       ESTATE_LOCK          IESLOC         ON          [  1]    ***   
       ESTATE_MAXC          IEXMXC             40               ***   
       ESTATE_PROP          IEXPRP         OFF         [  0]    ***   
       EVAL_HESS            IRECAL              0            # of cyc.
       EXCITATION           IEXCIT              0               ***   
       EXCITE               IEXCIT         NONE        [  0]    ***   
       EXTERN_POT           IEXPOT         OFF         [  0]    ***   
       FCGRADNEW            IFCGNW         OFF         [  0]    ***   
       FC_FIELD             IFINFC              0             x 10-6  
       FD_CALTYPE           IFDCAL         GRADONLY    [  0]    ***   
       FD_PROJECT           IFDPRJ         OFF         [  1]    ***   
       FD_STEPSIZE          IDISFD              0            10-4 bohr
       FD_USEGROUP          IFDGRP         FULL        [  0]    ***   
       FILE_RECSIZ          IFLREC              4096           words  
       FINITE_PERT          IFIPER              0             x 10-6  
       FIXGEOM              IFIXGM         OFF         [  0]    ***   
       FOCK                 IFOCK          AO          [  1]    ***   
       FREQ_ALGORI          IVIALG         STANDARD    [  0]    ***   
       FROZEN_CORE          IFROCO         OFF         [  0]    ***   
       GAMMA_ABCD           IGABCD         STORE       [  0]    ***   
       GAMMA_ABCI           IGABCI         STORE       [  0]    ***   
       GENBAS_1             IGNBS1              0               ***   
       GENBAS_2             IGNBS2              0               ***   
       GENBAS_3             IGNBS3              0               ***   
       GENBAS_4             IGNBS4              0               ***   
       GEO_CONV             ICONTL              5              H/bohr 
       GEO_MAXCYC           IOPTCY             50               ***   
       GEO_MAXSTEP          IMXSTP            300            millibohr
       GEO_METHOD           INR            SINGLE_POINT[  5]    ***   
       GIAO                 IGIAO          OFF         [  1]    ***   
       GIMIC                IGIMIC         OFF         [  0]    ***   
       GRID                 IGRID          OFF         [  0]    ***   
       GRID_ALGO            IGALGO         SERIAL      [  0]    ***   
       GUESS                IGUESS         MOREAD      [  0]    ***   
       HBAR                 IHBAR          OFF         [  0]    ***   
       HESS_TYPE            IHESTP         SCF         [  0]    ***   
       HF2_FILE             IHF2Fl         USE         [  1]    ***   
       HFSTABILITY          ISTABL         OFF         [  0]    ***   
       INCORE               INCORE         OFF         [  0]    ***   
       INPUT_MRCC           IMRCC          ON          [  1]    ***   
       INTEGRALS            INTTYP         VMOL        [  1]    ***   
       JODA_PRINT           IJPRNT              0               ***   
       KEYWORD_OUT          IDMPKW         NO          [  0]    ***   
       LINDEP_TOL           ILINDP              8               ***   
       LINEQ_CONV           IZTACN          10D-  7           cycles  
       LINEQ_EXPOR          ILMAXD              5               ***   
       LINEQ_MAXCY          ILMAXC            100               ***   
       LINEQ_TYPE           ILTYPE         DIIS        [  1]    ***   
       LOCK_ORBOCC          ILOCOC         OFF         [  0]    ***   
       MEMORY_SIZE          IMEMSZ         100000000           words  
       MEM_UNIT             IMEMU          INTEGERWORDS[  0]    ***   
       MRCC                 IMRCCC         OFF         [  0]    ***   
       MULTIPLICTY          IMULTP              1               ***   
       NACOUPLING           IVCOUP         OFF         [  0]    ***   
       NEGEVAL              IDIE           ABORT       [  0]    ***   
       NEWNORM              INEWNO         OFF         [  0]    ***   
       NON-HF               INONHF         OFF         [  0]    ***   
       NTOP_TAMP            ITOPT2             15               ***   
       NUC_MODEL            INUCMO         POINT       [  0]    ***   
       OCCUPATION           IOCCU   ESTIMATED BY SCF 
       OPEN-SHELL           IOPEN          SPIN-ORBITAL[  0]    ***   
       OPTVIB               IOPTVB         OFF         [  0]    ***   
       ORBITALS             IORBTP         STANDARD    [  0]    ***   
       PARALLEL             IPARAL         ON          [  1]    ***   
       PARA_INT             IPINTS         ON          [  1]    ***   
       PARA_PRINT           IPPRIN              0               ***   
       PERT_ORB             IPTORB         STANDARD    [  0]    ***   
       POINTS               IGRDFD              0               ***   
       PRINT                IPRNT               1               ***   
       PROPS                IPROPS         OFF         [  0]    ***   
       PROP_INTEGR          IINTYP         INTERNAL    [  0]    ***   
       PSI                  IPSI           OFF         [  0]    ***   
       QC_ALG               IQCALG         FLM         [  0]    ***   
       QC_LINALG            IQCLIN         TRIDIAG     [  2]    ***   
       QC_MAXCYC            IQCMAX          10D-100           cycles  
       QC_MAXSCFCY          IQCMSC          10D- 15           cycles  
       QC_RTRUST            IQCRTR          10D-  0           x 10-3  
       QC_SKIPSCF           IQCSKI         OFF         [  0]    ***   
       QC_START             IQCSTA          10D-  1             ***   
       QRHFGUESS            IQGUES         OFF         [  0]    ***   
       QUARTIC              IQUART         OFF         [  0]    ***   
       RAMAN_INT            IRAMIN         OFF         [  0]    ***   
       RAMAN_ORB            IRAMRE         UNRELAXED   [  0]    ***   
       RDO                  IRDOFM         OFF         [  0]    ***   
       REDUCE_REPR          REDREP         Ir          [  0]    ***   
       REFERENCE            IREFNC         RHF         [  0]    ***   
       RELATIVIST           IRELAT         OFF         [  0]    ***   
       RELAX_DENS           IRDENS         OFF         [  0]    ***   
       RESET_FLAGS          IRESET         OFF         [  0]    ***   
       RESTART_CC           ICCRES         OFF         [  0]    ***   
       ROT_EVEC             ROTVEC              0               ***   
       SAVE_INTS            ISVINT         OFF         [  0]    ***   
       SCALE_ON             ISTCRT              0               ***   
       SCF_CONV             ISCFCV          10D- 12             ***   
       SCF_DAMPING          IDAMP               0             x 10-3  
       SCF_EXPORDE          IRPPOR              6               ***   
       SCF_EXPSTAR          IRPPLS              8               ***   
       SCF_EXTRAPO          IRPP           ON          [  1]    ***   
       SCF_MAXCYC           ISCFCY            150              cycles 
       SCF_NOSTOP           ISCFST         OFF         [  0]    ***   
       SCF_PRINT            ISCFPR              0               ***   
       SCF_PROG             ISCFPR         SCF         [  0]    ***   
       SD_FIELD             IFINSD              0             x 10-6  
       SOPERT               IPERSO         OFF         [  0]    ***   
       SPHERICAL            IDFGHI         ON          [  1]    ***   
       SPINORBIT            ISOCAL         OFF         [  0]    ***   
       SPINROTATIO          ISRCON         OFF         [  0]    ***   
       SPIN_FLIP            ISPFLP         OFF         [  0]    ***   
       SPIN_ORBIT           ISPORB         OFF         [  0]    ***   
       SPIN_SCAL            ISCSMP         OFF         [  0]    ***   
       STEEPSCALE           ISTPSC              1000          x 10-3  
       SUBGROUP             ISUBGP         DEFAULT     [  0]    ***   
       SUBGRPAXIS           ISBXYZ         X           [  0]    ***   
       SYMMETRY             ISYM           ON          [  0]    ***   
       SYM_CHECK            ISYMCK         OVERRIDE    [  1]    ***   
       T3_EXTRAPOL          IT3EXT         OFF         [  0]    ***   
       T4_EXTRAPOL          IT4EXP         OFF         [  0]    ***   
       TAMP_SUM             IEVERY              0               ***   
       TESTSUITE            ITESTS         OFF         [  0]    ***   
       THERMOCH             ITHERM         OFF         [  0]    ***   
       TOL_CHOLESK          ITOLCH          10D-  4             ***   
       TRANGRAD             IRESRM         OFF         [  0]    ***   
       TRANS_INV            ITRAIN         USE         [  0]    ***   
       TREAT_PERT           ITREAT         SIMULTANEOUS[  0]    ***   
       TRIP_ALGORI          ITRALG         NORMAL      [  0]    ***   
       UIJ_THRESHO          IUIJTH              1               ***   
       UNITS                IUNITS         ANGSTROM    [  0]    ***   
       UNOS                 IUNOS          OFF         [  0]    ***   
       UPDATE_HESS          IHUPDT         ON          [  1]    ***   
       VIBPHASE             ISETPH         STANDARD    [  0]    ***   
       VIBRATION            IVIB           NO          [  0]    ***   
       VIB_ALGORIT          IGEALG         STANDARD    [  0]    ***   
       VNATORB              IVNORB         OFF         [  0]    ***   
       VTRAN                IVTRAN         FULL/PARTIAL[  0]    ***   
       XFIELD               IXEFLD              0             x 10-6  
       XFORM_TOL            IXFTOL          10D- 11             ***   
       YFIELD               IYEFLD              0             x 10-6  
       ZFIELD               IZEFLD              0             x 10-6  
       ZSCALE_EXP           IZEXPS         OFF         [  0]    ***   
    -------------------------------------------------------------------
   1 entries found in Z-matrix 
   Job Title : RHF/aug-cc-pVQZ on C                                                            
   Rotational constants (in cm-1): 

   Rotational constants (in MHz): 

********************************************************************************
   The full molecular point group is I h .
   The largest Abelian subgroup of the full molecular point group is D2h .
   The computational point group is D2h .
********************************************************************************
  GENBAS file not present.   Using default GENBAS. 
 --invoking executable--
/ihome/kjordan/shu8/software/source/cfour/cfour-public/bin/set_genbas
--executable set_genbas finished with status     0 in        0.12 seconds (walltime).
  ECPDATA file not present.   Using default ECPDATA. 
  There are   80 basis functions.
 @GEOPT-W, Archive file not created for single-point calculation.
 @CHECKOUT-I, Total execution time (CPU/WALL):        0.07/       0.20 seconds.
--executable xjoda finished with status     0 in        0.25 seconds (walltime).
 --invoking executable--
/ihome/kjordan/shu8/software/source/cfour/cfour-public/bin/xvmol
 SERIAL VERSION OF MOLECULE STARTED
********************************************************************************
                    INPUT FROM MOL FILE
********************************************************************************
INTGRL        1    0    1    0    0    0    0    0    0                         
         *** CFOUR Program System (Release V0.1) ***                            
RHF/aug-cc-pVQZ on C                                                            
    1    3 X  Y   Z   0.10E-08              0    0                              
   9999.00      3.00                                                            
          6.00000000    1    5    1    1    1    1    1                         
C #1   0.000000000000000   0.000000000000000   0.000000000000000                
   13    6                                                                      
   33980.0000000000       9.100000000000000E-005 -1.900000000000000E-005        
  0.000000000000000E+000  0.000000000000000E+000  0.000000000000000E+000        
  0.000000000000000E+000                                                        
   5089.00000000000       7.040000000000000E-004 -1.510000000000000E-004        
  0.000000000000000E+000  0.000000000000000E+000  0.000000000000000E+000        
  0.000000000000000E+000                                                        
   1157.00000000000       3.693000000000000E-003 -7.850000000000000E-004        
  0.000000000000000E+000  0.000000000000000E+000  0.000000000000000E+000        
  0.000000000000000E+000                                                        
   326.600000000000       1.536000000000000E-002 -3.324000000000000E-003        
  0.000000000000000E+000  0.000000000000000E+000  0.000000000000000E+000        
  0.000000000000000E+000                                                        
   106.100000000000       5.292900000000000E-002 -1.151200000000000E-002        
  0.000000000000000E+000  0.000000000000000E+000  0.000000000000000E+000        
  0.000000000000000E+000                                                        
   38.1100000000000       0.147043000000000      -3.416000000000000E-002        
  0.000000000000000E+000  0.000000000000000E+000  0.000000000000000E+000        
  0.000000000000000E+000                                                        
   14.7500000000000       0.305631000000000      -7.717300000000001E-002        
  0.000000000000000E+000  0.000000000000000E+000  0.000000000000000E+000        
  0.000000000000000E+000                                                        
   6.03500000000000       0.399345000000000      -0.141493000000000             
  0.000000000000000E+000  0.000000000000000E+000  0.000000000000000E+000        
  0.000000000000000E+000                                                        
   2.53000000000000       0.217051000000000      -0.118019000000000             
  0.000000000000000E+000  0.000000000000000E+000  0.000000000000000E+000        
  0.000000000000000E+000                                                        
  0.735500000000000       1.589400000000000E-002  0.273806000000000             
   1.00000000000000       0.000000000000000E+000  0.000000000000000E+000        
  0.000000000000000E+000                                                        
  0.290500000000000      -3.084000000000000E-003  0.586510000000000             
  0.000000000000000E+000   1.00000000000000       0.000000000000000E+000        
  0.000000000000000E+000                                                        
  0.111100000000000       9.779999999999999E-004  0.285430000000000             
  0.000000000000000E+000  0.000000000000000E+000   1.00000000000000             
  0.000000000000000E+000                                                        
  4.145000000000000E-002  0.000000000000000E+000  0.000000000000000E+000        
  0.000000000000000E+000  0.000000000000000E+000  0.000000000000000E+000        
   1.00000000000000                                                             
    7    5                                                                      
   34.5100000000000       5.378000000000000E-003  0.000000000000000E+000        
  0.000000000000000E+000  0.000000000000000E+000  0.000000000000000E+000        
   7.91500000000000       3.613200000000000E-002  0.000000000000000E+000        
  0.000000000000000E+000  0.000000000000000E+000  0.000000000000000E+000        
   2.36800000000000       0.142493000000000       0.000000000000000E+000        
  0.000000000000000E+000  0.000000000000000E+000  0.000000000000000E+000        
  0.813200000000000       0.342150000000000        1.00000000000000             
  0.000000000000000E+000  0.000000000000000E+000  0.000000000000000E+000        
  0.289000000000000       0.463864000000000       0.000000000000000E+000        
   1.00000000000000       0.000000000000000E+000  0.000000000000000E+000        
  0.100700000000000       0.250028000000000       0.000000000000000E+000        
  0.000000000000000E+000   1.00000000000000       0.000000000000000E+000        
  3.218000000000000E-002  0.000000000000000E+000  0.000000000000000E+000        
  0.000000000000000E+000  0.000000000000000E+000   1.00000000000000             
    4    4                                                                      
   1.84800000000000        1.00000000000000       0.000000000000000E+000        
  0.000000000000000E+000  0.000000000000000E+000                                
  0.649000000000000       0.000000000000000E+000   1.00000000000000             
  0.000000000000000E+000  0.000000000000000E+000                                
  0.228000000000000       0.000000000000000E+000  0.000000000000000E+000        
   1.00000000000000       0.000000000000000E+000                                
  7.660000000000000E-002  0.000000000000000E+000  0.000000000000000E+000        
  0.000000000000000E+000   1.00000000000000                                     
    3    3                                                                      
   1.41900000000000        1.00000000000000       0.000000000000000E+000        
  0.000000000000000E+000                                                        
  0.485000000000000       0.000000000000000E+000   1.00000000000000             
  0.000000000000000E+000                                                        
  0.187000000000000       0.000000000000000E+000  0.000000000000000E+000        
   1.00000000000000                                                             
    2    2                                                                      
   1.01100000000000        1.00000000000000       0.000000000000000E+000        
  0.424000000000000       0.000000000000000E+000   1.00000000000000             
FINISH                                                                          
 
********************************************************************************
 ONE- AND TWO-ELECTRON INTEGRALS OVER SYMMETRY-ADAPTED AOS ARE CALCULATED.

  SPHERICAL HARMONICS ARE USED.
  
   1 TYPES OF ATOMS
   3 SYMMETRY OPERATIONS

   REFLECTION IN THE YZ-PLANE
   REFLECTION IN THE XZ-PLANE
   REFLECTION IN THE XY-PLANE
  
  INTEGRALS LESS THAN  0.10E-13 ARE NEGLECTED.

  ATOMIC TYPE NUMBER  1 :
  -----------------------

    NUCLEAR CHARGE:                        6
    NUMBER OF SYMMETRY INDEPENDENT ATOMS:  1
    HIGHEST ORBITAL TYPE:                  G

      1 GROUPS OF CGTOS OF S TYPE
      1 GROUPS OF CGTOS OF P TYPE
      1 GROUPS OF CGTOS OF D TYPE
      1 GROUPS OF CGTOS OF F TYPE
      1 GROUPS OF CGTOS OF G TYPE

    NUCLEAR COORDINATES (IN A.U.) ARE :

    C #1        0.000000000000000        0.000000000000000        0.000000000000000
  
   INTERNUCLEAR DISTANCES (A) :

     FOR ATOM C #1 (COORDINATES :   0.00000   0.00000   0.00000)


   GROUP MULTIPLICATION TABLE :

         1   2   3   4   5   6   7   8
         2   1   4   3   6   5   8   7
         3   4   1   2   7   8   5   6
         4   3   2   1   8   7   6   5
         5   6   7   8   1   2   3   4
         6   5   8   7   2   1   4   3
         7   8   5   6   3   4   1   2
         8   7   6   5   4   3   2   1

   GAUSSIAN BASIS INFORMATION :

   ATOM                 EXPONENT      COEFFICIENTS

 C #1  1    S   
+                 1   33980.000000   0.0000910  -0.0000190   0.0000000   0.0000000   0.0000000   0.0000000
                  2    5089.000000   0.0007040  -0.0001510   0.0000000   0.0000000   0.0000000   0.0000000
                  3    1157.000000   0.0036930  -0.0007850   0.0000000   0.0000000   0.0000000   0.0000000
                  4     326.600000   0.0153600  -0.0033240   0.0000000   0.0000000   0.0000000   0.0000000
                  5     106.100000   0.0529290  -0.0115120   0.0000000   0.0000000   0.0000000   0.0000000
                  6      38.110000   0.1470430  -0.0341600   0.0000000   0.0000000   0.0000000   0.0000000
                  7      14.750000   0.3056310  -0.0771730   0.0000000   0.0000000   0.0000000   0.0000000
                  8       6.035000   0.3993450  -0.1414930   0.0000000   0.0000000   0.0000000   0.0000000
                  9       2.530000   0.2170510  -0.1180190   0.0000000   0.0000000   0.0000000   0.0000000
                 10       0.735500   0.0158940   0.2738060   1.0000000   0.0000000   0.0000000   0.0000000
                 11       0.290500  -0.0030840   0.5865100   0.0000000   1.0000000   0.0000000   0.0000000
                 12       0.111100   0.0009780   0.2854300   0.0000000   0.0000000   1.0000000   0.0000000
                 13       0.041450   0.0000000   0.0000000   0.0000000   0.0000000   0.0000000   1.0000000

 C #1  1    X   
+                14      34.510000   0.0053780   0.0000000   0.0000000   0.0000000   0.0000000
                 15       7.915000   0.0361320   0.0000000   0.0000000   0.0000000   0.0000000
                 16       2.368000   0.1424930   0.0000000   0.0000000   0.0000000   0.0000000
                 17       0.813200   0.3421500   1.0000000   0.0000000   0.0000000   0.0000000
                 18       0.289000   0.4638640   0.0000000   1.0000000   0.0000000   0.0000000
                 19       0.100700   0.2500280   0.0000000   0.0000000   1.0000000   0.0000000
                 20       0.032180   0.0000000   0.0000000   0.0000000   0.0000000   1.0000000

 C #1  1    Y   
+                21      34.510000   0.0053780   0.0000000   0.0000000   0.0000000   0.0000000
                 22       7.915000   0.0361320   0.0000000   0.0000000   0.0000000   0.0000000
                 23       2.368000   0.1424930   0.0000000   0.0000000   0.0000000   0.0000000
                 24       0.813200   0.3421500   1.0000000   0.0000000   0.0000000   0.0000000
                 25       0.289000   0.4638640   0.0000000   1.0000000   0.0000000   0.0000000
                 26       0.100700   0.2500280   0.0000000   0.0000000   1.0000000   0.0000000
                 27       0.032180   0.0000000   0.0000000   0.0000000   0.0000000   1.0000000

 C #1  1    Z   
+                28      34.510000   0.0053780   0.0000000   0.0000000   0.0000000   0.0000000
                 29       7.915000   0.0361320   0.0000000   0.0000000   0.0000000   0.0000000
                 30       2.368000   0.1424930   0.0000000   0.0000000   0.0000000   0.0000000
                 31       0.813200   0.3421500   1.0000000   0.0000000   0.0000000   0.0000000
                 32       0.289000   0.4638640   0.0000000   1.0000000   0.0000000   0.0000000
                 33       0.100700   0.2500280   0.0000000   0.0000000   1.0000000   0.0000000
                 34       0.032180   0.0000000   0.0000000   0.0000000   0.0000000   1.0000000

 C #1  1    XX  
+                35       1.848000   1.0000000   0.0000000   0.0000000   0.0000000
                 36       0.649000   0.0000000   1.0000000   0.0000000   0.0000000
                 37       0.228000   0.0000000   0.0000000   1.0000000   0.0000000
                 38       0.076600   0.0000000   0.0000000   0.0000000   1.0000000

 C #1  1    XY  
+                39       1.848000   1.0000000   0.0000000   0.0000000   0.0000000
                 40       0.649000   0.0000000   1.0000000   0.0000000   0.0000000
                 41       0.228000   0.0000000   0.0000000   1.0000000   0.0000000
                 42       0.076600   0.0000000   0.0000000   0.0000000   1.0000000

 C #1  1    XZ  
+                43       1.848000   1.0000000   0.0000000   0.0000000   0.0000000
                 44       0.649000   0.0000000   1.0000000   0.0000000   0.0000000
                 45       0.228000   0.0000000   0.0000000   1.0000000   0.0000000
                 46       0.076600   0.0000000   0.0000000   0.0000000   1.0000000

 C #1  1    YY  
+                47       1.848000   1.0000000   0.0000000   0.0000000   0.0000000
                 48       0.649000   0.0000000   1.0000000   0.0000000   0.0000000
                 49       0.228000   0.0000000   0.0000000   1.0000000   0.0000000
                 50       0.076600   0.0000000   0.0000000   0.0000000   1.0000000

 C #1  1    YZ  
+                51       1.848000   1.0000000   0.0000000   0.0000000   0.0000000
                 52       0.649000   0.0000000   1.0000000   0.0000000   0.0000000
                 53       0.228000   0.0000000   0.0000000   1.0000000   0.0000000
                 54       0.076600   0.0000000   0.0000000   0.0000000   1.0000000

 C #1  1    ZZ  
+                55       1.848000   1.0000000   0.0000000   0.0000000   0.0000000
                 56       0.649000   0.0000000   1.0000000   0.0000000   0.0000000
                 57       0.228000   0.0000000   0.0000000   1.0000000   0.0000000
                 58       0.076600   0.0000000   0.0000000   0.0000000   1.0000000

 C #1  1    F300
+                59       1.419000   1.0000000   0.0000000   0.0000000
                 60       0.485000   0.0000000   1.0000000   0.0000000
                 61       0.187000   0.0000000   0.0000000   1.0000000

 C #1  1    F210
+                62       1.419000   1.0000000   0.0000000   0.0000000
                 63       0.485000   0.0000000   1.0000000   0.0000000
                 64       0.187000   0.0000000   0.0000000   1.0000000

 C #1  1    F201
+                65       1.419000   1.0000000   0.0000000   0.0000000
                 66       0.485000   0.0000000   1.0000000   0.0000000
                 67       0.187000   0.0000000   0.0000000   1.0000000

 C #1  1    F120
+                68       1.419000   1.0000000   0.0000000   0.0000000
                 69       0.485000   0.0000000   1.0000000   0.0000000
                 70       0.187000   0.0000000   0.0000000   1.0000000

 C #1  1    F111
+                71       1.419000   1.0000000   0.0000000   0.0000000
                 72       0.485000   0.0000000   1.0000000   0.0000000
                 73       0.187000   0.0000000   0.0000000   1.0000000

 C #1  1    F102
+                74       1.419000   1.0000000   0.0000000   0.0000000
                 75       0.485000   0.0000000   1.0000000   0.0000000
                 76       0.187000   0.0000000   0.0000000   1.0000000

 C #1  1    F030
+                77       1.419000   1.0000000   0.0000000   0.0000000
                 78       0.485000   0.0000000   1.0000000   0.0000000
                 79       0.187000   0.0000000   0.0000000   1.0000000

 C #1  1    F021
+                80       1.419000   1.0000000   0.0000000   0.0000000
                 81       0.485000   0.0000000   1.0000000   0.0000000
                 82       0.187000   0.0000000   0.0000000   1.0000000

 C #1  1    F012
+                83       1.419000   1.0000000   0.0000000   0.0000000
                 84       0.485000   0.0000000   1.0000000   0.0000000
                 85       0.187000   0.0000000   0.0000000   1.0000000

 C #1  1    F003
+                86       1.419000   1.0000000   0.0000000   0.0000000
                 87       0.485000   0.0000000   1.0000000   0.0000000
                 88       0.187000   0.0000000   0.0000000   1.0000000

 C #1  1    G400
+                89       1.011000   1.0000000   0.0000000
                 90       0.424000   0.0000000   1.0000000

 C #1  1    G310
+                91       1.011000   1.0000000   0.0000000
                 92       0.424000   0.0000000   1.0000000

 C #1  1    G301
+                93       1.011000   1.0000000   0.0000000
                 94       0.424000   0.0000000   1.0000000

 C #1  1    G220
+                95       1.011000   1.0000000   0.0000000
                 96       0.424000   0.0000000   1.0000000

 C #1  1    G211
+                97       1.011000   1.0000000   0.0000000
                 98       0.424000   0.0000000   1.0000000

 C #1  1    G202
+                99       1.011000   1.0000000   0.0000000
                100       0.424000   0.0000000   1.0000000

 C #1  1    G130
+               101       1.011000   1.0000000   0.0000000
                102       0.424000   0.0000000   1.0000000

 C #1  1    G121
+               103       1.011000   1.0000000   0.0000000
                104       0.424000   0.0000000   1.0000000

 C #1  1    G112
+               105       1.011000   1.0000000   0.0000000
                106       0.424000   0.0000000   1.0000000

 C #1  1    G103
+               107       1.011000   1.0000000   0.0000000
                108       0.424000   0.0000000   1.0000000

 C #1  1    G040
+               109       1.011000   1.0000000   0.0000000
                110       0.424000   0.0000000   1.0000000

 C #1  1    G031
+               111       1.011000   1.0000000   0.0000000
                112       0.424000   0.0000000   1.0000000

 C #1  1    G022
+               113       1.011000   1.0000000   0.0000000
                114       0.424000   0.0000000   1.0000000

 C #1  1    G013
+               115       1.011000   1.0000000   0.0000000
                116       0.424000   0.0000000   1.0000000

 C #1  1    G004
+               117       1.011000   1.0000000   0.0000000
                118       0.424000   0.0000000   1.0000000
105 80
  1  2  3  4  5  6  7  8  9 10 11 12 13 14************ 15 16 17 18 19 20***
*************** 21 22 23 24 25 26 27 28 29 30 31********* 32 33 34 35 36 37
 38 39 40 41 42********* 43 44 45 46 47 48 49 50****** 51 52 53 54 55 56 57
 58 59 60 61********* 62 63 64 65 66 67 68 69****** 70 71 72 73 74 75 76 77
****** 78 79 80
1

             SYMMETRY TRANSFORMATION INFO
             80 SYMMETRY ADAPTED BASIS FUNCTIONS 


          IRREDUCIBLE REPRESENTATION NUMBER 1

    1    1  C #1     1S     1   1   1.0
    2    2  C #1     1S     1   2   1.0
    3    3  C #1     1S     1   3   1.0
    4    4  C #1     1S     1   4   1.0
    5    5  C #1     1S     1   5   1.0
    6    6  C #1     1S     1   6   1.0
    7    7  C #1     3D2-   3  22  -1.0  34  -1.0  42   2.0
    8    8  C #1     3D2-   3  23  -1.0  35  -1.0  43   2.0
    9    9  C #1     3D2-   3  24  -1.0  36  -1.0  44   2.0
   10   10  C #1     3D2-   3  25  -1.0  37  -1.0  45   2.0
   11   11  C #1     3D1+   2  22   1.0  34  -1.0
   12   12  C #1     3D1+   2  23   1.0  35  -1.0
   13   13  C #1     3D1+   2  24   1.0  36  -1.0
   14   14  C #1     3D1+   2  25   1.0  37  -1.0
   15   15  C #1     5G4-   6  76   3.0  82   6.0  86 -24.0  96   3.0 100 -24.0 104   8.0
   16   16  C #1     5G4-   6  77   3.0  83   6.0  87 -24.0  97   3.0 101 -24.0 105   8.0
   17   17  C #1     5G1-   3  76   1.0  82  -6.0  96   1.0
   18   18  C #1     5G1-   3  77   1.0  83  -6.0  97   1.0
   19   19  C #1     5G1+   4  76  -1.0  86   6.0  96   1.0 100  -6.0
   20   20  C #1     5G1+   4  77  -1.0  87   6.0  97   1.0 101  -6.0


          IRREDUCIBLE REPRESENTATION NUMBER 2

   21    1  C #1     2PX    1   7   1.0
   22    2  C #1     2PX    1   8   1.0
   23    3  C #1     2PX    1   9   1.0
   24    4  C #1     2PX    1  10   1.0
   25    5  C #1     2PX    1  11   1.0
   26    6  C #1     4F3-   3  46  -1.0  55  -1.0  61   4.0
   27    7  C #1     4F3-   3  47  -1.0  56  -1.0  62   4.0
   28    8  C #1     4F3-   3  48  -1.0  57  -1.0  63   4.0
   29    9  C #1     4F0    2  46   1.0  55  -3.0
   30   10  C #1     4F0    2  47   1.0  56  -3.0
   31   11  C #1     4F0    2  48   1.0  57  -3.0


          IRREDUCIBLE REPRESENTATION NUMBER 3

   32    1  C #1     2PY    1  12   1.0
   33    2  C #1     2PY    1  13   1.0
   34    3  C #1     2PY    1  14   1.0
   35    4  C #1     2PY    1  15   1.0
   36    5  C #1     2PY    1  16   1.0
   37    6  C #1     4F2-   3  49  -1.0  64  -1.0  70   4.0
   38    7  C #1     4F2-   3  50  -1.0  65  -1.0  71   4.0
   39    8  C #1     4F2-   3  51  -1.0  66  -1.0  72   4.0
   40    9  C #1     4F2+   2  49   3.0  64  -1.0
   41   10  C #1     4F2+   2  50   3.0  65  -1.0
   42   11  C #1     4F2+   2  51   3.0  66  -1.0


          IRREDUCIBLE REPRESENTATION NUMBER 4

   43    1  C #1     3D1-   1  26   1.0
   44    2  C #1     3D1-   1  27   1.0
   45    3  C #1     3D1-   1  28   1.0
   46    4  C #1     3D1-   1  29   1.0
   47    5  C #1     5G3-   3  78  -1.0  88  -1.0  92   6.0
   48    6  C #1     5G3-   3  79  -1.0  89  -1.0  93   6.0
   49    7  C #1     5G2+   2  78   1.0  88  -1.0
   50    8  C #1     5G2+   2  79   1.0  89  -1.0


          IRREDUCIBLE REPRESENTATION NUMBER 5

   51    1  C #1     2PZ    1  17   1.0
   52    2  C #1     2PZ    1  18   1.0
   53    3  C #1     2PZ    1  19   1.0
   54    4  C #1     2PZ    1  20   1.0
   55    5  C #1     2PZ    1  21   1.0
   56    6  C #1     4F1-   3  52  -3.0  67  -3.0  73   2.0
   57    7  C #1     4F1-   3  53  -3.0  68  -3.0  74   2.0
   58    8  C #1     4F1-   3  54  -3.0  69  -3.0  75   2.0
   59    9  C #1     4F3+   2  52   1.0  67  -1.0
   60   10  C #1     4F3+   2  53   1.0  68  -1.0
   61   11  C #1     4F3+   2  54   1.0  69  -1.0


          IRREDUCIBLE REPRESENTATION NUMBER 6

   62    1  C #1     3D0    1  30   1.0
   63    2  C #1     3D0    1  31   1.0
   64    3  C #1     3D0    1  32   1.0
   65    4  C #1     3D0    1  33   1.0
   66    5  C #1     5G2-   3  80  -3.0  90  -3.0  94   4.0
   67    6  C #1     5G2-   3  81  -3.0  91  -3.0  95   4.0
   68    7  C #1     5G3+   2  80   1.0  90  -3.0
   69    8  C #1     5G3+   2  81   1.0  91  -3.0


          IRREDUCIBLE REPRESENTATION NUMBER 7

   70    1  C #1     3D2+   1  38   1.0
   71    2  C #1     3D2+   1  39   1.0
   72    3  C #1     3D2+   1  40   1.0
   73    4  C #1     3D2+   1  41   1.0
   74    5  C #1     5G0    2  84   3.0  98  -1.0
   75    6  C #1     5G0    2  85   3.0  99  -1.0
   76    7  C #1     5G4+   3  84  -3.0  98  -3.0 102   4.0
   77    8  C #1     5G4+   3  85  -3.0  99  -3.0 103   4.0


          IRREDUCIBLE REPRESENTATION NUMBER 8

   78    1  C #1     4F1+   1  58   1.0
   79    2  C #1     4F1+   1  59   1.0
   80    3  C #1     4F1+   1  60   1.0
  NUCLEAR REPULSION ENERGY :    0.0000000000 A.U.
  @MOLECU-I, ONE ELECTRON INTEGRALS (CPU/WALL):        0.01/       0.01 SECONDS.
  @TWOEL-I,      19106 INTEGRALS OF SYMMETRY TYPE  I I I I
  @TWOEL-I,     131787 INTEGRALS OF SYMMETRY TYPE  I J I J
  @TWOEL-I,      82182 INTEGRALS OF SYMMETRY TYPE  I I J J
  @TWOEL-I,     286175 INTEGRALS OF SYMMETRY TYPE  I J K L
  @TWOEL-I, TOTAL NUMBER OF 2-E INTEGRALS     519250.
  @MOLECU-I, TWO ELECTRON INTEGRALS (CPU/WALL):        0.44/       0.44 SECONDS.
 @CHECKOUT-I, Total execution time (CPU/WALL):        0.45/       0.45 seconds.

OMP_NUM_THREADS not specified; defaulting to 1
Running with 1 threads/proc

--executable xvmol finished with status     0 in        0.55 seconds (walltime).
 --invoking executable--
/ihome/kjordan/shu8/software/source/cfour/cfour-public/bin/xvmol2ja
 @GETMEM-I,  Allocated     762 MB of main memory.
 ZMAT order <=> comp order: mapping vector 
           1    1
 @CHECKOUT-I, Total execution time (CPU/WALL):        0.01/       0.01 seconds.
--executable xvmol2ja finished with status     0 in        0.05 seconds (walltime).
 --invoking executable--
/ihome/kjordan/shu8/software/source/cfour/cfour-public/bin/xvscf
  There are   80 functions in the AO basis.

  There are 8 irreducible representations.

       Irrep        # of functions
         1                 20
         2                 11
         3                 11
         4                  8
         5                 11
         6                  8
         7                  8
         8                  3


  Parameters for SCF calculation: 
        SCF reference function:  RHF  
  Maximum number of iterations:  150
     Full symmetry point group: I h 
     Computational point group: D2h 
        Initial density matrix: MOREAD                 
     SCF convergence tolerance: 10**(-12)
  DIIS convergence acceleration:  ON
          Latest start for DIIS:   8
                     DIIS order:   6

  Memory information:     384814 words required.
  Fock matrices are constructed from AO integral file.
 @GETMEM-I,  Allocated       2 MB of main memory.
  Initialization and symmetry analysis required      0.001 seconds.

 @INITGES-I, Routine entered. 
  @INITGES-I, Occupancies from core Hamiltonian:

          Alpha population by irrep:   1    1    0    0    1    0    0    0
           Beta population by irrep:   1    1    0    0    1    0    0    0


 total no. of electrons in initial guess :  0.000000000000000E+000
  --------------------------------------------------------------------
  Iteration         Total Energy            Largest Density Difference
  --------------------------------------------------------------------
       0             0.000000000000000              0.0000000000D+00
   current occupation vector 
     1  1  0  0  1  0  0  0
     1  1  0  0  1  0  0  0
  processed                  19106  ao basis integrals from 
                     5  buffers.
  processed                  82182  ao basis integrals from 
                    21  buffers.
  processed                 131787  ao basis integrals from 
                    33  buffers.
       1           -32.624975766444187              0.2585158328D+02
   current occupation vector 
     1  1  0  0  1  0  0  0
     1  1  0  0  1  0  0  0
  processed                  19106  ao basis integrals from 
                     5  buffers.
  processed                  82182  ao basis integrals from 
                    21  buffers.
  processed                 131787  ao basis integrals from 
                    33  buffers.
       2           -34.660928604401079              0.2585158328D+02
   current occupation vector 
     2  0  1  0  0  0  0  0
     2  0  1  0  0  0  0  0
  processed                  19106  ao basis integrals from 
                     5  buffers.
  processed                  82182  ao basis integrals from 
                    21  buffers.
  processed                 131787  ao basis integrals from 
                    33  buffers.
       3           -37.184089781974862              0.5150450443D+01
   current occupation vector 
     2  0  0  0  1  0  0  0
     2  0  0  0  1  0  0  0
  processed                  19106  ao basis integrals from 
                     5  buffers.
  processed                  82182  ao basis integrals from 
                    21  buffers.
  processed                 131787  ao basis integrals from 
                    33  buffers.
       4           -37.600008350350400              0.3322038469D+01
   current occupation vector 
     2  0  0  0  1  0  0  0
     2  0  0  0  1  0  0  0
 
 sum over diagonal and offdiagdiagonal of C(T)*S*C for irrep
                     1
 -7.752687380957468E-013 -8.872425094460987E-014
 reorthoganalization of MOs is carried out
 sum over diagonal and offdiagdiagonal of C(T)*S*C for irrep
                     1
 -7.660538869913580E-015 -5.757053759014598E-014
 
 sum over diagonal and offdiagdiagonal of C(T)*S*C for irrep
                     2
 -1.676436767183986E-014 -3.995696802810885E-014
 reorthoganalization of MOs is carried out
 sum over diagonal and offdiagdiagonal of C(T)*S*C for irrep
                     2
  3.996802888650564E-015  2.689996392909466E-015
 
 sum over diagonal and offdiagdiagonal of C(T)*S*C for irrep
                     3
 -2.009503674571533E-014 -3.635561138461939E-014
 reorthoganalization of MOs is carried out
 sum over diagonal and offdiagdiagonal of C(T)*S*C for irrep
                     3
  1.665334536937735E-015  4.832967874485350E-015
 
 sum over diagonal and offdiagdiagonal of C(T)*S*C for irrep
                     4
  2.553512956637860E-015 -5.188825949234211E-015
 reorthoganalization of MOs is carried out
 sum over diagonal and offdiagdiagonal of C(T)*S*C for irrep
                     4
 -9.992007221626409E-016  1.128313437092086E-016
 
 sum over diagonal and offdiagdiagonal of C(T)*S*C for irrep
                     5
  1.021405182655144E-014  1.515588102468896E-014
 reorthoganalization of MOs is carried out
 sum over diagonal and offdiagdiagonal of C(T)*S*C for irrep
                     5
 -4.773959005888173E-015  1.334714577334306E-017
 
 sum over diagonal and offdiagdiagonal of C(T)*S*C for irrep
                     6
  2.309263891220326E-014 -1.696056730624236E-014
 reorthoganalization of MOs is carried out
 sum over diagonal and offdiagdiagonal of C(T)*S*C for irrep
                     6
 -3.330669073875470E-016 -1.812497357612931E-015
 
 sum over diagonal and offdiagdiagonal of C(T)*S*C for irrep
                     7
  8.437694987151190E-015  1.732186473333438E-014
 reorthoganalization of MOs is carried out
 sum over diagonal and offdiagdiagonal of C(T)*S*C for irrep
                     7
 -7.771561172376096E-016 -1.174420882542311E-015
 
 sum over diagonal and offdiagdiagonal of C(T)*S*C for irrep
                     8
 -2.775557561562891E-015  5.060188379424346E-015
 reorthoganalization of MOs is carried out
 sum over diagonal and offdiagdiagonal of C(T)*S*C for irrep
                     8
 -1.110223024625157E-016  1.665334536937735E-016
  processed                  19106  ao basis integrals from 
                     5  buffers.
  processed                  82182  ao basis integrals from 
                    21  buffers.
  processed                 131787  ao basis integrals from 
                    33  buffers.
       5           -37.604350976146350              0.1570007030D+00
   current occupation vector 
     2  0  0  0  1  0  0  0
     2  0  0  0  1  0  0  0
  processed                  19106  ao basis integrals from 
                     5  buffers.
  processed                  82182  ao basis integrals from 
                    21  buffers.
  processed                 131787  ao basis integrals from 
                    33  buffers.
       6           -37.604531455730047              0.5110915313D-01
   current occupation vector 
     2  0  0  0  1  0  0  0
     2  0  0  0  1  0  0  0
  processed                  19106  ao basis integrals from 
                     5  buffers.
  processed                  82182  ao basis integrals from 
                    21  buffers.
  processed                 131787  ao basis integrals from 
                    33  buffers.
       7           -37.604542600309742              0.9306357215D-02
   current occupation vector 
     2  0  0  0  1  0  0  0
     2  0  0  0  1  0  0  0
  processed                  19106  ao basis integrals from 
                     5  buffers.
  processed                  82182  ao basis integrals from 
                    21  buffers.
  processed                 131787  ao basis integrals from 
                    33  buffers.
       8           -37.604542647182583              0.6257533927D-03
   current occupation vector 
     2  0  0  0  1  0  0  0
     2  0  0  0  1  0  0  0
  processed                  19106  ao basis integrals from 
                     5  buffers.
  processed                  82182  ao basis integrals from 
                    21  buffers.
  processed                 131787  ao basis integrals from 
                    33  buffers.
       9           -37.604542648383784              0.9808352641D-04
   current occupation vector 
     2  0  0  0  1  0  0  0
     2  0  0  0  1  0  0  0
 
 sum over diagonal and offdiagdiagonal of C(T)*S*C for irrep
                     1
 -6.367129046225273E-013 -5.642194132366452E-014
 reorthoganalization of MOs is carried out
 sum over diagonal and offdiagdiagonal of C(T)*S*C for irrep
                     1
 -4.107825191113079E-015  6.468963383058027E-015
 
 sum over diagonal and offdiagdiagonal of C(T)*S*C for irrep
                     2
 -2.409183963436590E-014 -6.654373327076820E-014
 reorthoganalization of MOs is carried out
 sum over diagonal and offdiagdiagonal of C(T)*S*C for irrep
                     2
  3.330669073875470E-015  6.765089094664565E-015
 
 sum over diagonal and offdiagdiagonal of C(T)*S*C for irrep
                     3
 -8.548717289613705E-015 -6.303136445899991E-014
 reorthoganalization of MOs is carried out
 sum over diagonal and offdiagdiagonal of C(T)*S*C for irrep
                     3
  2.220446049250313E-015  3.079811698938612E-016
 
 sum over diagonal and offdiagdiagonal of C(T)*S*C for irrep
                     4
  1.554312234475219E-015 -2.635785221697473E-015
 reorthoganalization of MOs is carried out
 sum over diagonal and offdiagdiagonal of C(T)*S*C for irrep
                     4
 -4.440892098500626E-016  9.630306221676163E-017
 
 sum over diagonal and offdiagdiagonal of C(T)*S*C for irrep
                     5
 -7.882583474838611E-015  1.688039699962223E-014
 reorthoganalization of MOs is carried out
 sum over diagonal and offdiagdiagonal of C(T)*S*C for irrep
                     5
  4.996003610813204E-015 -1.991971406559139E-017
 
 sum over diagonal and offdiagdiagonal of C(T)*S*C for irrep
                     6
  1.809663530139005E-014  1.670482308720037E-014
 reorthoganalization of MOs is carried out
 sum over diagonal and offdiagdiagonal of C(T)*S*C for irrep
                     6
 -1.443289932012704E-015  1.122733129195359E-015
 
 sum over diagonal and offdiagdiagonal of C(T)*S*C for irrep
                     7
  1.709743457922741E-014  9.439853071607852E-015
 reorthoganalization of MOs is carried out
 sum over diagonal and offdiagdiagonal of C(T)*S*C for irrep
                     7
 -1.665334536937735E-015  1.237604511280341E-016
 
 sum over diagonal and offdiagdiagonal of C(T)*S*C for irrep
                     8
 -4.218847493575595E-015  5.381112222480056E-015
 reorthoganalization of MOs is carried out
 sum over diagonal and offdiagdiagonal of C(T)*S*C for irrep
                     8
 -3.330669073875470E-016  1.647987302177967E-016
  processed                  19106  ao basis integrals from 
                     5  buffers.
  processed                  82182  ao basis integrals from 
                    21  buffers.
  processed                 131787  ao basis integrals from 
                    33  buffers.
      10           -37.604542648423234              0.1524973347D-04
   current occupation vector 
     2  0  0  0  1  0  0  0
     2  0  0  0  1  0  0  0
  processed                  19106  ao basis integrals from 
                     5  buffers.
  processed                  82182  ao basis integrals from 
                    21  buffers.
  processed                 131787  ao basis integrals from 
                    33  buffers.
      11           -37.604542648423653              0.1610347807D-05
   current occupation vector 
     2  0  0  0  1  0  0  0
     2  0  0  0  1  0  0  0
  processed                  19106  ao basis integrals from 
                     5  buffers.
  processed                  82182  ao basis integrals from 
                    21  buffers.
  processed                 131787  ao basis integrals from 
                    33  buffers.
      12           -37.604542648423568              0.1855302274D-06
   current occupation vector 
     2  0  0  0  1  0  0  0
     2  0  0  0  1  0  0  0
  processed                  19106  ao basis integrals from 
                     5  buffers.
  processed                  82182  ao basis integrals from 
                    21  buffers.
  processed                 131787  ao basis integrals from 
                    33  buffers.
      13           -37.604542648423603              0.9410611922D-08
   current occupation vector 
     2  0  0  0  1  0  0  0
     2  0  0  0  1  0  0  0
  processed                  19106  ao basis integrals from 
                     5  buffers.
  processed                  82182  ao basis integrals from 
                    21  buffers.
  processed                 131787  ao basis integrals from 
                    33  buffers.
      14           -37.604542648423617              0.6578285902D-09
   current occupation vector 
     2  0  0  0  1  0  0  0
     2  0  0  0  1  0  0  0
 
 sum over diagonal and offdiagdiagonal of C(T)*S*C for irrep
                     1
 -8.730793865652231E-013 -1.561519690550981E-013
 reorthoganalization of MOs is carried out
 sum over diagonal and offdiagdiagonal of C(T)*S*C for irrep
                     1
  2.121636200058674E-013  4.091298258512696E-014
 
 sum over diagonal and offdiagdiagonal of C(T)*S*C for irrep
                     2
 -8.215650382226158E-015 -6.522342651951348E-014
 reorthoganalization of MOs is carried out
 sum over diagonal and offdiagdiagonal of C(T)*S*C for irrep
                     2
  2.220446049250313E-015 -4.963269122594930E-015
 
 sum over diagonal and offdiagdiagonal of C(T)*S*C for irrep
                     3
 -1.709743457922741E-014 -6.560431699973481E-014
 reorthoganalization of MOs is carried out
 sum over diagonal and offdiagdiagonal of C(T)*S*C for irrep
                     3
 -4.662936703425657E-015 -2.751973199698182E-015
 
 sum over diagonal and offdiagdiagonal of C(T)*S*C for irrep
                     4
 -6.772360450213455E-015 -7.239096316023377E-016
 reorthoganalization of MOs is carried out
 sum over diagonal and offdiagdiagonal of C(T)*S*C for irrep
                     4
 -1.110223024625157E-016 -6.996684844300151E-016
 
 sum over diagonal and offdiagdiagonal of C(T)*S*C for irrep
                     5
  3.996802888650564E-015  1.245892491479702E-014
 reorthoganalization of MOs is carried out
 sum over diagonal and offdiagdiagonal of C(T)*S*C for irrep
                     5
  3.552713678800501E-015 -2.175439800526018E-015
 
 sum over diagonal and offdiagdiagonal of C(T)*S*C for irrep
                     6
  2.864375403532904E-014  1.373950629639301E-014
 reorthoganalization of MOs is carried out
 sum over diagonal and offdiagdiagonal of C(T)*S*C for irrep
                     6
 -9.992007221626409E-016  6.902352902595355E-016
 
 sum over diagonal and offdiagdiagonal of C(T)*S*C for irrep
                     7
  2.509104035652854E-014  1.500851345943059E-014
 reorthoganalization of MOs is carried out
 sum over diagonal and offdiagdiagonal of C(T)*S*C for irrep
                     7
  4.440892098500626E-016 -1.303858991529948E-016
 
 sum over diagonal and offdiagdiagonal of C(T)*S*C for irrep
                     8
 -5.329070518200751E-015  4.869368797066898E-015
 reorthoganalization of MOs is carried out
 sum over diagonal and offdiagdiagonal of C(T)*S*C for irrep
                     8
  0.000000000000000E+000  3.469446951953614E-018
  processed                  19106  ao basis integrals from 
                     5  buffers.
  processed                  82182  ao basis integrals from 
                    21  buffers.
  processed                 131787  ao basis integrals from 
                    33  buffers.
      15           -37.604542648423639              0.5650554157D-10
   current occupation vector 
     2  0  0  0  1  0  0  0
     2  0  0  0  1  0  0  0
  processed                  19106  ao basis integrals from 
                     5  buffers.
  processed                  82182  ao basis integrals from 
                    21  buffers.
  processed                 131787  ao basis integrals from 
                    33  buffers.
      16           -37.604542648423845              0.6098677119D-11
   current occupation vector 
     2  0  0  0  1  0  0  0
     2  0  0  0  1  0  0  0

  SCF has converged.

 Density matrix saved to file den.dat
 total electron number:   6.00000000000002     
  processed                  19106  ao basis integrals from 
                     5  buffers.
  processed                  82182  ao basis integrals from 
                    21  buffers.
  processed                 131787  ao basis integrals from 
                    33  buffers.
     E(SCF)=       -37.604542648423688              0.8288578157D-12


  Final occupancies:

     Alpha population by irrep:   2    0    0    0    1    0    0    0
      Beta population by irrep:   2    0    0    0    1    0    0    0



  ORBITAL EIGENVECTORS

  SYMMETRY BLOCK 1 (ALPHA)

                          MO #  1       MO #  2       MO #  3       MO #  4

    BASIS/ORB E          -11.36499      -0.72563       0.08342       0.23237
                        ----------    ----------    ----------    ----------
    1; C #1                1.00027       0.00056       0.02692       0.00000
    2; C #1                0.00046       1.01046       0.34429       0.00000
    3; C #1               -0.00027       0.00428       0.07965       0.00000
    4; C #1               -0.00066      -0.00071      -0.42683      -0.00000
    5; C #1                0.00050      -0.01694       1.26052       0.00000
    6; C #1               -0.00040       0.00293      -1.81403      -0.00000
    7; C #1               -0.00006       0.00064      -0.00014       0.00000
    8; C #1                0.00029      -0.00019      -0.00000      -0.00000
    9; C #1               -0.00003       0.00248      -0.00307       0.00000
   10; C #1                0.00003       0.00126       0.01797      -0.00000
   11; C #1               -0.00000       0.00000      -0.00000       0.00463
   12; C #1                0.00000      -0.00000       0.00000      -0.03375
   13; C #1               -0.00000       0.00000       0.00000       0.09722
   14; C #1                0.00000      -0.00000       0.00000      -0.54957
   15; C #1               -0.00000      -0.00000       0.00000      -0.00000
   16; C #1               -0.00000      -0.00000      -0.00000       0.00000
   17; C #1                0.00000       0.00000       0.00000       0.00000
   18; C #1                0.00000      -0.00000      -0.00000      -0.00000
   19; C #1               -0.00000      -0.00000      -0.00000      -0.00004
   20; C #1                0.00000       0.00000      -0.00000       0.00022


                          MO #  5       MO #  6       MO #  7       MO #  8

    BASIS/ORB E            0.24542       0.50321       0.77567       0.79844
                        ----------    ----------    ----------    ----------
    1; C #1                0.00460       0.08284      -0.00000       0.01166
    2; C #1                0.02777      -0.27441      -0.00000       0.02665
    3; C #1                0.01530       0.34978      -0.00000       0.04164
    4; C #1               -0.08999      -2.49136       0.00000      -0.19938
    5; C #1                0.15933       3.80597      -0.00000       0.20298
    6; C #1               -0.13847      -1.54598       0.00000      -0.08735
    7; C #1                0.00265      -0.00096      -0.00000       0.01747
    8; C #1               -0.02095       0.00756       0.00000      -0.03799
    9; C #1                0.05696      -0.02397      -0.00000       0.38664
   10; C #1               -0.31697       0.01800       0.00000      -0.19596
   11; C #1               -0.00000      -0.00000       0.02880       0.00000
   12; C #1                0.00000       0.00000      -0.06938      -0.00000
   13; C #1               -0.00000       0.00000       0.67375       0.00000
   14; C #1                0.00000       0.00000      -0.34119      -0.00000
   15; C #1               -0.00001      -0.00000      -0.00000       0.00001
   16; C #1                0.00008       0.00001       0.00000      -0.00032
   17; C #1               -0.00000      -0.00000       0.00000       0.00000
   18; C #1               -0.00000      -0.00000       0.00000       0.00000
   19; C #1                0.00000       0.00000       0.00004       0.00000
   20; C #1               -0.00000      -0.00000      -0.00090      -0.00000


                          MO #  9       MO # 10       MO # 11       MO # 12

    BASIS/ORB E            2.08999       2.10756       2.13863       2.15489
                        ----------    ----------    ----------    ----------
    1; C #1                0.00000       0.55883       0.00000       0.00231
    2; C #1                0.00000       3.66902       0.00000       0.01527
    3; C #1                0.00000       2.28698       0.00000       0.00956
    4; C #1               -0.00000      -6.61097      -0.00000      -0.02719
    5; C #1                0.00000       1.60179       0.00000       0.00587
    6; C #1               -0.00000      -0.78582      -0.00000      -0.00298
    7; C #1               -0.00000      -0.00566       0.00000      -0.00141
    8; C #1                0.00000       0.03050      -0.00000       0.00347
    9; C #1               -0.00000      -0.02614       0.00000      -0.01117
   10; C #1                0.00000       0.00983      -0.00000       0.00368
   11; C #1               -0.00000       0.00000       0.00150      -0.00000
   12; C #1                0.00000      -0.00000      -0.00284       0.00000
   13; C #1               -0.00000       0.00000       0.01159      -0.00000
   14; C #1                0.00000      -0.00000      -0.00382       0.00000
   15; C #1               -0.00000      -0.00003       0.00000       0.00243
   16; C #1                0.00000       0.00007      -0.00000      -0.01351
   17; C #1                0.01418      -0.00000       0.00000       0.00000
   18; C #1               -0.07985       0.00000      -0.00000      -0.00000
   19; C #1                0.00000       0.00000      -0.01084      -0.00000
   20; C #1               -0.00000      -0.00000       0.06041      -0.00000


                          MO # 13       MO # 14       MO # 15       MO # 16

    BASIS/ORB E            2.19727       2.24477       5.87388       5.95483
                        ----------    ----------    ----------    ----------
    1; C #1               -0.00000       0.04598       0.00000      -0.00000
    2; C #1               -0.00000       0.25908       0.00000      -0.00000
    3; C #1               -0.00000       0.14669      -0.00000      -0.00000
    4; C #1                0.00000      -0.47522      -0.00000       0.00000
    5; C #1               -0.00000       0.14321      -0.00000      -0.00000
    6; C #1                0.00000      -0.06577      -0.00000       0.00000
    7; C #1               -0.00000       0.01874       0.00000      -0.00000
    8; C #1                0.00000      -0.40920      -0.00000       0.00000
    9; C #1               -0.00000       0.31040       0.00000      -0.00000
   10; C #1                0.00000      -0.10348      -0.00000       0.00000
   11; C #1                0.03505       0.00000       0.00000       0.00415
   12; C #1               -0.71238      -0.00000      -0.00000       0.00325
   13; C #1                0.53656       0.00000       0.00000      -0.00230
   14; C #1               -0.18033      -0.00000       0.00000       0.00060
   15; C #1                0.00000       0.00025      -0.00000       0.00000
   16; C #1               -0.00000      -0.00017       0.00000      -0.00000
   17; C #1                0.00000       0.00000       0.08947       0.00000
   18; C #1               -0.00000      -0.00000      -0.04278      -0.00000
   19; C #1                0.00070       0.00000      -0.00000       0.06761
   20; C #1               -0.00041      -0.00000       0.00000      -0.03222


                          MO # 17       MO # 18       MO # 19       MO # 20

    BASIS/ORB E            5.98172       6.32805       6.40137      20.42258
                        ----------    ----------    ----------    ----------
    1; C #1                0.00009      -0.00000       0.00295      10.02112
    2; C #1                0.00002      -0.00000       0.02795      31.46611
    3; C #1               -0.00028      -0.00000       0.02603      -6.50145
    4; C #1                0.00020       0.00000      -0.06258     -20.35630
    5; C #1               -0.00010      -0.00000       0.01770      -7.98834
    6; C #1                0.00003       0.00000      -0.00757      -0.29908
    7; C #1               -0.00307      -0.00000       0.40160       0.00010
    8; C #1               -0.00346       0.00000      -0.34366       0.00024
    9; C #1                0.00231      -0.00000       0.16089      -0.00028
   10; C #1               -0.00062       0.00000      -0.05050       0.00011
   11; C #1                0.00000       0.69561       0.00000       0.00000
   12; C #1               -0.00000      -0.59318      -0.00000      -0.00000
   13; C #1                0.00000       0.27874       0.00000       0.00000
   14; C #1               -0.00000      -0.08767      -0.00000      -0.00000
   15; C #1               -0.01511       0.00000      -0.00012      -0.00000
   16; C #1                0.00720      -0.00000       0.00003       0.00000
   17; C #1               -0.00000      -0.00000      -0.00000      -0.00000
   18; C #1                0.00000       0.00000       0.00000       0.00000
   19; C #1                0.00000      -0.00042      -0.00000      -0.00000
   20; C #1               -0.00000       0.00012       0.00000       0.00000


  SYMMETRY BLOCK 2 (ALPHA)

                          MO # 21       MO # 22       MO # 23       MO # 24

    BASIS/ORB E            0.01886       0.10824       0.46397       0.74414
                        ----------    ----------    ----------    ----------
   21; C #1                0.56941       0.47132       0.91377      -0.00000
   22; C #1               -0.01149       0.04158      -0.19676      -0.00000
   23; C #1                0.03600      -0.10604       0.71068      -0.00000
   24; C #1                0.09537       0.68948      -2.02866       0.00000
   25; C #1                0.52802      -1.18807       0.72921      -0.00000
   26; C #1               -0.00033      -0.00024      -0.00026      -0.00000
   27; C #1               -0.00062      -0.00091      -0.00235       0.00000
   28; C #1               -0.00187      -0.00032       0.00668      -0.00000
   29; C #1               -0.00000      -0.00000       0.00000       0.00833
   30; C #1                0.00000       0.00000      -0.00000      -0.04408
   31; C #1                0.00000      -0.00000       0.00000       0.22758


                          MO # 25       MO # 26       MO # 27       MO # 28

    BASIS/ORB E            0.77357       1.59145       2.24517       2.30666
                        ----------    ----------    ----------    ----------
   21; C #1                0.02147       1.12164       0.00000       0.00505
   22; C #1               -0.01484       0.96970       0.00000       0.03515
   23; C #1                0.03561      -2.58057      -0.00000      -0.07189
   24; C #1               -0.08088       0.89159       0.00000       0.03859
   25; C #1                0.02559      -0.35547      -0.00000      -0.01145
   26; C #1               -0.00668      -0.00179       0.00000       0.01782
   27; C #1                0.03507       0.00675      -0.00000      -0.20937
   28; C #1               -0.17661      -0.00397       0.00000       0.10114
   29; C #1               -0.00000      -0.00000       0.02287      -0.00000
   30; C #1                0.00000       0.00000      -0.27049       0.00000
   31; C #1               -0.00000      -0.00000       0.13157      -0.00000


                          MO # 29       MO # 30       MO # 31

    BASIS\ORB E            5.76712       6.41813       6.50666
                        ----------    ----------    ----------
   21; C #1                8.50738      -0.00000       0.24852
   22; C #1               -4.75708       0.00000      -0.15136
   23; C #1               -2.71359       0.00000      -0.06850
   24; C #1               -2.68262       0.00000      -0.08279
   25; C #1                0.16586      -0.00000       0.00605
   26; C #1                0.00600       0.00000      -0.19499
   27; C #1               -0.00409      -0.00000       0.12267
   28; C #1                0.00166       0.00000      -0.04539
   29; C #1                0.00000       0.25188       0.00000
   30; C #1                0.00000      -0.15873      -0.00000
   31; C #1                0.00000       0.05892       0.00000


  SYMMETRY BLOCK 3 (ALPHA)

                          MO # 32       MO # 33       MO # 34       MO # 35

    BASIS/ORB E            0.01886       0.10824       0.46397       0.74414
                        ----------    ----------    ----------    ----------
   32; C #1                0.56941       0.47132       0.91377       0.00000
   33; C #1               -0.01149       0.04158      -0.19676       0.00000
   34; C #1                0.03600      -0.10604       0.71068      -0.00000
   35; C #1                0.09537       0.68948      -2.02866      -0.00000
   36; C #1                0.52802      -1.18807       0.72921       0.00000
   37; C #1               -0.00033      -0.00024      -0.00026       0.00000
   38; C #1               -0.00062      -0.00091      -0.00235      -0.00000
   39; C #1               -0.00187      -0.00032       0.00668       0.00000
   40; C #1                0.00000       0.00000      -0.00000       0.00833
   41; C #1                0.00000      -0.00000       0.00000      -0.04408
   42; C #1               -0.00000       0.00000      -0.00000       0.22758


                          MO # 36       MO # 37       MO # 38       MO # 39

    BASIS/ORB E            0.77357       1.59145       2.24517       2.30666
                        ----------    ----------    ----------    ----------
   32; C #1                0.02147       1.12164      -0.00000       0.00505
   33; C #1               -0.01484       0.96970      -0.00000       0.03515
   34; C #1                0.03561      -2.58057       0.00000      -0.07189
   35; C #1               -0.08088       0.89159      -0.00000       0.03859
   36; C #1                0.02559      -0.35547       0.00000      -0.01145
   37; C #1               -0.00668      -0.00179      -0.00000       0.01782
   38; C #1                0.03507       0.00675       0.00000      -0.20937
   39; C #1               -0.17661      -0.00397      -0.00000       0.10114
   40; C #1                0.00000       0.00000       0.02287       0.00000
   41; C #1               -0.00000      -0.00000      -0.27049      -0.00000
   42; C #1                0.00000       0.00000       0.13157       0.00000


                          MO # 40       MO # 41       MO # 42

    BASIS\ORB E            5.76712       6.41813       6.50666
                        ----------    ----------    ----------
   32; C #1                8.50738       0.00000       0.24852
   33; C #1               -4.75708      -0.00000      -0.15136
   34; C #1               -2.71359      -0.00000      -0.06850
   35; C #1               -2.68262      -0.00000      -0.08279
   36; C #1                0.16586       0.00000       0.00605
   37; C #1                0.00600      -0.00000      -0.19499
   38; C #1               -0.00409       0.00000       0.12267
   39; C #1                0.00166      -0.00000      -0.04539
   40; C #1               -0.00000       0.25188      -0.00000
   41; C #1               -0.00000      -0.15873       0.00000
   42; C #1               -0.00000       0.05892      -0.00000


  SYMMETRY BLOCK 4 (ALPHA)

                          MO # 43       MO # 44       MO # 45       MO # 46

    BASIS/ORB E            0.23237       0.77567       2.08999       2.13863
                        ----------    ----------    ----------    ----------
   43; C #1                0.00927       0.05759      -0.00000       0.00300
   44; C #1               -0.06750      -0.13875      -0.00000      -0.00567
   45; C #1                0.19444       1.34751       0.00000       0.02317
   46; C #1               -1.09915      -0.68239      -0.00000      -0.00763
   47; C #1               -0.00008       0.00008      -0.00000      -0.02169
   48; C #1                0.00044      -0.00181       0.00000       0.12082
   49; C #1               -0.00000       0.00000       0.05670      -0.00000
   50; C #1                0.00000      -0.00000      -0.31939       0.00000


                          MO # 47       MO # 48       MO # 49       MO # 50

    BASIS/ORB E            2.19727       5.87388       5.95483       6.32805
                        ----------    ----------    ----------    ----------
   43; C #1                0.07009      -0.00000       0.00831       1.39121
   44; C #1               -1.42476       0.00000       0.00651      -1.18636
   45; C #1                1.07312      -0.00000      -0.00461       0.55748
   46; C #1               -0.36066       0.00000       0.00121      -0.17534
   47; C #1                0.00139       0.00000       0.13521      -0.00083
   48; C #1               -0.00082      -0.00000      -0.06444       0.00024
   49; C #1                0.00000       0.35787      -0.00000       0.00000
   50; C #1                0.00000      -0.17111       0.00000      -0.00000


  SYMMETRY BLOCK 5 (ALPHA)

                          MO # 51       MO # 52       MO # 53       MO # 54

    BASIS/ORB E           -0.35843       0.08990       0.44533       0.76226
                        ----------    ----------    ----------    ----------
   51; C #1                0.98137       0.19509       0.81635      -0.00000
   52; C #1               -0.01035       0.03826      -0.19518       0.00000
   53; C #1               -0.01337      -0.11090       0.63124      -0.00000
   54; C #1                0.04360       0.48088      -2.08138       0.00000
   55; C #1                0.02378      -1.26811       0.78022      -0.00000
   56; C #1               -0.00053      -0.00008      -0.00021       0.00000
   57; C #1               -0.00120      -0.00055      -0.00200      -0.00000
   58; C #1               -0.00100       0.00083       0.00682       0.00000
   59; C #1               -0.00000      -0.00000      -0.00000       0.02086
   60; C #1               -0.00000      -0.00000      -0.00000      -0.10989
   61; C #1                0.00000       0.00000       0.00000       0.55837


                          MO # 55       MO # 56       MO # 57       MO # 58

    BASIS/ORB E            0.77743       1.60861       2.28314       2.31467
                        ----------    ----------    ----------    ----------
   51; C #1                0.02507       1.11658       0.00000       0.00692
   52; C #1               -0.01791       0.94252       0.00000       0.04348
   53; C #1                0.04146      -2.61525      -0.00000      -0.09116
   54; C #1               -0.09904       0.91625       0.00000       0.04843
   55; C #1                0.03142      -0.36129      -0.00000      -0.01440
   56; C #1               -0.00548      -0.00177       0.00000       0.01456
   57; C #1                0.02873       0.00700      -0.00000      -0.17089
   58; C #1               -0.14419      -0.00408       0.00000       0.08247
   59; C #1                0.00000      -0.00000       0.05629      -0.00000
   60; C #1               -0.00000       0.00000      -0.66248       0.00000
   61; C #1                0.00000      -0.00000       0.32090      -0.00000


                          MO # 59       MO # 60       MO # 61

    BASIS\ORB E            5.81421       6.47305       6.51803
                        ----------    ----------    ----------
   51; C #1                8.48881      -0.00000       0.31994
   52; C #1               -4.76098       0.00000      -0.19462
   53; C #1               -2.69876       0.00000      -0.08860
   54; C #1               -2.67917       0.00000      -0.10636
   55; C #1                0.16595      -0.00000       0.00772
   56; C #1                0.00632       0.00000      -0.15915
   57; C #1               -0.00429      -0.00000       0.10010
   58; C #1                0.00173       0.00000      -0.03702
   59; C #1                0.00000       0.61695       0.00000
   60; C #1               -0.00000      -0.38842      -0.00000
   61; C #1                0.00000       0.14389       0.00000


  SYMMETRY BLOCK 6 (ALPHA)

                          MO # 62       MO # 63       MO # 64       MO # 65

    BASIS/ORB E            0.24164       0.79114       2.11833       2.15082
                        ----------    ----------    ----------    ----------
   62; C #1                0.00917       0.05998       0.00000       0.00434
[...]
   1 FX3       0.0000000     0.0000000     0.0000000    -0.1587324     0.0000000
   1 FX2Y      0.0000000     0.0000000    -0.4761971     0.0000000     0.0000000
   1 FX2Z      0.0000000     0.0000000     0.0000000     0.0000000     0.0000000
   1 FXY2      0.0000000     0.0000000     0.0000000     0.4761971     0.0000000
   1 FXYZ      0.0000000     0.0000000     0.0000000     0.0000000    -0.7768336
   1 FXZ2      0.0000000     0.0000000     0.0000000    -0.0000000     0.0000000
   1 FY3       0.0000000     0.0000000     0.1587324     0.0000000     0.0000000
   1 FY2Z      0.0000000     0.0000000     0.0000000     0.0000000     0.0000000
   1 FYZ2      0.0000000     0.0000000     0.0000000     0.0000000     0.0000000
   1 FZ3       0.0000000     0.0000000     0.0000000     0.0000000     0.0000000
   1 FX3       0.0000000     0.0000000     0.0000000     0.0589249     0.0000000
   1 FX2Y      0.0000000     0.0000000     0.1767748     0.0000000     0.0000000
   1 FX2Z      0.0000000     0.0000000     0.0000000     0.0000000     0.0000000
   1 FXY2      0.0000000     0.0000000     0.0000000    -0.1767748     0.0000000
   1 FXYZ      0.0000000     0.0000000     0.0000000     0.0000000     0.2877807
   1 FXZ2      0.0000000     0.0000000     0.0000000     0.0000000     0.0000000
   1 FY3       0.0000000     0.0000000    -0.0589249     0.0000000     0.0000000
   1 FY2Z      0.0000000     0.0000000     0.0000000     0.0000000     0.0000000
   1 FYZ2      0.0000000     0.0000000    -0.0000000     0.0000000     0.0000000
   1 FZ3       0.0000000     0.0000000     0.0000000     0.0000000     0.0000000
   1 GX4       0.0000000    -0.0003583     0.0000000     0.0000000     0.0000000
   1 GX3Y      0.0000000     0.0000000     0.0000000     0.0000000     0.0000000
   1 GX3Z      0.0000000     0.0000000     0.0000000     0.0000000     0.0000000
   1 GX2Y2     0.0000000    -0.0007166     0.0000000     0.0000000     0.0000000
   1 GX2YZ     0.0021727     0.0000000     0.0000000     0.0000000     0.0000000
   1 GX2Z2     0.0000000     0.0028666     0.0000000     0.0000000     0.0000000
   1 GXY3      0.0000000     0.0000000     0.0000000     0.0000000     0.0000000
   1 GXY2Z     0.0000000     0.0000000     0.0000000     0.0000000     0.0000000
   1 GXYZ2     0.0000000     0.0000000     0.0000000     0.0000000     0.0000000
   1 GXZ3      0.0000000     0.0000000     0.0000000     0.0000000     0.0000000
   1 GY4       0.0000000    -0.0003583     0.0000000     0.0000000     0.0000000
   1 GY3Z      0.0021727     0.0000000     0.0000000     0.0000000     0.0000000
   1 GY2Z2     0.0000000     0.0028666     0.0000000     0.0000000     0.0000000
   1 GYZ3     -0.0028969     0.0000000     0.0000000     0.0000000     0.0000000
   1 GZ4       0.0000000    -0.0009555     0.0000000     0.0000000     0.0000000
   1 GX4       0.0000000     0.0000894     0.0000000     0.0000000     0.0000000
   1 GX3Y      0.0000000     0.0000000     0.0000000     0.0000000     0.0000000
   1 GX3Z      0.0000000     0.0000000     0.0000000     0.0000000     0.0000000
   1 GX2Y2     0.0000000     0.0001789     0.0000000     0.0000000     0.0000000
   1 GX2YZ    -0.0005631     0.0000000     0.0000000     0.0000000     0.0000000
   1 GX2Z2     0.0000000    -0.0007155     0.0000000     0.0000000     0.0000000
   1 GXY3      0.0000000     0.0000000     0.0000000     0.0000000     0.0000000
   1 GXY2Z     0.0000000     0.0000000     0.0000000     0.0000000     0.0000000
   1 GXYZ2     0.0000000     0.0000000     0.0000000     0.0000000     0.0000000
   1 GXZ3      0.0000000     0.0000000     0.0000000     0.0000000     0.0000000
   1 GY4       0.0000000     0.0000894     0.0000000     0.0000000     0.0000000
   1 GY3Z     -0.0005631     0.0000000     0.0000000     0.0000000     0.0000000
   1 GY2Z2     0.0000000    -0.0007155     0.0000000     0.0000000     0.0000000
   1 GYZ3      0.0007509     0.0000000     0.0000000     0.0000000     0.0000000
   1 GZ4       0.0000000     0.0002385     0.0000000     0.0000000     0.0000000
--------------------------------------------------------------------------------
Eigenvalue      6.473048      6.506663      6.506663      6.518031     20.422581
 Symmetry           u             u             u            Au            Ag    
--------------------------------------------------------------------------------
   1 S         0.0000000     0.0000000     0.0000000     0.0000000    10.0211238
   1 S         0.0000000     0.0000000     0.0000000     0.0000000    31.4661074
   1 S         0.0000000     0.0000000     0.0000000     0.0000000    -6.5014529
   1 S         0.0000000     0.0000000     0.0000000     0.0000000   -20.3562971
   1 S         0.0000000     0.0000000     0.0000000     0.0000000    -7.9883382
   1 S         0.0000000     0.0000000     0.0000000     0.0000000    -0.2990806
   1 PX        0.0000000     0.2485210     0.0000000     0.0000000     0.0000000
   1 PY        0.0000000     0.0000000     0.2485210     0.0000000     0.0000000
   1 PZ       -0.0000000     0.0000000     0.0000000     0.3199417     0.0000000
   1 PX        0.0000000    -0.1513644     0.0000000     0.0000000     0.0000000
   1 PY        0.0000000     0.0000000    -0.1513644     0.0000000     0.0000000
   1 PZ        0.0000000     0.0000000     0.0000000    -0.1946220     0.0000000
   1 PX        0.0000000    -0.0684954     0.0000000     0.0000000     0.0000000
   1 PY        0.0000000     0.0000000    -0.0684954     0.0000000     0.0000000
   1 PZ        0.0000000     0.0000000     0.0000000    -0.0885959     0.0000000
   1 PX        0.0000000    -0.0827937     0.0000000     0.0000000     0.0000000
   1 PY        0.0000000     0.0000000    -0.0827937     0.0000000     0.0000000
   1 PZ        0.0000000     0.0000000     0.0000000    -0.1063633     0.0000000
   1 PX        0.0000000     0.0060459     0.0000000     0.0000000     0.0000000
   1 PY        0.0000000     0.0000000     0.0060459     0.0000000     0.0000000
   1 PZ       -0.0000000     0.0000000     0.0000000     0.0077157     0.0000000
   1 DX2       0.0000000     0.0000000     0.0000000     0.0000000    -0.0001044
   1 DXY       0.0000000     0.0000000     0.0000000     0.0000000     0.0000000
   1 DXZ       0.0000000     0.0000000     0.0000000     0.0000000     0.0000000
   1 DY2       0.0000000     0.0000000     0.0000000     0.0000000    -0.0001044
   1 DYZ       0.0000000     0.0000000     0.0000000     0.0000000     0.0000000
   1 DZZ       0.0000000     0.0000000     0.0000000     0.0000000     0.0002088
   1 DX2       0.0000000     0.0000000     0.0000000     0.0000000    -0.0002394
   1 DXY       0.0000000     0.0000000     0.0000000     0.0000000     0.0000000
   1 DXZ       0.0000000     0.0000000     0.0000000     0.0000000     0.0000000
   1 DY2       0.0000000     0.0000000     0.0000000     0.0000000    -0.0002394
   1 DYZ       0.0000000     0.0000000     0.0000000     0.0000000     0.0000000
   1 DZZ       0.0000000     0.0000000     0.0000000     0.0000000     0.0004787
   1 DX2       0.0000000     0.0000000     0.0000000     0.0000000     0.0002784
   1 DXY       0.0000000     0.0000000     0.0000000     0.0000000     0.0000000
   1 DXZ       0.0000000     0.0000000     0.0000000     0.0000000     0.0000000
   1 DY2       0.0000000     0.0000000     0.0000000     0.0000000     0.0002784
   1 DYZ       0.0000000     0.0000000     0.0000000     0.0000000     0.0000000
   1 DZZ       0.0000000     0.0000000     0.0000000     0.0000000    -0.0005568
   1 DX2       0.0000000     0.0000000     0.0000000     0.0000000    -0.0001146
   1 DXY       0.0000000     0.0000000     0.0000000     0.0000000     0.0000000
   1 DXZ       0.0000000     0.0000000     0.0000000     0.0000000     0.0000000
   1 DY2       0.0000000     0.0000000     0.0000000     0.0000000    -0.0001146
   1 DYZ       0.0000000     0.0000000     0.0000000     0.0000000     0.0000000
   1 DZZ       0.0000000     0.0000000     0.0000000     0.0000000     0.0002291
   1 FX3       0.0000000     0.1949896     0.0000000     0.0000000     0.0000000
   1 FX2Y      0.0000000     0.0000000     0.1949896     0.0000000     0.0000000
   1 FX2Z      0.6169470     0.0000000     0.0000000     0.4774611     0.0000000
   1 FXY2      0.0000000     0.1949896     0.0000000     0.0000000     0.0000000
   1 FXYZ      0.0000000     0.0000000     0.0000000     0.0000000     0.0000000
   1 FXZ2      0.0000000    -0.7799583     0.0000000     0.0000000     0.0000000
   1 FY3       0.0000000     0.0000000     0.1949896     0.0000000     0.0000000
   1 FY2Z     -0.6169470     0.0000000     0.0000000     0.4774611     0.0000000
   1 FYZ2      0.0000000     0.0000000    -0.7799583     0.0000000     0.0000000
   1 FZ3       0.0000000     0.0000000     0.0000000    -0.3183074     0.0000000
   1 FX3       0.0000000    -0.1226724     0.0000000     0.0000000     0.0000000
   1 FX2Y      0.0000000     0.0000000    -0.1226724     0.0000000     0.0000000
   1 FX2Z     -0.3884168     0.0000000     0.0000000    -0.3002994     0.0000000
   1 FXY2      0.0000000    -0.1226724     0.0000000     0.0000000     0.0000000
   1 FXYZ      0.0000000     0.0000000     0.0000000     0.0000000     0.0000000
   1 FXZ2      0.0000000     0.4906896     0.0000000     0.0000000     0.0000000
   1 FY3       0.0000000     0.0000000    -0.1226724     0.0000000     0.0000000
   1 FY2Z      0.3884168     0.0000000     0.0000000    -0.3002994     0.0000000
   1 FYZ2      0.0000000     0.0000000     0.4906896     0.0000000     0.0000000
   1 FZ3      -0.0000000     0.0000000     0.0000000     0.2001996     0.0000000
   1 FX3       0.0000000     0.0453850     0.0000000     0.0000000     0.0000000
   1 FX2Y      0.0000000     0.0000000     0.0453850     0.0000000     0.0000000
   1 FX2Z      0.1438903     0.0000000     0.0000000     0.1110514     0.0000000
   1 FXY2      0.0000000     0.0453850     0.0000000     0.0000000     0.0000000
   1 FXYZ      0.0000000     0.0000000     0.0000000     0.0000000     0.0000000
   1 FXZ2      0.0000000    -0.1815401     0.0000000     0.0000000     0.0000000
   1 FY3       0.0000000     0.0000000     0.0453850     0.0000000     0.0000000
   1 FY2Z     -0.1438903     0.0000000     0.0000000     0.1110514     0.0000000
   1 FYZ2      0.0000000     0.0000000    -0.1815401     0.0000000     0.0000000
   1 FZ3       0.0000000     0.0000000     0.0000000    -0.0740343     0.0000000
   1 GX4       0.0000000     0.0000000     0.0000000     0.0000000    -0.0000001
   1 GX3Y      0.0000000     0.0000000     0.0000000     0.0000000     0.0000000
   1 GX3Z      0.0000000     0.0000000     0.0000000     0.0000000     0.0000000
   1 GX2Y2     0.0000000     0.0000000     0.0000000     0.0000000    -0.0000002
   1 GX2YZ     0.0000000     0.0000000     0.0000000     0.0000000     0.0000000
   1 GX2Z2     0.0000000     0.0000000     0.0000000     0.0000000     0.0000006
   1 GXY3      0.0000000     0.0000000     0.0000000     0.0000000     0.0000000
   1 GXY2Z     0.0000000     0.0000000     0.0000000     0.0000000     0.0000000
   1 GXYZ2     0.0000000     0.0000000     0.0000000     0.0000000     0.0000000
   1 GXZ3      0.0000000     0.0000000     0.0000000     0.0000000     0.0000000
   1 GY4       0.0000000     0.0000000     0.0000000     0.0000000    -0.0000001
   1 GY3Z      0.0000000     0.0000000     0.0000000     0.0000000     0.0000000
   1 GY2Z2     0.0000000     0.0000000     0.0000000     0.0000000     0.0000006
   1 GYZ3      0.0000000     0.0000000     0.0000000     0.0000000     0.0000000
   1 GZ4       0.0000000     0.0000000     0.0000000     0.0000000    -0.0000002
   1 GX4       0.0000000     0.0000000     0.0000000     0.0000000     0.0000002
   1 GX3Y      0.0000000     0.0000000     0.0000000     0.0000000     0.0000000
   1 GX3Z      0.0000000     0.0000000     0.0000000     0.0000000     0.0000000
   1 GX2Y2     0.0000000     0.0000000     0.0000000     0.0000000     0.0000005
   1 GX2YZ     0.0000000     0.0000000     0.0000000     0.0000000     0.0000000
   1 GX2Z2     0.0000000     0.0000000     0.0000000     0.0000000    -0.0000018
   1 GXY3      0.0000000     0.0000000     0.0000000     0.0000000     0.0000000
   1 GXY2Z     0.0000000     0.0000000     0.0000000     0.0000000     0.0000000
   1 GXYZ2     0.0000000     0.0000000     0.0000000     0.0000000     0.0000000
   1 GXZ3      0.0000000     0.0000000     0.0000000     0.0000000     0.0000000
   1 GY4       0.0000000     0.0000000     0.0000000     0.0000000     0.0000002
   1 GY3Z      0.0000000     0.0000000     0.0000000     0.0000000     0.0000000
   1 GY2Z2     0.0000000     0.0000000     0.0000000     0.0000000    -0.0000018
   1 GYZ3      0.0000000     0.0000000     0.0000000     0.0000000     0.0000000
   1 GZ4       0.0000000     0.0000000     0.0000000     0.0000000     0.0000006
--------------------------------------------------------------------------------


 
  ORBITAL EIGENVALUES (ALPHA)  (1H = 27.2113834 eV)

       MO #        E(hartree)               E(eV)           FULLSYM    COMPSYM
       ----   --------------------   --------------------   -------   ---------
    1     1         -11.3649889689        -309.2570721706      Ag        Ag (1)
    2     2          -0.7256296399         -19.7453863388      Ag        Ag (1)
    3    51          -0.3584301596          -9.7533804963      Au       B1u (5)
  +++++++++++++++++++++++++++++++++++++++++++++++++++++++++++++++++++++++++++++
    4    32           0.0188580513           0.5131536630       u       B3u (3)
    5    21           0.0188580513           0.5131536630       u       B2u (2)
    6     3           0.0834191725           2.2699510851      Ag        Ag (1)
    7    52           0.0899004193           2.4463147769      Au       B1u (5)
    8    33           0.1082445563           2.9454841230       u       B3u (3)
    9    22           0.1082445563           2.9454841230       u       B2u (2)
   10     4           0.2323741141           6.3232211114       g        Ag (1)
   11    43           0.2323741141           6.3232211114       g       B1g (4)
   12    70           0.2416403857           6.5753691804       g       B2g (7)
   13    62           0.2416403857           6.5753691804       g       B3g (6)
   14     5           0.2454177227           6.6781557448      Ag        Ag (1)
   15    53           0.4453313238          12.1180813922      Au       B1u (5)
   16    34           0.4639683586          12.6252208910       u       B3u (3)
   17    23           0.4639683586          12.6252208910       u       B2u (2)
   18     6           0.5032073105          13.6929670564      Ag        Ag (1)
   19    35           0.7441446542          20.2492054896       u       B3u (3)
   20    24           0.7441446542          20.2492054896       u       B2u (2)
   21    78           0.7622645338          20.7422724816       u        Au (8)
   22    54           0.7622645338          20.7422724816       u       B1u (5)
   23    36           0.7735683856          21.0498659277       u       B3u (3)
   24    25           0.7735683856          21.0498659277       u       B2u (2)
   25     7           0.7756697232          21.1070462306       g        Ag (1)
   26    44           0.7756697232          21.1070462306       g       B1g (4)
   27    55           0.7774261905          21.1548421337      Au       B1u (5)
   28    71           0.7911449090          21.5281474450       g       B2g (7)
   29    63           0.7911449090          21.5281474450       g       B3g (6)
   30     8           0.7984350105          21.7265211905      Ag        Ag (1)
   31    26           1.5914517819          43.3056045997       u       B2u (2)
   32    37           1.5914517819          43.3056045997       u       B3u (3)
   33    56           1.6086060584          43.7723961936      Au       B1u (5)
   34    45           2.0899895882          56.8715079867       g       B1g (4)
   35     9           2.0899895882          56.8715079867       g        Ag (1)
   36    10           2.1075620439          57.3496788146      Ag        Ag (1)
   37    72           2.1183345979          57.6428149127       g       B2g (7)
   38    64           2.1183345979          57.6428149127       g       B3g (6)
   39    46           2.1386278374          58.1950220327       g       B1g (4)
   40    11           2.1386278374          58.1950220327       g        Ag (1)
   41    65           2.1508219059          58.5268395052       g       B3g (6)
   42    73           2.1508219059          58.5268395052       g       B2g (7)
   43    12           2.1548904154          58.6375492785      Ag        Ag (1)
   44    13           2.1972698700          59.7907528661       g        Ag (1)
   45    47           2.1972698700          59.7907528661       g       B1g (4)
   46    66           2.2315262340          60.7229159193       g       B3g (6)
   47    74           2.2315262340          60.7229159193       g       B2g (7)
   48    14           2.2447745546          61.0834210513      Ag        Ag (1)
   49    38           2.2451704178          61.0941930380       u       B3u (3)
   50    27           2.2451704178          61.0941930380       u       B2u (2)
   51    57           2.2831436970          62.1274984951       u       B1u (5)
   52    79           2.2831436970          62.1274984951       u        Au (8)
   53    39           2.3066642958          62.7675265294       u       B2u (3)
   54    28           2.3066642958          62.7675265294       u       B3u (2)
   55    58           2.3146655549          62.9852518581      Au       B1u (5)
   56    29           5.7671158257         156.9311998460       u       B2u (2)
   57    40           5.7671158257         156.9311998460       u       B3u (3)
   58    59           5.8142099377         158.2126957831      Au       B1u (5)
   59    48           5.8738838075         159.8365043333       g       B1g (4)
   60    15           5.8738838075         159.8365043333       g        Ag (1)
   61    75           5.9211578159         161.1228955003       g       B2g (7)
   62    67           5.9211578159         161.1228955003       g       B3g (6)
   63    49           5.9548321942         162.0392219177       g       B1g (4)
   64    16           5.9548321942         162.0392219177       g        Ag (1)
   65    76           5.9750013362         162.5880521745       g       B2g (7)
   66    68           5.9750013362         162.5880521745       g       B3g (6)
   67    17           5.9817185402         162.7708365884      Ag        Ag (1)
   68    18           6.3280463215         172.1948946279       g        Ag (1)
   69    50           6.3280463215         172.1948946279       g       B1g (4)
   70    69           6.3828147908         173.6852204433       g       B3g (6)
   71    77           6.3828147908         173.6852204433       g       B2g (7)
   72    19           6.4013702941         174.1901413572      Ag        Ag (1)
   73    41           6.4181312000         174.6462287946       u       B3u (3)
   74    30           6.4181312000         174.6462287946       u       B2u (2)
   75    80           6.4730477788         176.1405848752       u        Au (8)
   76    60           6.4730477788         176.1405848752       u       B1u (5)
   77    31           6.5066631415         177.0553053979       u       B2u (2)
   78    42           6.5066631415         177.0553053979       u       B3u (3)
   79    61           6.5180313597         177.3646503432      Au       B1u (5)
   80    20          20.4225807619         555.7266751286      Ag        Ag (1)


  VSCF finished.

 @CHECKOUT-I, Total execution time (CPU/WALL):        0.24/       0.25 seconds.
--executable xvscf finished with status     0 in        0.28 seconds (walltime).
  The final electronic energy is       -37.604542648423688 a.u. 
  This computation required                            1.18 seconds (walltime).
