Intel(R) Parallel Studio XE 2019 Update 4 for Linux*
Copyright (C) 2009-2019 Intel Corporation. All rights reserved.
 --invoking executable--
/ihome/kjordan/shu8/software/source/cfour/cfour-public/bin/xjoda


   *************************************************************************
         <<<     CCCCCC     CCCCCC   |||     CCCCCC     CCCCCC   >>>
       <<<      CCC        CCC       |||    CCC        CCC         >>>
      <<<      CCC        CCC        |||   CCC        CCC            >>>
    <<<        CCC        CCC        |||   CCC        CCC              >>>
      <<<      CCC        CCC        |||   CCC        CCC            >>>
       <<<      CCC        CCC       |||    CCC        CCC         >>>
         <<<     CCCCCC     CCCCCC   |||     CCCCCC     CCCCCC   >>>
   *************************************************************************

     ****************************************************************
     * CFOUR Coupled-Cluster techniques for Computational Chemistry *
     ****************************************************************
 

   Department of Chemistry                Institut fuer Physikalische Chemie
   University of Florida                  Universitaet Mainz
   Gainesville, FL 32611, USA             D-55099 Mainz, Germany

   Department of Chemistry                Fakultaet fuer Chemie und Biowiss.
   Johns Hopkins University               Karlsruher Institut fuer Technologie
   Baltimore, MD 21218, USA               D-76131 Karlsruhe, Germany

   Department of Chemistry                Department of Physical Chemistry
   Southern Methodist University          Eotvos Lorand University
   Dallas, TX 75275, USA                  H-1053 Budapest, Hungary

 
                       Version 2.1
 
                     smp-n214.crc.pitt.edu                             
                     Sun Jan 26 21:33:51 EST 2025                      
                     integer*8 version is running
 
********************************************************************************
*                          Input from ZMAT file                                *
********************************************************************************
RHF/STO-3G DVB                                                                  
C                    -1.41012   0.26944   0.                                    
C                    -0.92066  -1.06479   0.                                    
C                     0.45706  -1.32539   0.                                    
C                     1.41012  -0.26944   0.                                    
C                     0.92066   1.06479   0.                                    
H                    -1.62752  -1.90447   0.                                    
H                     0.81304  -2.36476   0.                                    
H                     1.62752   1.90447   0.                                    
C                     2.86996  -0.60369   0.                                    
C                     3.89207   0.26944   0.                                    
H                     3.74231   1.35518   0.                                    
H                     3.09015  -1.68186   0.                                    
H                     4.93303  -0.07425   0.                                    
C                    -2.86996   0.60369   0.                                    
H                    -3.09015   1.68186   0.                                    
C                    -3.89207  -0.26944   0.                                    
H                    -3.74231  -1.35518   0.                                    
H                    -4.93303   0.07425   0.                                    
C                    -0.45706   1.32539   0.                                    
H                    -0.81304   2.36476   0.                                    
                                                                                
*ACES2(CALC=RHF                                                                 
COORDINATES=CARTESIAN                                                           
BASIS=STO-3G                                                                    
REF=RHF                                                                         
PRINT=1                                                                         
CHARGE=0                                                                        
MULTIPLICITY=1)                                                                 
********************************************************************************
  @GTFLGS-W, Option RHF for keyword CALCLEVEL   not known.  Default used.
    -------------------------------------------------------------------
                    CFOUR Control Parameters 
    -------------------------------------------------------------------
        External           Internal           Value            Units
          Name               Name
    -------------------------------------------------------------------
       ABCDTYPE             IABCDT         STANDARD    [  0]    ***   
       ANHARMONIC           IANHAR         OFF         [  0]    ***   
       ANH_ALGORIT          IANALG         STANDARD    [  0]    ***   
       ANH_DERIVAT          IANDER         SECOND      [  1]    ***   
       ANH_MODE             ANHMOD         VIBRATION   [  0]    ***   
       ANH_STEPSIZ          ICUBST             50000          x 10-6  
       ANH_SYMMETR          IANHSM         ABELIAN     [  0]    ***   
       AO_LADDERS           IAOLAD         SINGLEPASS  [  1]    ***   
       AV_SCF               IAVSCF         OFF         [  0]    ***   
       BASIS                IBASIS         STO-3G      [  2]    ***   
       BOTHVECTORS          BOTHVC         OFF         [  0]    ***   
       BOX_POTENT           IPIAB          OFF         [  0]    ***   
       BREIT                IBREIT         OFF         [  0]    ***   
       BRUCK_CONV           IBRTOL          10D-  4             ***   
       BRUECKNER            IBRKNR         OFF         [  0]    ***   
       BUFFERSIZE           IBUFFS              4096            ***   
       CACHE_RECS           ICHREC             10               ***   
       CALCLEVEL            ICLLVL         SCF         [  0]    ***   
       CCORBOPT             ICCORB         OFF         [  0]  x 0.01  
       CC_CONV              ICCCNV          10D-  7             ***   
       CC_EXPORDER          ICCEOR              0               ***   
       CC_EXTRAPOL          ICCEXT         DIIS        [  1]    ***   
       CC_GUESS             ICCGES         MP2         [  0]    ***   
       CC_MAXCYC            ICCCYC              0              cycles 
       CC_PROGRAM           ICCPRO         VCC         [  0]    ***   
       CHARGE               ICHRGE              0               ***   
       CHOLESKY             ICHOLE         OFF         [  0]    ***   
       CIS_CONV             ICISTL              5               ***   
       COMM_SIZE            IPSIZE            ***               ***   
       CONSTANT             ICONST         OLD         [  1]    ***   
       CONTINUUM            ICONTU         NONE        [  0]    ***   
       CONTRACTION          ICNTYP         GENERAL     [  1]    ***   
       COORDINATES          ICOORD         CARTESIAN   [  1]    ***   
       CPHF_CONVER          ICPHFT          10D- 16             ***   
       CPHF_MAXCYC          ICPHFC             64              cycles 
       CUBIC                ICUBIC         OFF         [  0]    ***   
       CURVILINEAR          ICURVY         OFF         [  0]    ***   
       DBOC                 IDBOC          OFF         [  0]    ***   
       DCT                  IDCT           OFF         [  0]    ***   
       DERIV_LEV            IDRLVL         ZERO        [  0]    ***   
       DEVMEM_SIZE          IDVMEM          50000000           MByte  
       DIAG_MRCC            IEOMST          10D-  0             ***   
       DIFF_TYPE            IDIFTY         RELAXED     [  0]    ***   
       DIRECT               IDIRCT         OFF         [  0]    ***   
       DROPMO               IDRPMO      NONE         
       ECP                  IECP           OFF         [  0]    ***   
       EIGENVECTOR          IVEC                1               ***   
       EL_ANHARM            IELANH         OFF         [  0]    ***   
       EOMFOLLOW            IEOMSR         ENERGY      [  0]    ***   
       EOMIP                IEOMIP         OFF         [  0]    ***   
       EOMLEVEL             HBARFM         SAME        [  0]    ***   
       EOM_MRCC             IMRCCE         NEW         [  1]    ***   
       EOM_NONIT            EOMNON         OFF         [  0]    ***   
       EOM_NSING            IEOMSI          10D-  0             ***   
       EOM_NSTATES          IMRCCD         DAVIDSON    [  0]    ***   
       EOM_NTRIP            IEOMTR          10D-  0             ***   
       EOM_ORDER            IEXORD         ENERGY      [  0]    ***   
       EOM_PROPSTA          IEOMST              0               ***   
       ESTATE_CONV          IEXTOL          10D-  5             ***   
       ESTATE_DIAG          IEXDIG         ITERATIVE   [  0]    ***   
       ESTATE_LOCK          IESLOC         ON          [  1]    ***   
       ESTATE_MAXC          IEXMXC             40               ***   
       ESTATE_PROP          IEXPRP         OFF         [  0]    ***   
       EVAL_HESS            IRECAL              0            # of cyc.
       EXCITATION           IEXCIT              0               ***   
       EXCITE               IEXCIT         NONE        [  0]    ***   
       EXTERN_POT           IEXPOT         OFF         [  0]    ***   
       FCGRADNEW            IFCGNW         OFF         [  0]    ***   
       FC_FIELD             IFINFC              0             x 10-6  
       FD_CALTYPE           IFDCAL         GRADONLY    [  0]    ***   
       FD_PROJECT           IFDPRJ         OFF         [  1]    ***   
       FD_STEPSIZE          IDISFD              0            10-4 bohr
       FD_USEGROUP          IFDGRP         FULL        [  0]    ***   
       FILE_RECSIZ          IFLREC              4096           words  
       FINITE_PERT          IFIPER              0             x 10-6  
       FIXGEOM              IFIXGM         OFF         [  0]    ***   
       FOCK                 IFOCK          AO          [  1]    ***   
       FREQ_ALGORI          IVIALG         STANDARD    [  0]    ***   
       FROZEN_CORE          IFROCO         OFF         [  0]    ***   
       GAMMA_ABCD           IGABCD         STORE       [  0]    ***   
       GAMMA_ABCI           IGABCI         STORE       [  0]    ***   
       GENBAS_1             IGNBS1              0               ***   
       GENBAS_2             IGNBS2              0               ***   
       GENBAS_3             IGNBS3              0               ***   
       GENBAS_4             IGNBS4              0               ***   
       GEO_CONV             ICONTL              5              H/bohr 
       GEO_MAXCYC           IOPTCY             50               ***   
       GEO_MAXSTEP          IMXSTP            300            millibohr
       GEO_METHOD           INR            SINGLE_POINT[  5]    ***   
       GIAO                 IGIAO          OFF         [  1]    ***   
       GIMIC                IGIMIC         OFF         [  0]    ***   
       GRID                 IGRID          OFF         [  0]    ***   
       GRID_ALGO            IGALGO         SERIAL      [  0]    ***   
       GUESS                IGUESS         MOREAD      [  0]    ***   
       HBAR                 IHBAR          OFF         [  0]    ***   
       HESS_TYPE            IHESTP         SCF         [  0]    ***   
       HF2_FILE             IHF2Fl         USE         [  1]    ***   
       HFSTABILITY          ISTABL         OFF         [  0]    ***   
       INCORE               INCORE         OFF         [  0]    ***   
       INPUT_MRCC           IMRCC          ON          [  1]    ***   
       INTEGRALS            INTTYP         VMOL        [  1]    ***   
       JODA_PRINT           IJPRNT              0               ***   
       KEYWORD_OUT          IDMPKW         NO          [  0]    ***   
       LINDEP_TOL           ILINDP              8               ***   
       LINEQ_CONV           IZTACN          10D-  7           cycles  
       LINEQ_EXPOR          ILMAXD              5               ***   
       LINEQ_MAXCY          ILMAXC            100               ***   
       LINEQ_TYPE           ILTYPE         DIIS        [  1]    ***   
       LOCK_ORBOCC          ILOCOC         OFF         [  0]    ***   
       MEMORY_SIZE          IMEMSZ         100000000           words  
       MEM_UNIT             IMEMU          INTEGERWORDS[  0]    ***   
       MRCC                 IMRCCC         OFF         [  0]    ***   
       MULTIPLICTY          IMULTP              1               ***   
       NACOUPLING           IVCOUP         OFF         [  0]    ***   
       NEGEVAL              IDIE           ABORT       [  0]    ***   
       NEWNORM              INEWNO         OFF         [  0]    ***   
       NON-HF               INONHF         OFF         [  0]    ***   
       NTOP_TAMP            ITOPT2             15               ***   
       NUC_MODEL            INUCMO         POINT       [  0]    ***   
       OCCUPATION           IOCCU   ESTIMATED BY SCF 
       OPEN-SHELL           IOPEN          SPIN-ORBITAL[  0]    ***   
       OPTVIB               IOPTVB         OFF         [  0]    ***   
       ORBITALS             IORBTP         STANDARD    [  0]    ***   
       PARALLEL             IPARAL         ON          [  1]    ***   
       PARA_INT             IPINTS         ON          [  1]    ***   
       PARA_PRINT           IPPRIN              0               ***   
       PERT_ORB             IPTORB         STANDARD    [  0]    ***   
       POINTS               IGRDFD              0               ***   
       PRINT                IPRNT               1               ***   
       PROPS                IPROPS         OFF         [  0]    ***   
       PROP_INTEGR          IINTYP         INTERNAL    [  0]    ***   
       PSI                  IPSI           OFF         [  0]    ***   
       QC_ALG               IQCALG         FLM         [  0]    ***   
       QC_LINALG            IQCLIN         TRIDIAG     [  2]    ***   
       QC_MAXCYC            IQCMAX          10D-100           cycles  
       QC_MAXSCFCY          IQCMSC          10D- 15           cycles  
       QC_RTRUST            IQCRTR          10D-  0           x 10-3  
       QC_SKIPSCF           IQCSKI         OFF         [  0]    ***   
       QC_START             IQCSTA          10D-  1             ***   
       QRHFGUESS            IQGUES         OFF         [  0]    ***   
       QUARTIC              IQUART         OFF         [  0]    ***   
       RAMAN_INT            IRAMIN         OFF         [  0]    ***   
       RAMAN_ORB            IRAMRE         UNRELAXED   [  0]    ***   
       RDO                  IRDOFM         OFF         [  0]    ***   
       REDUCE_REPR          REDREP         Ir          [  0]    ***   
       REFERENCE            IREFNC         RHF         [  0]    ***   
       RELATIVIST           IRELAT         OFF         [  0]    ***   
       RELAX_DENS           IRDENS         OFF         [  0]    ***   
       RESET_FLAGS          IRESET         OFF         [  0]    ***   
       RESTART_CC           ICCRES         OFF         [  0]    ***   
       ROT_EVEC             ROTVEC              0               ***   
       SAVE_INTS            ISVINT         OFF         [  0]    ***   
       SCALE_ON             ISTCRT              0               ***   
       SCF_CONV             ISCFCV          10D-  7             ***   
       SCF_DAMPING          IDAMP               0             x 10-3  
       SCF_EXPORDE          IRPPOR              6               ***   
       SCF_EXPSTAR          IRPPLS              8               ***   
       SCF_EXTRAPO          IRPP           ON          [  1]    ***   
       SCF_MAXCYC           ISCFCY            150              cycles 
       SCF_NOSTOP           ISCFST         OFF         [  0]    ***   
       SCF_PRINT            ISCFPR              0               ***   
       SCF_PROG             ISCFPR         SCF         [  0]    ***   
       SD_FIELD             IFINSD              0             x 10-6  
       SOPERT               IPERSO         OFF         [  0]    ***   
       SPHERICAL            IDFGHI         ON          [  1]    ***   
       SPINORBIT            ISOCAL         OFF         [  0]    ***   
       SPINROTATIO          ISRCON         OFF         [  0]    ***   
       SPIN_FLIP            ISPFLP         OFF         [  0]    ***   
       SPIN_ORBIT           ISPORB         OFF         [  0]    ***   
       SPIN_SCAL            ISCSMP         OFF         [  0]    ***   
       STEEPSCALE           ISTPSC              1000          x 10-3  
       SUBGROUP             ISUBGP         DEFAULT     [  0]    ***   
       SUBGRPAXIS           ISBXYZ         X           [  0]    ***   
       SYMMETRY             ISYM           ON          [  0]    ***   
       SYM_CHECK            ISYMCK         OVERRIDE    [  1]    ***   
       T3_EXTRAPOL          IT3EXT         OFF         [  0]    ***   
       T4_EXTRAPOL          IT4EXP         OFF         [  0]    ***   
       TAMP_SUM             IEVERY              0               ***   
       TESTSUITE            ITESTS         OFF         [  0]    ***   
       THERMOCH             ITHERM         OFF         [  0]    ***   
       TOL_CHOLESK          ITOLCH          10D-  4             ***   
       TRANGRAD             IRESRM         OFF         [  0]    ***   
       TRANS_INV            ITRAIN         USE         [  0]    ***   
       TREAT_PERT           ITREAT         SIMULTANEOUS[  0]    ***   
       TRIP_ALGORI          ITRALG         NORMAL      [  0]    ***   
       UIJ_THRESHO          IUIJTH              1               ***   
       UNITS                IUNITS         ANGSTROM    [  0]    ***   
       UNOS                 IUNOS          OFF         [  0]    ***   
       UPDATE_HESS          IHUPDT         ON          [  1]    ***   
       VIBPHASE             ISETPH         STANDARD    [  0]    ***   
       VIBRATION            IVIB           NO          [  0]    ***   
       VIB_ALGORIT          IGEALG         STANDARD    [  0]    ***   
       VNATORB              IVNORB         OFF         [  0]    ***   
       VTRAN                IVTRAN         FULL/PARTIAL[  0]    ***   
       XFIELD               IXEFLD              0             x 10-6  
       XFORM_TOL            IXFTOL          10D- 11             ***   
       YFIELD               IYEFLD              0             x 10-6  
       ZFIELD               IZEFLD              0             x 10-6  
       ZSCALE_EXP           IZEXPS         OFF         [  0]    ***   
    -------------------------------------------------------------------
  @GETXYZ-I,    20 atoms read from ZMAT.
   Rotational constants (in cm-1): 
          0.0199000945             0.0228460225             0.1543276032
   Rotational constants (in MHz): 
        596.5899090364           684.9066211999          4626.6257974335
********************************************************************************
   The full molecular point group is C2h .
   The largest Abelian subgroup of the full molecular point group is C2h .
   The computational point group is C2h .
********************************************************************************


 ----------------------------------------------------------------
         Coordinates used in calculation (QCOMP) 
 ----------------------------------------------------------------
 Z-matrix   Atomic            Coordinates (in bohr)
  Symbol    Number           X              Y              Z
 ----------------------------------------------------------------
     C         6        -2.67624993     0.44472880     0.00000000
     C         6        -1.69074275    -2.05355138     0.00000000
     C         6         0.92389483    -2.48305706     0.00000000
     C         6         2.67624993    -0.44472880     0.00000000
     C         6         1.69074275     2.05355138     0.00000000
     H         1        -2.98784290    -3.67208258     0.00000000
     H         1         1.64379134    -4.43038037     0.00000000
     H         1         2.98784290     3.67208258     0.00000000
     C         6         5.44938457    -1.00962827     0.00000000
     C         6         7.34052253     0.68646891     0.00000000
     H         1         7.00809786     2.73079541     0.00000000
     H         1         5.91451880    -3.03644263     0.00000000
     H         1         9.32274933     0.08463783     0.00000000
     C         6        -5.44938457     1.00962827     0.00000000
     H         1        -5.91451880     3.03644263     0.00000000
     C         6        -7.34052253    -0.68646891     0.00000000
     H         1        -7.00809786    -2.73079541     0.00000000
     H         1        -9.32274933    -0.08463783     0.00000000
     C         6        -0.92389483     2.48305706     0.00000000
     H         1        -1.64379134     4.43038037     0.00000000
 ----------------------------------------------------------------
 
  Original Center of Mass Coordinates (QCOM) 
        -2.66474116132387         0.50916791372869         0.00000000000000
        -1.73979561851788        -2.01216190194171         0.00000000000000
         0.86371840353636        -2.50462463322770         0.00000000000000
         2.66474116132387        -0.50916791372869         0.00000000000000
         1.73979561851788         2.01216190194171         0.00000000000000
        -3.07556770691702        -3.59892746681593         0.00000000000000
         1.53642325036363        -4.46874968701405         0.00000000000000
         3.07556770691702         3.59892746681593         0.00000000000000
         5.42343952525535        -1.14080900326186         0.00000000000000
         7.35494789929496         0.50916791372869         0.00000000000000
         7.07194245555977         2.56091958627839         0.00000000000000
         5.83953840784116        -3.17825544605010         0.00000000000000
         9.32207761824916        -0.14031219415957         0.00000000000000
        -5.42343952525535         1.14080900326186         0.00000000000000
        -5.83953840784116         3.17825544605010         0.00000000000000
        -7.35494789929496        -0.50916791372869         0.00000000000000
        -7.07194245555977        -2.56091958627839         0.00000000000000
        -9.32207761824916         0.14031219415957         0.00000000000000
        -0.86371840353636         2.50462463322770         0.00000000000000
        -1.53642325036363         4.46874968701405         0.00000000000000
 
  Transformation matrix between QCOM and QCOMP (OMAT) 
  (QCOM = OMAT * QCOMP, where Q is stored 3 x NATOMS)
         0.99970891344795        -0.02412650767758        -0.00000000000000
         0.02412650767758         0.99970891344795         0.00000000000000
         0.00000000000000         0.00000000000000         1.00000000000000
  test:  OMAT * QCOMP = 
        -2.66474116132387         0.50916791372869         0.00000000000000
        -1.73979561851788        -2.01216190194171         0.00000000000000
         0.86371840353636        -2.50462463322770        -0.00000000000000
         2.66474116132387        -0.50916791372869        -0.00000000000000
         1.73979561851788         2.01216190194171        -0.00000000000000
        -3.07556770691702        -3.59892746681593         0.00000000000000
         1.53642325036363        -4.46874968701404        -0.00000000000000
         3.07556770691702         3.59892746681593        -0.00000000000000
         5.42343952525534        -1.14080900326186        -0.00000000000000
         7.35494789929496         0.50916791372869        -0.00000000000000
         7.07194245555977         2.56091958627839        -0.00000000000000
         5.83953840784116        -3.17825544605010        -0.00000000000000
         9.32207761824916        -0.14031219415957        -0.00000000000000
        -5.42343952525534         1.14080900326186         0.00000000000000
        -5.83953840784116         3.17825544605010         0.00000000000000
        -7.35494789929496        -0.50916791372869         0.00000000000000
        -7.07194245555977        -2.56091958627839         0.00000000000000
        -9.32207761824916         0.14031219415957         0.00000000000000
        -0.86371840353636         2.50462463322770         0.00000000000000
        -1.53642325036363         4.46874968701404         0.00000000000000
 
   Interatomic distance matrix (Angstroms) 
 
                 C             C             C             C             C    
                [ 1]        [ 2]        [ 3]        [ 4]        [ 5]
  C    [ 1]     0.00000
  C    [ 2]     1.42118     0.00000
  C    [ 3]     2.45557     1.40215     0.00000
  C    [ 4]     2.87126     2.46275     1.42245     0.00000
  C    [ 5]     2.46275     2.81524     2.43473     1.42118     0.00000
  H    [ 6]     2.18475     1.09759     2.16352     3.44972     3.91277
  H    [ 7]     3.44695     2.16694     1.09864     2.17873     3.43124
  H    [ 8]     3.44972     3.91277     3.43540     2.18475     1.09759
  C    [ 9]     4.36823     3.81856     2.51852     1.49762     2.56585
  C    [10]     5.30219     4.99425     3.78719     2.53978     3.07601
  H    [11]     5.26558     5.25353     4.24009     2.84227     2.83655
  H    [12]     4.90510     4.05800     2.65711     2.19487     3.50011
  H    [13]     6.35246     5.93691     4.64754     3.52831     4.17092
  C    [14]     1.49762     2.56585     3.84583     4.36823     3.81856
  H    [15]     2.19487     3.50011     4.65040     4.90510     4.05800
  C    [16]     2.53978     3.07601     4.47549     5.30219     4.99425
  H    [17]     2.84227     2.83655     4.19948     5.26558     5.25353
  H    [18]     3.52831     4.17092     5.56885     6.35246     5.93691
  C    [19]     1.42245     2.43473     2.80397     2.45557     1.40215
  H    [20]     2.17873     3.43124     3.90261     3.44695     2.16694
 
                 H             H             H             C             C    
                [ 6]        [ 7]        [ 8]        [ 9]        [10]
  H    [ 6]     0.00000
  H    [ 7]     2.48359     0.00000
  H    [ 8]     5.01032     4.34623     0.00000
  C    [ 9]     4.68181     2.70782     2.79902     0.00000
  C    [10]     5.93227     4.05209     2.79312     1.34427     0.00000
  H    [11]     6.28175     4.73483     2.18496     2.14433     1.09602
  H    [12]     4.72292     2.37731     3.87312     1.10042     2.10966
  H    [13]     6.81106     4.71389     3.85250     2.12992     1.09623
  C    [14]     2.79902     4.73035     4.68181     5.86553     6.77029
  H    [15]     3.87312     5.62228     4.72292     6.38331     7.12365
  C    [16]     2.79312     5.15058     5.93227     6.77029     7.80277
  H    [17]     2.18496     4.66588     6.28175     6.65484     7.80533
  H    [18]     3.85250     6.24228     6.81106     7.83239     8.82726
  C    [19]     3.43540     3.90261     2.16352     3.84583     4.47549
  H    [20]     4.34623     5.00125     2.48359     4.73035     5.15058
 
                 H             H             H             C             H    
                [11]        [12]        [13]        [14]        [15]
  H    [11]     0.00000
  H    [12]     3.10627     0.00000
  H    [13]     1.86040     2.44553     0.00000
  C    [14]     6.65484     6.38331     7.83239     0.00000
  H    [15]     6.84027     7.03639     8.21312     1.10042     0.00000
  C    [16]     7.80533     7.12365     8.82726     1.34427     2.10966
  H    [17]     7.96025     6.84027     8.76940     2.14433     3.10627
  H    [18]     8.76940     8.21312     9.86718     2.12992     2.44553
  C    [19]     4.19948     4.65040     5.56885     2.51852     2.65711
  H    [20]     4.66588     5.62228     6.24228     2.70782     2.37731
 
                 C             H             H             C             H    
                [16]        [17]        [18]        [19]        [20]
  C    [16]     0.00000
  H    [17]     1.09602     0.00000
  H    [18]     1.09623     1.86040     0.00000
  C    [19]     3.78719     4.24009     4.64754     0.00000
  H    [20]     4.05209     4.73483     4.71389     1.09864     0.00000
 rotcon2
   Rotational constants (in cm-1): 
          0.1543276032             0.0228460225             0.0199000945
   Rotational constants (in MHz): 
       4626.6257974335           684.9066211999           596.5899090364
  GENBAS file not present.   Using default GENBAS. 
 --invoking executable--
/ihome/kjordan/shu8/software/source/cfour/cfour-public/bin/set_genbas
--executable set_genbas finished with status     0 in        0.02 seconds (walltime).
  ECPDATA file not present.   Using default ECPDATA. 
  @GTFLGS-W, Option RHF for keyword CALCLEVEL   not known.  Default used.
  There are   60 basis functions.
 @GEOPT-W, Archive file not created for single-point calculation.
 @CHECKOUT-I, Total execution time (CPU/WALL):        0.07/       0.11 seconds.
--executable xjoda finished with status     0 in        0.16 seconds (walltime).
 --invoking executable--
/ihome/kjordan/shu8/software/source/cfour/cfour-public/bin/xvmol
 SERIAL VERSION OF MOLECULE STARTED
********************************************************************************
                    INPUT FROM MOL FILE
********************************************************************************
INTGRL        1    0    1    0    0    0    0    0    0                         
         *** CFOUR Program System (Release V0.1) ***                            
RHF/STO-3G DVB                                                                  
   10    2 Z  XY      0.10E-08              0    0                              
   9999.00      3.00                                                            
          6.00000000    1    2    1    1                                        
C #1  -2.676249934586875   0.444728803708827   0.000000000000000                
    6    2                                                                      
   71.6168373000000       0.154329000000000       0.000000000000000E+000        
   13.0450963000000       0.535328100000000       0.000000000000000E+000        
   3.53051220000000       0.444634500000000       0.000000000000000E+000        
   2.94124940000000       0.000000000000000E+000 -9.996720000000001E-002        
  0.683483100000000       0.000000000000000E+000  0.399512800000000             
  0.222289900000000       0.000000000000000E+000  0.700115500000000             
    3    1                                                                      
   2.94124940000000       0.155916300000000                                     
  0.683483100000000       0.607683700000000                                     
  0.222289900000000       0.391957400000000                                     
          6.00000000    1    2    1    1                                        
C #2  -1.690742747834288  -2.053551381019105   0.000000000000000                
    6    2                                                                      
   71.6168373000000       0.154329000000000       0.000000000000000E+000        
   13.0450963000000       0.535328100000000       0.000000000000000E+000        
   3.53051220000000       0.444634500000000       0.000000000000000E+000        
   2.94124940000000       0.000000000000000E+000 -9.996720000000001E-002        
  0.683483100000000       0.000000000000000E+000  0.399512800000000             
  0.222289900000000       0.000000000000000E+000  0.700115500000000             
    3    1                                                                      
   2.94124940000000       0.155916300000000                                     
  0.683483100000000       0.607683700000000                                     
  0.222289900000000       0.391957400000000                                     
          6.00000000    1    2    1    1                                        
C #3   0.923894832167357  -2.483057061984854   0.000000000000000                
    6    2                                                                      
   71.6168373000000       0.154329000000000       0.000000000000000E+000        
   13.0450963000000       0.535328100000000       0.000000000000000E+000        
   3.53051220000000       0.444634500000000       0.000000000000000E+000        
   2.94124940000000       0.000000000000000E+000 -9.996720000000001E-002        
  0.683483100000000       0.000000000000000E+000  0.399512800000000             
  0.222289900000000       0.000000000000000E+000  0.700115500000000             
    3    1                                                                      
   2.94124940000000       0.155916300000000                                     
  0.683483100000000       0.607683700000000                                     
  0.222289900000000       0.391957400000000                                     
          1.00000000    1    1    1                                             
H #4  -2.987842899358434  -3.672082575322393   0.000000000000000                
    3    1                                                                      
   3.42525090000000       0.154329000000000                                     
  0.623913700000000       0.535328100000000                                     
  0.168855400000000       0.444634500000000                                     
          1.00000000    1    1    1                                             
H #5   1.643791341850124  -4.430380366729771   0.000000000000000                
    3    1                                                                      
   3.42525090000000       0.154329000000000                                     
  0.623913700000000       0.535328100000000                                     
  0.168855400000000       0.444634500000000                                     
          6.00000000    1    2    1    1                                        
C #6   5.449384572119542  -1.009628273757585   0.000000000000000                
    6    2                                                                      
   71.6168373000000       0.154329000000000       0.000000000000000E+000        
   13.0450963000000       0.535328100000000       0.000000000000000E+000        
   3.53051220000000       0.444634500000000       0.000000000000000E+000        
   2.94124940000000       0.000000000000000E+000 -9.996720000000001E-002        
  0.683483100000000       0.000000000000000E+000  0.399512800000000             
  0.222289900000000       0.000000000000000E+000  0.700115500000000             
    3    1                                                                      
   2.94124940000000       0.155916300000000                                     
  0.683483100000000       0.607683700000000                                     
  0.222289900000000       0.391957400000000                                     
          6.00000000    1    2    1    1                                        
C #7   7.340522529290705   0.686468908756816   0.000000000000000                
    6    2                                                                      
   71.6168373000000       0.154329000000000       0.000000000000000E+000        
   13.0450963000000       0.535328100000000       0.000000000000000E+000        
   3.53051220000000       0.444634500000000       0.000000000000000E+000        
   2.94124940000000       0.000000000000000E+000 -9.996720000000001E-002        
  0.683483100000000       0.000000000000000E+000  0.399512800000000             
  0.222289900000000       0.000000000000000E+000  0.700115500000000             
    3    1                                                                      
   2.94124940000000       0.155916300000000                                     
  0.683483100000000       0.607683700000000                                     
  0.222289900000000       0.391957400000000                                     
          1.00000000    1    1    1                                             
H #8   7.008097862154085   2.730795410975419   0.000000000000000                
    3    1                                                                      
   3.42525090000000       0.154329000000000                                     
  0.623913700000000       0.535328100000000                                     
  0.168855400000000       0.444634500000000                                     
          1.00000000    1    1    1                                             
H #9   5.914518801160900  -3.036442630400477   0.000000000000000                
    3    1                                                                      
   3.42525090000000       0.154329000000000                                     
  0.623913700000000       0.535328100000000                                     
  0.168855400000000       0.444634500000000                                     
          1.00000000    1    1    1                                             
H #0   9.322749330046985   0.084637826060924   0.000000000000000                
    3    1                                                                      
   3.42525090000000       0.154329000000000                                     
  0.623913700000000       0.535328100000000                                     
  0.168855400000000       0.444634500000000                                     
FINISH                                                                          
 
********************************************************************************
 ONE- AND TWO-ELECTRON INTEGRALS OVER SYMMETRY-ADAPTED AOS ARE CALCULATED.

  SPHERICAL HARMONICS ARE USED.
  
  10 TYPES OF ATOMS
   2 SYMMETRY OPERATIONS

   REFLECTION IN THE XY-PLANE
   ROTATION ABOUT THE Z-AXIS
  
  INTEGRALS LESS THAN  0.10E-13 ARE NEGLECTED.

  ATOMIC TYPE NUMBER  1 :
  -----------------------

    NUCLEAR CHARGE:                        6
    NUMBER OF SYMMETRY INDEPENDENT ATOMS:  1
    HIGHEST ORBITAL TYPE:                  P

      1 GROUPS OF CGTOS OF S TYPE
      1 GROUPS OF CGTOS OF P TYPE

    NUCLEAR COORDINATES (IN A.U.) ARE :

    C #1       -2.676249934586875        0.444728803708827        0.000000000000000
  
  ATOMIC TYPE NUMBER  2 :
  -----------------------

    NUCLEAR CHARGE:                        6
    NUMBER OF SYMMETRY INDEPENDENT ATOMS:  1
    HIGHEST ORBITAL TYPE:                  P

      1 GROUPS OF CGTOS OF S TYPE
      1 GROUPS OF CGTOS OF P TYPE

    NUCLEAR COORDINATES (IN A.U.) ARE :

    C #2       -1.690742747834288       -2.053551381019105        0.000000000000000
  
  ATOMIC TYPE NUMBER  3 :
  -----------------------

    NUCLEAR CHARGE:                        6
    NUMBER OF SYMMETRY INDEPENDENT ATOMS:  1
    HIGHEST ORBITAL TYPE:                  P

      1 GROUPS OF CGTOS OF S TYPE
      1 GROUPS OF CGTOS OF P TYPE

    NUCLEAR COORDINATES (IN A.U.) ARE :

    C #3        0.923894832167357       -2.483057061984854        0.000000000000000
  
  ATOMIC TYPE NUMBER  4 :
  -----------------------

    NUCLEAR CHARGE:                        1
    NUMBER OF SYMMETRY INDEPENDENT ATOMS:  1
    HIGHEST ORBITAL TYPE:                  S

      1 GROUPS OF CGTOS OF S TYPE

    NUCLEAR COORDINATES (IN A.U.) ARE :

    H #4       -2.987842899358434       -3.672082575322393        0.000000000000000
  
  ATOMIC TYPE NUMBER  5 :
  -----------------------

    NUCLEAR CHARGE:                        1
    NUMBER OF SYMMETRY INDEPENDENT ATOMS:  1
    HIGHEST ORBITAL TYPE:                  S

      1 GROUPS OF CGTOS OF S TYPE

    NUCLEAR COORDINATES (IN A.U.) ARE :

    H #5        1.643791341850124       -4.430380366729771        0.000000000000000
  
  ATOMIC TYPE NUMBER  6 :
  -----------------------

    NUCLEAR CHARGE:                        6
    NUMBER OF SYMMETRY INDEPENDENT ATOMS:  1
    HIGHEST ORBITAL TYPE:                  P

      1 GROUPS OF CGTOS OF S TYPE
      1 GROUPS OF CGTOS OF P TYPE

    NUCLEAR COORDINATES (IN A.U.) ARE :

    C #6        5.449384572119542       -1.009628273757585        0.000000000000000
  
  ATOMIC TYPE NUMBER  7 :
  -----------------------

    NUCLEAR CHARGE:                        6
    NUMBER OF SYMMETRY INDEPENDENT ATOMS:  1
    HIGHEST ORBITAL TYPE:                  P

      1 GROUPS OF CGTOS OF S TYPE
      1 GROUPS OF CGTOS OF P TYPE

    NUCLEAR COORDINATES (IN A.U.) ARE :

    C #7        7.340522529290705        0.686468908756816        0.000000000000000
  
  ATOMIC TYPE NUMBER  8 :
  -----------------------

    NUCLEAR CHARGE:                        1
    NUMBER OF SYMMETRY INDEPENDENT ATOMS:  1
    HIGHEST ORBITAL TYPE:                  S

      1 GROUPS OF CGTOS OF S TYPE

    NUCLEAR COORDINATES (IN A.U.) ARE :

    H #8        7.008097862154085        2.730795410975419        0.000000000000000
  
  ATOMIC TYPE NUMBER  9 :
  -----------------------

    NUCLEAR CHARGE:                        1
    NUMBER OF SYMMETRY INDEPENDENT ATOMS:  1
    HIGHEST ORBITAL TYPE:                  S

      1 GROUPS OF CGTOS OF S TYPE

    NUCLEAR COORDINATES (IN A.U.) ARE :

    H #9        5.914518801160900       -3.036442630400477        0.000000000000000
  
  ATOMIC TYPE NUMBER 10 :
  -----------------------

    NUCLEAR CHARGE:                        1
    NUMBER OF SYMMETRY INDEPENDENT ATOMS:  1
    HIGHEST ORBITAL TYPE:                  S

      1 GROUPS OF CGTOS OF S TYPE

    NUCLEAR COORDINATES (IN A.U.) ARE :

    H #0        9.322749330046985        0.084637826060924        0.000000000000000
  
   INTERNUCLEAR DISTANCES (A) :

     FOR ATOM C #1 (COORDINATES :  -2.67625   0.44473   0.00000)

     C #1   3     DISTANCE IS  2.871
     C #2   1     DISTANCE IS  1.421
     C #2   3     DISTANCE IS  2.463
     C #3   1     DISTANCE IS  2.456
     C #3   3     DISTANCE IS  1.422
     H #4   1     DISTANCE IS  2.185
     H #4   3     DISTANCE IS  3.450
     H #5   1     DISTANCE IS  3.447
     H #5   3     DISTANCE IS  2.179
     C #6   1     DISTANCE IS  4.368
     C #6   3     DISTANCE IS  1.498
     C #7   1     DISTANCE IS  5.302
     C #7   3     DISTANCE IS  2.540
     H #8   1     DISTANCE IS  5.266
     H #8   3     DISTANCE IS  2.842
     H #9   1     DISTANCE IS  4.905
     H #9   3     DISTANCE IS  2.195
     H #0   1     DISTANCE IS  6.352
     H #0   3     DISTANCE IS  3.528

     FOR ATOM C #2 (COORDINATES :  -1.69074  -2.05355   0.00000)

     C #2   3     DISTANCE IS  2.815
     C #3   1     DISTANCE IS  1.402
     C #3   3     DISTANCE IS  2.435
     H #4   1     DISTANCE IS  1.098
     H #4   3     DISTANCE IS  3.913
     H #5   1     DISTANCE IS  2.167
     H #5   3     DISTANCE IS  3.431
     C #6   1     DISTANCE IS  3.819
     C #6   3     DISTANCE IS  2.566
     C #7   1     DISTANCE IS  4.994
     C #7   3     DISTANCE IS  3.076
     H #8   1     DISTANCE IS  5.254
     H #8   3     DISTANCE IS  2.837
     H #9   1     DISTANCE IS  4.058
     H #9   3     DISTANCE IS  3.500
     H #0   1     DISTANCE IS  5.937
     H #0   3     DISTANCE IS  4.171

     FOR ATOM C #3 (COORDINATES :   0.92389  -2.48306   0.00000)

     C #3   3     DISTANCE IS  2.804
     H #4   1     DISTANCE IS  2.164
     H #4   3     DISTANCE IS  3.435
     H #5   1     DISTANCE IS  1.099
     H #5   3     DISTANCE IS  3.903
     C #6   1     DISTANCE IS  2.519
     C #6   3     DISTANCE IS  3.846
     C #7   1     DISTANCE IS  3.787
     C #7   3     DISTANCE IS  4.475
     H #8   1     DISTANCE IS  4.240
     H #8   3     DISTANCE IS  4.199
     H #9   1     DISTANCE IS  2.657
     H #9   3     DISTANCE IS  4.650
     H #0   1     DISTANCE IS  4.648
     H #0   3     DISTANCE IS  5.569

     FOR ATOM H #4 (COORDINATES :  -2.98784  -3.67208   0.00000)

     H #4   3     DISTANCE IS  5.010
     H #5   1     DISTANCE IS  2.484
     H #5   3     DISTANCE IS  4.346
     C #6   1     DISTANCE IS  4.682
     C #6   3     DISTANCE IS  2.799
     C #7   1     DISTANCE IS  5.932
     C #7   3     DISTANCE IS  2.793
     H #8   1     DISTANCE IS  6.282
     H #8   3     DISTANCE IS  2.185
     H #9   1     DISTANCE IS  4.723
     H #9   3     DISTANCE IS  3.873
     H #0   1     DISTANCE IS  6.811
     H #0   3     DISTANCE IS  3.852

     FOR ATOM H #5 (COORDINATES :   1.64379  -4.43038   0.00000)

     H #5   3     DISTANCE IS  5.001
     C #6   1     DISTANCE IS  2.708
     C #6   3     DISTANCE IS  4.730
     C #7   1     DISTANCE IS  4.052
     C #7   3     DISTANCE IS  5.151
     H #8   1     DISTANCE IS  4.735
     H #8   3     DISTANCE IS  4.666
     H #9   1     DISTANCE IS  2.377
     H #9   3     DISTANCE IS  5.622
     H #0   1     DISTANCE IS  4.714
     H #0   3     DISTANCE IS  6.242

     FOR ATOM C #6 (COORDINATES :   5.44938  -1.00963   0.00000)

     C #6   3     DISTANCE IS  5.866
     C #7   1     DISTANCE IS  1.344
     C #7   3     DISTANCE IS  6.770
     H #8   1     DISTANCE IS  2.144
     H #8   3     DISTANCE IS  6.655
     H #9   1     DISTANCE IS  1.100
     H #9   3     DISTANCE IS  6.383
     H #0   1     DISTANCE IS  2.130
     H #0   3     DISTANCE IS  7.832

     FOR ATOM C #7 (COORDINATES :   7.34052   0.68647   0.00000)

     C #7   3     DISTANCE IS  7.803
     H #8   1     DISTANCE IS  1.096
     H #8   3     DISTANCE IS  7.805
     H #9   1     DISTANCE IS  2.110
     H #9   3     DISTANCE IS  7.124
     H #0   1     DISTANCE IS  1.096
     H #0   3     DISTANCE IS  8.827

     FOR ATOM H #8 (COORDINATES :   7.00810   2.73080   0.00000)

     H #8   3     DISTANCE IS  7.960
     H #9   1     DISTANCE IS  3.106
     H #9   3     DISTANCE IS  6.840
     H #0   1     DISTANCE IS  1.860
     H #0   3     DISTANCE IS  8.769

     FOR ATOM H #9 (COORDINATES :   5.91452  -3.03644   0.00000)

     H #9   3     DISTANCE IS  7.036
     H #0   1     DISTANCE IS  2.446
     H #0   3     DISTANCE IS  8.213

     FOR ATOM H #0 (COORDINATES :   9.32275   0.08464   0.00000)

     H #0   3     DISTANCE IS  9.867

   GROUP MULTIPLICATION TABLE :

         1   2   3   4
         2   1   4   3
         3   4   1   2
         4   3   2   1

   GAUSSIAN BASIS INFORMATION :

   ATOM                 EXPONENT      COEFFICIENTS

 C #1  1    S   
+                 1      71.616837   0.1543290   0.0000000
                  2      13.045096   0.5353281   0.0000000
                  3       3.530512   0.4446345   0.0000000
                  4       2.941249   0.0000000  -0.0999672
                  5       0.683483   0.0000000   0.3995128
                  6       0.222290   0.0000000   0.7001155

 C #1  3    S   
+                 7      71.616837   0.1543290   0.0000000
                  8      13.045096   0.5353281   0.0000000
                  9       3.530512   0.4446345   0.0000000
                 10       2.941249   0.0000000  -0.0999672
                 11       0.683483   0.0000000   0.3995128
                 12       0.222290   0.0000000   0.7001155

 C #1  1    X   
+                13       2.941249   0.1559163
                 14       0.683483   0.6076837
                 15       0.222290   0.3919574

 C #1  3    X   
+                16       2.941249   0.1559163
                 17       0.683483   0.6076837
                 18       0.222290   0.3919574

 C #1  1    Y   
+                19       2.941249   0.1559163
                 20       0.683483   0.6076837
                 21       0.222290   0.3919574

 C #1  3    Y   
+                22       2.941249   0.1559163
                 23       0.683483   0.6076837
                 24       0.222290   0.3919574

 C #1  1    Z   
+                25       2.941249   0.1559163
                 26       0.683483   0.6076837
                 27       0.222290   0.3919574

 C #1  3    Z   
+                28       2.941249   0.1559163
                 29       0.683483   0.6076837
                 30       0.222290   0.3919574

 C #2  1    S   
+                31      71.616837   0.1543290   0.0000000
                 32      13.045096   0.5353281   0.0000000
                 33       3.530512   0.4446345   0.0000000
                 34       2.941249   0.0000000  -0.0999672
                 35       0.683483   0.0000000   0.3995128
                 36       0.222290   0.0000000   0.7001155

 C #2  3    S   
+                37      71.616837   0.1543290   0.0000000
                 38      13.045096   0.5353281   0.0000000
                 39       3.530512   0.4446345   0.0000000
                 40       2.941249   0.0000000  -0.0999672
                 41       0.683483   0.0000000   0.3995128
                 42       0.222290   0.0000000   0.7001155

 C #2  1    X   
+                43       2.941249   0.1559163
                 44       0.683483   0.6076837
                 45       0.222290   0.3919574

 C #2  3    X   
+                46       2.941249   0.1559163
                 47       0.683483   0.6076837
                 48       0.222290   0.3919574

 C #2  1    Y   
+                49       2.941249   0.1559163
                 50       0.683483   0.6076837
                 51       0.222290   0.3919574

 C #2  3    Y   
+                52       2.941249   0.1559163
                 53       0.683483   0.6076837
                 54       0.222290   0.3919574

 C #2  1    Z   
+                55       2.941249   0.1559163
                 56       0.683483   0.6076837
                 57       0.222290   0.3919574

 C #2  3    Z   
+                58       2.941249   0.1559163
                 59       0.683483   0.6076837
                 60       0.222290   0.3919574

 C #3  1    S   
+                61      71.616837   0.1543290   0.0000000
                 62      13.045096   0.5353281   0.0000000
                 63       3.530512   0.4446345   0.0000000
                 64       2.941249   0.0000000  -0.0999672
                 65       0.683483   0.0000000   0.3995128
                 66       0.222290   0.0000000   0.7001155

 C #3  3    S   
+                67      71.616837   0.1543290   0.0000000
                 68      13.045096   0.5353281   0.0000000
                 69       3.530512   0.4446345   0.0000000
                 70       2.941249   0.0000000  -0.0999672
                 71       0.683483   0.0000000   0.3995128
                 72       0.222290   0.0000000   0.7001155

 C #3  1    X   
+                73       2.941249   0.1559163
                 74       0.683483   0.6076837
                 75       0.222290   0.3919574

 C #3  3    X   
+                76       2.941249   0.1559163
                 77       0.683483   0.6076837
                 78       0.222290   0.3919574

 C #3  1    Y   
+                79       2.941249   0.1559163
                 80       0.683483   0.6076837
                 81       0.222290   0.3919574

 C #3  3    Y   
+                82       2.941249   0.1559163
                 83       0.683483   0.6076837
                 84       0.222290   0.3919574

 C #3  1    Z   
+                85       2.941249   0.1559163
                 86       0.683483   0.6076837
                 87       0.222290   0.3919574

 C #3  3    Z   
+                88       2.941249   0.1559163
                 89       0.683483   0.6076837
                 90       0.222290   0.3919574

 H #4  1    S   
+                91       3.425251   0.1543290
                 92       0.623914   0.5353281
                 93       0.168855   0.4446345

 H #4  3    S   
+                94       3.425251   0.1543290
                 95       0.623914   0.5353281
                 96       0.168855   0.4446345

 H #5  1    S   
+                97       3.425251   0.1543290
                 98       0.623914   0.5353281
                 99       0.168855   0.4446345

 H #5  3    S   
+               100       3.425251   0.1543290
                101       0.623914   0.5353281
                102       0.168855   0.4446345

 C #6  1    S   
+               103      71.616837   0.1543290   0.0000000
                104      13.045096   0.5353281   0.0000000
                105       3.530512   0.4446345   0.0000000
                106       2.941249   0.0000000  -0.0999672
                107       0.683483   0.0000000   0.3995128
                108       0.222290   0.0000000   0.7001155

 C #6  3    S   
+               109      71.616837   0.1543290   0.0000000
                110      13.045096   0.5353281   0.0000000
                111       3.530512   0.4446345   0.0000000
                112       2.941249   0.0000000  -0.0999672
                113       0.683483   0.0000000   0.3995128
                114       0.222290   0.0000000   0.7001155

 C #6  1    X   
+               115       2.941249   0.1559163
                116       0.683483   0.6076837
                117       0.222290   0.3919574

 C #6  3    X   
+               118       2.941249   0.1559163
                119       0.683483   0.6076837
                120       0.222290   0.3919574

 C #6  1    Y   
+               121       2.941249   0.1559163
                122       0.683483   0.6076837
                123       0.222290   0.3919574

 C #6  3    Y   
+               124       2.941249   0.1559163
                125       0.683483   0.6076837
                126       0.222290   0.3919574

 C #6  1    Z   
+               127       2.941249   0.1559163
                128       0.683483   0.6076837
                129       0.222290   0.3919574

 C #6  3    Z   
+               130       2.941249   0.1559163
                131       0.683483   0.6076837
                132       0.222290   0.3919574

 C #7  1    S   
+               133      71.616837   0.1543290   0.0000000
                134      13.045096   0.5353281   0.0000000
                135       3.530512   0.4446345   0.0000000
                136       2.941249   0.0000000  -0.0999672
                137       0.683483   0.0000000   0.3995128
                138       0.222290   0.0000000   0.7001155

 C #7  3    S   
+               139      71.616837   0.1543290   0.0000000
                140      13.045096   0.5353281   0.0000000
                141       3.530512   0.4446345   0.0000000
                142       2.941249   0.0000000  -0.0999672
                143       0.683483   0.0000000   0.3995128
                144       0.222290   0.0000000   0.7001155

 C #7  1    X   
+               145       2.941249   0.1559163
                146       0.683483   0.6076837
                147       0.222290   0.3919574

 C #7  3    X   
+               148       2.941249   0.1559163
                149       0.683483   0.6076837
                150       0.222290   0.3919574

 C #7  1    Y   
+               151       2.941249   0.1559163
                152       0.683483   0.6076837
                153       0.222290   0.3919574

 C #7  3    Y   
+               154       2.941249   0.1559163
                155       0.683483   0.6076837
                156       0.222290   0.3919574

 C #7  1    Z   
+               157       2.941249   0.1559163
                158       0.683483   0.6076837
                159       0.222290   0.3919574

 C #7  3    Z   
+               160       2.941249   0.1559163
                161       0.683483   0.6076837
                162       0.222290   0.3919574

 H #8  1    S   
+               163       3.425251   0.1543290
                164       0.623914   0.5353281
                165       0.168855   0.4446345

 H #8  3    S   
+               166       3.425251   0.1543290
                167       0.623914   0.5353281
                168       0.168855   0.4446345

 H #9  1    S   
+               169       3.425251   0.1543290
                170       0.623914   0.5353281
                171       0.168855   0.4446345

 H #9  3    S   
+               172       3.425251   0.1543290
                173       0.623914   0.5353281
                174       0.168855   0.4446345

 H #0  1    S   
+               175       3.425251   0.1543290
                176       0.623914   0.5353281
                177       0.168855   0.4446345

 H #0  3    S   
+               178       3.425251   0.1543290
                179       0.623914   0.5353281
                180       0.168855   0.4446345
 60 60
  1  2  3  4  5  6  7  8  9 10 11 12 13 14 15 16 17 18 19 20 21 22 23 24 25
 26 27 28 29 30 31 32 33 34 35 36 37 38 39 40 41 42 43 44 45 46 47 48 49 50
 51 52 53 54 55 56 57 58 59 60
1

             SYMMETRY TRANSFORMATION INFO
             60 SYMMETRY ADAPTED BASIS FUNCTIONS 


          IRREDUCIBLE REPRESENTATION NUMBER 1

    1    1  C #1     1S     2   1   1.0   2   1.0
    2    2  C #1     1S     2   3   1.0   4   1.0
    3    3  C #1     2PX    2   5   1.0   6  -1.0
    4    4  C #1     2PY    2   7   1.0   8  -1.0
    5    5  C #2     1S     2  11   1.0  12   1.0
    6    6  C #2     1S     2  13   1.0  14   1.0
    7    7  C #2     2PX    2  15   1.0  16  -1.0
    8    8  C #2     2PY    2  17   1.0  18  -1.0
    9    9  C #3     1S     2  21   1.0  22   1.0
   10   10  C #3     1S     2  23   1.0  24   1.0
   11   11  C #3     2PX    2  25   1.0  26  -1.0
   12   12  C #3     2PY    2  27   1.0  28  -1.0
   13   13  H #4     1S     2  31   1.0  32   1.0
   14   14  H #5     1S     2  33   1.0  34   1.0
   15   15  C #6     1S     2  35   1.0  36   1.0
   16   16  C #6     1S     2  37   1.0  38   1.0
   17   17  C #6     2PX    2  39   1.0  40  -1.0
   18   18  C #6     2PY    2  41   1.0  42  -1.0
   19   19  C #7     1S     2  45   1.0  46   1.0
   20   20  C #7     1S     2  47   1.0  48   1.0
   21   21  C #7     2PX    2  49   1.0  50  -1.0
   22   22  C #7     2PY    2  51   1.0  52  -1.0
   23   23  H #8     1S     2  55   1.0  56   1.0
   24   24  H #9     1S     2  57   1.0  58   1.0
   25   25  H #0     1S     2  59   1.0  60   1.0


          IRREDUCIBLE REPRESENTATION NUMBER 2

   26    1  C #1     2PZ    2   9   1.0  10   1.0
   27    2  C #2     2PZ    2  19   1.0  20   1.0
   28    3  C #3     2PZ    2  29   1.0  30   1.0
   29    4  C #6     2PZ    2  43   1.0  44   1.0
   30    5  C #7     2PZ    2  53   1.0  54   1.0


          IRREDUCIBLE REPRESENTATION NUMBER 3

   31    1  C #1     1S     2   1   1.0   2  -1.0
   32    2  C #1     1S     2   3   1.0   4  -1.0
   33    3  C #1     2PX    2   5   1.0   6   1.0
   34    4  C #1     2PY    2   7   1.0   8   1.0
   35    5  C #2     1S     2  11   1.0  12  -1.0
   36    6  C #2     1S     2  13   1.0  14  -1.0
   37    7  C #2     2PX    2  15   1.0  16   1.0
   38    8  C #2     2PY    2  17   1.0  18   1.0
   39    9  C #3     1S     2  21   1.0  22  -1.0
   40   10  C #3     1S     2  23   1.0  24  -1.0
   41   11  C #3     2PX    2  25   1.0  26   1.0
   42   12  C #3     2PY    2  27   1.0  28   1.0
   43   13  H #4     1S     2  31   1.0  32  -1.0
   44   14  H #5     1S     2  33   1.0  34  -1.0
   45   15  C #6     1S     2  35   1.0  36  -1.0
   46   16  C #6     1S     2  37   1.0  38  -1.0
   47   17  C #6     2PX    2  39   1.0  40   1.0
   48   18  C #6     2PY    2  41   1.0  42   1.0
   49   19  C #7     1S     2  45   1.0  46  -1.0
   50   20  C #7     1S     2  47   1.0  48  -1.0
   51   21  C #7     2PX    2  49   1.0  50   1.0
   52   22  C #7     2PY    2  51   1.0  52   1.0
   53   23  H #8     1S     2  55   1.0  56  -1.0
   54   24  H #9     1S     2  57   1.0  58  -1.0
   55   25  H #0     1S     2  59   1.0  60  -1.0


          IRREDUCIBLE REPRESENTATION NUMBER 4

   56    1  C #1     2PZ    2   9   1.0  10  -1.0
   57    2  C #2     2PZ    2  19   1.0  20  -1.0
   58    3  C #3     2PZ    2  29   1.0  30  -1.0
   59    4  C #6     2PZ    2  43   1.0  44  -1.0
   60    5  C #7     2PZ    2  53   1.0  54  -1.0
  NUCLEAR REPULSION ENERGY :  445.8949440249 A.U.
  @MOLECU-I, ONE ELECTRON INTEGRALS (CPU/WALL):        0.02/       0.02 SECONDS.
  @TWOEL-I,     102960 INTEGRALS OF SYMMETRY TYPE  I I I I
  @TWOEL-I,     221235 INTEGRALS OF SYMMETRY TYPE  I J I J
  @TWOEL-I,     121825 INTEGRALS OF SYMMETRY TYPE  I I J J
  @TWOEL-I,      46619 INTEGRALS OF SYMMETRY TYPE  I J K L
  @TWOEL-I, TOTAL NUMBER OF 2-E INTEGRALS     492639.
  @MOLECU-I, TWO ELECTRON INTEGRALS (CPU/WALL):        0.47/       0.47 SECONDS.
 @CHECKOUT-I, Total execution time (CPU/WALL):        0.49/       0.49 seconds.

OMP_NUM_THREADS not specified; defaulting to 1
Running with 1 threads/proc

--executable xvmol finished with status     0 in        0.52 seconds (walltime).
 --invoking executable--
/ihome/kjordan/shu8/software/source/cfour/cfour-public/bin/xvmol2ja
 @GETMEM-I,  Allocated     762 MB of main memory.
 ZMAT order <=> comp order: mapping vector 
           1    1
           4    2
           2    3
           5    4
           3    5
          19    6
           6    7
           8    8
           7    9
          20   10
           9   11
          14   12
          10   13
          16   14
          11   15
          17   16
          12   17
          15   18
          13   19
          18   20
 @CHECKOUT-I, Total execution time (CPU/WALL):        0.00/       0.01 seconds.
--executable xvmol2ja finished with status     0 in        0.02 seconds (walltime).
 --invoking executable--
/ihome/kjordan/shu8/software/source/cfour/cfour-public/bin/xvscf
  There are   60 functions in the AO basis.

  There are 4 irreducible representations.

       Irrep        # of functions
         1                 25
         2                  5
         3                 25
         4                  5


  Parameters for SCF calculation: 
        SCF reference function:  RHF  
  Maximum number of iterations:  150
     Full symmetry point group: C2h 
     Computational point group: C2h 
        Initial density matrix: MOREAD                 
     SCF convergence tolerance: 10**(- 7)
  DIIS convergence acceleration:  ON
          Latest start for DIIS:   8
                     DIIS order:   6

  Memory information:     165086 words required.
  Fock matrices are constructed from AO integral file.
 @GETMEM-I,  Allocated       1 MB of main memory.
  Initialization and symmetry analysis required      0.001 seconds.

 @INITGES-I, Routine entered. 
  @INITGES-I, Occupancies from core Hamiltonian:

          Alpha population by irrep:  15    3   14    3
           Beta population by irrep:  15    3   14    3


 total no. of electrons in initial guess :  0.000000000000000E+000
  --------------------------------------------------------------------
  Iteration         Total Energy            Largest Density Difference
  --------------------------------------------------------------------
       0           445.894944024931533              0.0000000000D+00
   current occupation vector 
    15  3 14  3
    15  3 14  3
  processed                 102960  ao basis integrals from 
                    26  buffers.
  processed                 121825  ao basis integrals from 
                    30  buffers.
  processed                 221235  ao basis integrals from 
                    55  buffers.
       1          -303.440928287767861              0.2772816532D+01
   current occupation vector 
    15  3 14  3
    15  3 14  3
  processed                 102960  ao basis integrals from 
                    26  buffers.
  processed                 121825  ao basis integrals from 
                    30  buffers.
  processed                 221235  ao basis integrals from 
                    55  buffers.
       2          -296.288567591469928              0.2826395273D+01
   current occupation vector 
    16  2 15  2
    16  2 15  2
  processed                 102960  ao basis integrals from 
                    26  buffers.
  processed                 121825  ao basis integrals from 
                    30  buffers.
  processed                 221235  ao basis integrals from 
                    55  buffers.
       3          -294.858771284917793              0.2840097955D+01
   current occupation vector 
    15  3 14  3
    15  3 14  3
  processed                 102960  ao basis integrals from 
                    26  buffers.
  processed                 121825  ao basis integrals from 
                    30  buffers.
  processed                 221235  ao basis integrals from 
                    55  buffers.
       4          -296.273163289102513              0.2840280090D+01
   current occupation vector 
    16  2 15  2
    16  2 15  2
 
 sum over diagonal and offdiagdiagonal of C(T)*S*C for irrep
                     1
 -3.530509218307998E-014  2.625237302766030E-014
 reorthoganalization of MOs is carried out
 sum over diagonal and offdiagdiagonal of C(T)*S*C for irrep
                     1
 -3.330669073875470E-015  2.571369890810747E-016
 
 sum over diagonal and offdiagdiagonal of C(T)*S*C for irrep
                     2
  8.215650382226158E-015 -6.365420411364071E-015
 reorthoganalization of MOs is carried out
 sum over diagonal and offdiagdiagonal of C(T)*S*C for irrep
                     2
  2.220446049250313E-016  7.335834718814275E-017
 
 sum over diagonal and offdiagdiagonal of C(T)*S*C for irrep
                     3
  9.314771176605063E-014 -6.038801520543714E-015
 reorthoganalization of MOs is carried out
 sum over diagonal and offdiagdiagonal of C(T)*S*C for irrep
                     3
  5.551115123125783E-016 -3.678998919500645E-017
 
 sum over diagonal and offdiagdiagonal of C(T)*S*C for irrep
                     4
  1.665334536937735E-014  1.600225284804224E-015
 reorthoganalization of MOs is carried out
 sum over diagonal and offdiagdiagonal of C(T)*S*C for irrep
                     4
 -1.221245327087672E-015 -1.156885937340498E-016
  processed                 102960  ao basis integrals from 
                    26  buffers.
  processed                 121825  ao basis integrals from 
                    30  buffers.
  processed                 221235  ao basis integrals from 
                    55  buffers.
       5          -294.565744457673077              0.2840289139D+01
   current occupation vector 
    15  3 14  3
    15  3 14  3
  processed                 102960  ao basis integrals from 
                    26  buffers.
  processed                 121825  ao basis integrals from 
                    30  buffers.
  processed                 221235  ao basis integrals from 
                    55  buffers.
       6          -296.303089633873469              0.2840284582D+01
   current occupation vector 
    16  2 15  2
    16  2 15  2
  processed                 102960  ao basis integrals from 
                    26  buffers.
  processed                 121825  ao basis integrals from 
                    30  buffers.
  processed                 221235  ao basis integrals from 
                    55  buffers.
       7          -294.575282436219368              0.2840284639D+01
   current occupation vector 
    15  3 14  3
    15  3 14  3
  processed                 102960  ao basis integrals from 
                    26  buffers.
  processed                 121825  ao basis integrals from 
                    30  buffers.
  processed                 221235  ao basis integrals from 
                    55  buffers.
       8          -296.304983137875638              0.2840284298D+01
   current occupation vector 
    16  2 15  2
    16  2 15  2
  processed                 102960  ao basis integrals from 
                    26  buffers.
  processed                 121825  ao basis integrals from 
                    30  buffers.
  processed                 221235  ao basis integrals from 
                    55  buffers.
       9          -379.594893948144886              0.2398457732D+01
   current occupation vector 
    15  2 15  3
    15  2 15  3
 
 sum over diagonal and offdiagdiagonal of C(T)*S*C for irrep
                     1
 -5.784261958297066E-014 -1.268012800940946E-014
 reorthoganalization of MOs is carried out
 sum over diagonal and offdiagdiagonal of C(T)*S*C for irrep
                     1
 -9.992007221626409E-016 -1.695156730669599E-016
 
 sum over diagonal and offdiagdiagonal of C(T)*S*C for irrep
                     2
  7.549516567451064E-015  9.259953914764196E-015
 reorthoganalization of MOs is carried out
 sum over diagonal and offdiagdiagonal of C(T)*S*C for irrep
                     2
  0.000000000000000E+000  2.393918396847994E-016
 
 sum over diagonal and offdiagdiagonal of C(T)*S*C for irrep
                     3
  6.417089082333405E-014 -4.872518811275785E-015
 reorthoganalization of MOs is carried out
 sum over diagonal and offdiagdiagonal of C(T)*S*C for irrep
                     3
 -5.551115123125783E-016 -5.816755892344163E-015
 
 sum over diagonal and offdiagdiagonal of C(T)*S*C for irrep
                     4
  1.132427485117660E-014  5.518155377082223E-015
 reorthoganalization of MOs is carried out
 sum over diagonal and offdiagdiagonal of C(T)*S*C for irrep
                     4
  4.440892098500626E-016  1.214306433183765E-017
  processed                 102960  ao basis integrals from 
                    26  buffers.
  processed                 121825  ao basis integrals from 
                    30  buffers.
  processed                 221235  ao basis integrals from 
                    55  buffers.
      10          -379.595599399553635              0.9717866426D-01
   current occupation vector 
    15  2 15  3
    15  2 15  3
  processed                 102960  ao basis integrals from 
                    26  buffers.
  processed                 121825  ao basis integrals from 
                    30  buffers.
  processed                 221235  ao basis integrals from 
                    55  buffers.
      11          -379.589986014010378              0.2028566972D-01
   current occupation vector 
    15  2 15  3
    15  2 15  3
  processed                 102960  ao basis integrals from 
                    26  buffers.
  processed                 121825  ao basis integrals from 
                    30  buffers.
  processed                 221235  ao basis integrals from 
                    55  buffers.
      12          -379.599643620322240              0.3886963081D-02
   current occupation vector 
    15  2 15  3
    15  2 15  3
  processed                 102960  ao basis integrals from 
                    26  buffers.
  processed                 121825  ao basis integrals from 
                    30  buffers.
  processed                 221235  ao basis integrals from 
                    55  buffers.
      13          -379.766311238890466              0.1650456936D+00
   current occupation vector 
    15  2 15  3
    15  2 15  3
  processed                 102960  ao basis integrals from 
                    26  buffers.
  processed                 121825  ao basis integrals from 
                    30  buffers.
  processed                 221235  ao basis integrals from 
                    55  buffers.
      14          -379.768627018471875              0.1667969182D-01
   current occupation vector 
    15  2 15  3
    15  2 15  3
 
 sum over diagonal and offdiagdiagonal of C(T)*S*C for irrep
                     1
 -1.532107773982716E-014 -3.587378199458045E-014
 reorthoganalization of MOs is carried out
 sum over diagonal and offdiagdiagonal of C(T)*S*C for irrep
                     1
 -2.109423746787797E-015 -1.097378477329985E-015
 
 sum over diagonal and offdiagdiagonal of C(T)*S*C for irrep
                     2
  2.331468351712829E-015 -3.596976232492222E-016
 reorthoganalization of MOs is carried out
 sum over diagonal and offdiagdiagonal of C(T)*S*C for irrep
                     2
 -5.551115123125783E-016  8.100413243818105E-016
 
 sum over diagonal and offdiagdiagonal of C(T)*S*C for irrep
                     3
  1.088018564132653E-014 -2.267804618113021E-014
 reorthoganalization of MOs is carried out
 sum over diagonal and offdiagdiagonal of C(T)*S*C for irrep
                     3
 -8.881784197001252E-016 -1.564241707666098E-015
 
 sum over diagonal and offdiagdiagonal of C(T)*S*C for irrep
                     4
  1.243449787580175E-014  4.050037215319602E-015
 reorthoganalization of MOs is carried out
 sum over diagonal and offdiagdiagonal of C(T)*S*C for irrep
                     4
 -3.330669073875470E-016  5.902396627011086E-016
  processed                 102960  ao basis integrals from 
                    26  buffers.
  processed                 121825  ao basis integrals from 
                    30  buffers.
  processed                 221235  ao basis integrals from 
                    55  buffers.
      15          -379.769085318706743              0.8056225185D-02
   current occupation vector 
    15  2 15  3
    15  2 15  3
  processed                 102960  ao basis integrals from 
                    26  buffers.
  processed                 121825  ao basis integrals from 
                    30  buffers.
  processed                 221235  ao basis integrals from 
                    55  buffers.
      16          -379.769105652050484              0.1975174750D-02
   current occupation vector 
    15  2 15  3
    15  2 15  3
  processed                 102960  ao basis integrals from 
                    26  buffers.
  processed                 121825  ao basis integrals from 
                    30  buffers.
  processed                 221235  ao basis integrals from 
                    55  buffers.
      17          -379.769106884362145              0.3812185179D-03
   current occupation vector 
    15  2 15  3
    15  2 15  3
  processed                 102960  ao basis integrals from 
                    26  buffers.
  processed                 121825  ao basis integrals from 
                    30  buffers.
  processed                 221235  ao basis integrals from 
                    55  buffers.
      18          -379.769106954376753              0.1265760910D-03
   current occupation vector 
    15  2 15  3
    15  2 15  3
  processed                 102960  ao basis integrals from 
                    26  buffers.
  processed                 121825  ao basis integrals from 
                    30  buffers.
  processed                 221235  ao basis integrals from 
                    55  buffers.
      19          -379.769106957749727              0.2009824841D-04
   current occupation vector 
    15  2 15  3
    15  2 15  3
 
 sum over diagonal and offdiagdiagonal of C(T)*S*C for irrep
                     1
 -4.862776847858186E-014 -5.307368609924557E-014
 reorthoganalization of MOs is carried out
 sum over diagonal and offdiagdiagonal of C(T)*S*C for irrep
                     1
 -8.881784197001252E-016 -3.332989139174963E-015
 
 sum over diagonal and offdiagdiagonal of C(T)*S*C for irrep
                     2
  5.995204332975845E-015  1.548620173069670E-015
 reorthoganalization of MOs is carried out
 sum over diagonal and offdiagdiagonal of C(T)*S*C for irrep
                     2
  5.551115123125783E-016  3.616356346325400E-016
 
 sum over diagonal and offdiagdiagonal of C(T)*S*C for irrep
                     3
  8.448797217397441E-014 -1.502401911370155E-014
 reorthoganalization of MOs is carried out
 sum over diagonal and offdiagdiagonal of C(T)*S*C for irrep
                     3
  1.110223024625157E-016  5.917571105938873E-016
 
 sum over diagonal and offdiagdiagonal of C(T)*S*C for irrep
                     4
  7.993605777301127E-015  5.732637671854168E-015
 reorthoganalization of MOs is carried out
 sum over diagonal and offdiagdiagonal of C(T)*S*C for irrep
                     4
 -5.551115123125783E-016 -8.397145825900232E-017
  processed                 102960  ao basis integrals from 
                    26  buffers.
  processed                 121825  ao basis integrals from 
                    30  buffers.
  processed                 221235  ao basis integrals from 
                    55  buffers.
      20          -379.769106957903659              0.3984605299D-05
   current occupation vector 
    15  2 15  3
    15  2 15  3
  processed                 102960  ao basis integrals from 
                    26  buffers.
  processed                 121825  ao basis integrals from 
                    30  buffers.
  processed                 221235  ao basis integrals from 
                    55  buffers.
      21          -379.769106957914801              0.9324348263D-06
   current occupation vector 
    15  2 15  3
    15  2 15  3
  processed                 102960  ao basis integrals from 
                    26  buffers.
  processed                 121825  ao basis integrals from 
                    30  buffers.
  processed                 221235  ao basis integrals from 
                    55  buffers.
      22          -379.769106957916506              0.7424618844D-06
   current occupation vector 
    15  2 15  3
    15  2 15  3
  processed                 102960  ao basis integrals from 
                    26  buffers.
  processed                 121825  ao basis integrals from 
                    30  buffers.
  processed                 221235  ao basis integrals from 
                    55  buffers.
      23          -379.769106957916847              0.1237963768D-06
   current occupation vector 
    15  2 15  3
    15  2 15  3

  SCF has converged.

 Density matrix saved to file den.dat
 total electron number:   70.0000000000000     
  processed                 102960  ao basis integrals from 
                    26  buffers.
  processed                 121825  ao basis integrals from 
                    30  buffers.
  processed                 221235  ao basis integrals from 
                    55  buffers.
     E(SCF)=      -379.769106957917415              0.8943167784D-07


  Final occupancies:

     Alpha population by irrep:  15    2   15    3
      Beta population by irrep:  15    2   15    3



  ORBITAL EIGENVECTORS

  SYMMETRY BLOCK 1 (ALPHA)

                          MO #  1       MO #  2       MO #  3       MO #  4

    BASIS/ORB E          -11.04052     -11.03178     -11.02877     -11.02832
                        ----------    ----------    ----------    ----------
    1; C #1                0.70154       0.01020       0.00314       0.00177
    2; C #1                0.02519      -0.00374       0.00565       0.00365
    3; C #1                0.00046       0.00293       0.00157       0.00178
    4; C #1                0.00003      -0.00047      -0.00236       0.00290
    5; C #2                0.00340      -0.00468      -0.68641       0.14528
    6; C #2               -0.00456      -0.00008      -0.02376       0.00993
    7; C #2                0.00114      -0.00002       0.00021       0.00322
    8; C #2               -0.00292      -0.00006      -0.00047      -0.00036
    9; C #3                0.00310      -0.00534      -0.14583      -0.68629
   10; C #3               -0.00462      -0.00016      -0.00055      -0.02572
   11; C #3               -0.00204      -0.00001      -0.00305       0.00095
   12; C #3               -0.00243      -0.00006       0.00049      -0.00060
   13; H #4               -0.00002      -0.00009       0.00470      -0.00099
   14; H #5               -0.00002       0.00001       0.00100       0.00468
   15; C #6               -0.00946       0.70133      -0.00580      -0.00431
   16; C #6               -0.00456       0.02500      -0.00034      -0.00024
[...]
   3 S         0.0763391     0.0556121    -0.0684563     0.0588211    -0.1139586
   3 S        -0.4622247    -0.3503934     0.4342369    -0.3611365     0.7305844
   3 PX        0.0233139    -0.3181366     0.2945603    -0.1228507    -0.1038058
   3 PY        0.1165559     0.3251072    -0.0095090    -0.1431300     0.0778462
   3 PZ        0.0000000     0.0000000     0.0000000     0.0000000     0.0000000
   4 S        -0.0826495    -0.0158157     0.1296936    -0.0613489     0.0407731
   4 S         0.4925976     0.1024708    -0.7981779     0.3693519    -0.2576363
   4 PX        0.0283509    -0.2568449     0.0085626    -0.1113523     0.0508491
   4 PY        0.1195498     0.1088021    -0.0472746    -0.1350799     0.3455245
   4 PZ        0.0000000     0.0000000     0.0000000     0.0000000     0.0000000
   5 S         0.0995724     0.0029432    -0.0750047     0.0686601     0.0948719
   5 S        -0.6110158    -0.0065091     0.4755319    -0.4274539    -0.6104841
   5 PX       -0.1141470    -0.1095914     0.2416985    -0.1473490     0.1816569
   5 PY        0.0117525     0.2050408    -0.2219591    -0.1773344    -0.1585657
   5 PZ        0.0000000     0.0000000     0.0000000     0.0000000     0.0000000
   6 S        -0.3278826     0.0565812    -0.2251923    -0.4841137     0.3362446
   7 S         0.3437223     0.5950175    -0.2864545     0.0837552    -0.2445971
   8 S         0.3278826    -0.0565812    -0.2251923     0.4841137     0.3362446
   9 S         0.0394564    -0.0746803    -0.0939676     0.0703955    -0.0333820
   9 S        -0.2523184     0.4755526     0.5763110    -0.4324836     0.2341872
   9 PX        0.1904846    -0.0642782    -0.1013112    -0.1192723    -0.0730089
   9 PY        0.1468614    -0.2231742    -0.1146088     0.0551242    -0.0391579
   9 PZ        0.0000000     0.0000000     0.0000000     0.0000000     0.0000000
  10 S         0.0836788    -0.0206669     0.0634005    -0.1111362    -0.0606351
  10 S        -0.5348683     0.1405111    -0.3906183     0.7065618     0.3953472
  10 PX       -0.1171166     0.2937288    -0.0642318     0.0232149     0.3736587
  10 PY       -0.2623187    -0.0291718     0.0305720     0.1393186     0.1345383
  10 PZ        0.0000000     0.0000000     0.0000000     0.0000000     0.0000000
  11 S         0.4617978     0.0261393     0.1724576    -0.5136024    -0.2843474
  12 S         0.1907888    -0.4410109    -0.3676070     0.2930054    -0.0907688
  13 S         0.2906986    -0.3295276     0.2670894    -0.3224083    -0.4565268
  14 S        -0.0394564     0.0746803    -0.0939676    -0.0703955    -0.0333820
  14 S         0.2523184    -0.4755526     0.5763110     0.4324836     0.2341872
  14 PX        0.1904846    -0.0642782     0.1013112    -0.1192723     0.0730089
  14 PY        0.1468614    -0.2231742     0.1146088     0.0551242     0.0391579
  14 PZ        0.0000000     0.0000000     0.0000000     0.0000000     0.0000000
  15 S        -0.1907888     0.4410109    -0.3676070    -0.2930054    -0.0907688
  16 S        -0.0836788     0.0206669     0.0634005     0.1111362    -0.0606351
  16 S         0.5348683    -0.1405111    -0.3906183    -0.7065618     0.3953472
  16 PX       -0.1171166     0.2937288     0.0642318     0.0232149    -0.3736587
  16 PY       -0.2623187    -0.0291718    -0.0305720     0.1393186    -0.1345383
  16 PZ        0.0000000     0.0000000     0.0000000     0.0000000     0.0000000
  17 S        -0.4617978    -0.0261393     0.1724576     0.5136024    -0.2843474
  18 S        -0.2906986     0.3295276     0.2670894     0.3224083    -0.4565268
  19 S        -0.0763391    -0.0556121    -0.0684563    -0.0588211    -0.1139586
  19 S         0.4622247     0.3503934     0.4342369     0.3611365     0.7305844
  19 PX        0.0233139    -0.3181366    -0.2945603    -0.1228507     0.1038058
  19 PY        0.1165559     0.3251072     0.0095090    -0.1431300    -0.0778462
  19 PZ        0.0000000     0.0000000     0.0000000     0.0000000     0.0000000
  20 S        -0.3437223    -0.5950175    -0.2864545    -0.0837552    -0.2445971
--------------------------------------------------------------------------------
Eigenvalue      0.802996      0.824984      0.860168      0.888830      0.921194
 Symmetry          Ag            Bu            Ag            Bu            Bu    
--------------------------------------------------------------------------------
   1 S         0.0684030     0.0033942     0.0019544     0.0494975     0.0951009
   1 S        -0.4633672    -0.0125878    -0.0199099    -0.3481771    -0.6532465
   1 PX       -0.5857046    -0.0611704    -0.0595812    -0.0053707     0.0572848
   1 PY        0.1180983    -0.5572577     0.2140197    -0.2619224     0.1857236
   1 PZ        0.0000000     0.0000000     0.0000000     0.0000000     0.0000000
   2 S        -0.0480345     0.0345469    -0.0043655     0.0879305    -0.0266220
   2 S         0.3166868    -0.2439593     0.0372620    -0.6129428     0.1754590
   2 PX        0.0036787     0.4765740     0.3918199    -0.3831543    -0.2185130
   2 PY        0.3131857    -0.1915942     0.5288891     0.2951994     0.3993381
   2 PZ        0.0000000     0.0000000     0.0000000     0.0000000     0.0000000
   3 S        -0.0140255     0.0947460     0.0029550    -0.0352118    -0.0099225
   3 S         0.0937864    -0.6447881    -0.0263807     0.2425871     0.0829409
   3 PX        0.1563465    -0.1049066     0.2040658    -0.7138440    -0.1541714
   3 PY        0.4570161     0.0140919    -0.5216872    -0.1870124    -0.2709693
   3 PZ        0.0000000     0.0000000     0.0000000     0.0000000     0.0000000
   4 S         0.0684030    -0.0033942     0.0019544    -0.0494975    -0.0951009
   4 S        -0.4633672     0.0125878    -0.0199099     0.3481771     0.6532465
   4 PX        0.5857046    -0.0611704     0.0595812    -0.0053707     0.0572848
   4 PY       -0.1180983    -0.5572577    -0.2140197    -0.2619224     0.1857236
   4 PZ        0.0000000     0.0000000     0.0000000     0.0000000     0.0000000
   5 S        -0.0480345    -0.0345469    -0.0043655    -0.0879305     0.0266220
   5 S         0.3166868     0.2439593     0.0372620     0.6129428    -0.1754590
   5 PX       -0.0036787     0.4765740    -0.3918199    -0.3831543    -0.2185130
   5 PY       -0.3131857    -0.1915942    -0.5288891     0.2951994     0.3993381
   5 PZ        0.0000000     0.0000000     0.0000000     0.0000000     0.0000000
   6 S         0.0405521     0.2081865     0.5095766     0.2520354     0.0298673
   7 S         0.2497119     0.2997520    -0.4410006    -0.0594152    -0.1485791
   8 S         0.0405521    -0.2081865     0.5095766    -0.2520354    -0.0298673
   9 S         0.0721938     0.0268175     0.0527150     0.0623124    -0.0165043
   9 S        -0.4798901    -0.1982255    -0.3678824    -0.4360765     0.1360004
   9 PX       -0.0209703    -0.0517229    -0.1625441    -0.1149451     0.4795897
   9 PY        0.1585323    -0.2743596    -0.1372838     0.0855931    -0.2978122
   9 PZ        0.0000000     0.0000000     0.0000000     0.0000000     0.0000000
  10 S        -0.0182975    -0.0097361    -0.0412579    -0.0098972     0.0175246
  10 S         0.1156661     0.0773668     0.2873451     0.0658644    -0.1281751
  10 PX        0.1356752    -0.4895173    -0.2880460    -0.0905087    -0.2369749
  10 PY       -0.3590439     0.0204861    -0.1028902    -0.3171414     0.5021710
  10 PZ        0.0000000     0.0000000     0.0000000     0.0000000     0.0000000
  11 S         0.2495106    -0.1022813    -0.1196301     0.2350959    -0.3411375
  12 S         0.3088897    -0.1510388     0.0844655     0.2665927    -0.3237078
  13 S        -0.2561026     0.3563536     0.0768257    -0.0382117     0.3312721
  14 S         0.0721938    -0.0268175     0.0527150    -0.0623124     0.0165043
  14 S        -0.4798901     0.1982255    -0.3678824     0.4360765    -0.1360004
  14 PX        0.0209703    -0.0517229     0.1625441    -0.1149451     0.4795897
  14 PY       -0.1585323    -0.2743596     0.1372838     0.0855931    -0.2978122
  14 PZ        0.0000000     0.0000000     0.0000000     0.0000000     0.0000000
  15 S         0.3088897     0.1510388     0.0844655    -0.2665927     0.3237078
  16 S        -0.0182975     0.0097361    -0.0412579     0.0098972    -0.0175246
  16 S         0.1156661    -0.0773668     0.2873451    -0.0658644     0.1281751
  16 PX       -0.1356752    -0.4895173     0.2880460    -0.0905087    -0.2369749
  16 PY        0.3590439     0.0204861     0.1028902    -0.3171414     0.5021710
  16 PZ        0.0000000     0.0000000     0.0000000     0.0000000     0.0000000
  17 S         0.2495106     0.1022813    -0.1196301    -0.2350959     0.3411375
  18 S        -0.2561026    -0.3563536     0.0768257     0.0382117    -0.3312721
  19 S        -0.0140255    -0.0947460     0.0029550     0.0352118     0.0099225
  19 S         0.0937864     0.6447881    -0.0263807    -0.2425871    -0.0829409
  19 PX       -0.1563465    -0.1049066    -0.2040658    -0.7138440    -0.1541714
  19 PY       -0.4570161     0.0140919     0.5216872    -0.1870124    -0.2709693
  19 PZ        0.0000000     0.0000000     0.0000000     0.0000000     0.0000000
  20 S         0.2497119    -0.2997520    -0.4410006     0.0594152     0.1485791
--------------------------------------------------------------------------------
Eigenvalue      0.939736      0.990287      1.027132      1.108280      1.125294
 Symmetry          Ag            Ag            Bu            Ag            Bu    
--------------------------------------------------------------------------------
   1 S         0.0143009     0.0170605     0.0201593     0.0047641     0.0426628
   1 S        -0.0856187    -0.1086162    -0.1438686    -0.0317942    -0.3234100
   1 PX        0.3605086     0.4136003    -0.1390329    -0.0526280    -0.6625626
   1 PY       -0.1083156     0.0997415    -0.4658890    -0.7111324     0.1694358
   1 PZ        0.0000000     0.0000000     0.0000000     0.0000000     0.0000000
   2 S        -0.0316721     0.0168805     0.0216997     0.0068369    -0.0559890
   2 S         0.2212307    -0.1246593    -0.1637891    -0.0462555     0.4154965
   2 PX        0.3243169    -0.4291304     0.2164703     0.4254291     0.3875794
   2 PY       -0.1555277    -0.0524375    -0.0500989    -0.4445871     0.4990356
   2 PZ        0.0000000     0.0000000     0.0000000     0.0000000     0.0000000
   3 S         0.0281279    -0.0181464     0.0465571    -0.0068421     0.0503254
   3 S        -0.2010936     0.1323691    -0.3407069     0.0469337    -0.3711845
   3 PX        0.3896393    -0.3682719    -0.1379687     0.5498359     0.2395740
   3 PY       -0.2687363    -0.1165294    -0.2001485     0.2428462    -0.5642436
   3 PZ        0.0000000     0.0000000     0.0000000     0.0000000     0.0000000
   4 S         0.0143009     0.0170605    -0.0201593     0.0047641    -0.0426628
   4 S        -0.0856187    -0.1086162     0.1438686    -0.0317942     0.3234100
   4 PX       -0.3605086    -0.4136003    -0.1390329     0.0526280    -0.6625626
   4 PY        0.1083156    -0.0997415    -0.4658890     0.7111324     0.1694358
   4 PZ        0.0000000     0.0000000     0.0000000     0.0000000     0.0000000
   5 S        -0.0316721     0.0168805    -0.0216997     0.0068369     0.0559890
   5 S         0.2212307    -0.1246593     0.1637891    -0.0462555    -0.4154965
   5 PX       -0.3243169     0.4291304     0.2164703    -0.4254291     0.3875794
   5 PY        0.1555277     0.0524375    -0.0500989     0.4445871     0.4990356
   5 PZ        0.0000000     0.0000000     0.0000000     0.0000000     0.0000000
   6 S        -0.0368093    -0.1999896     0.1070019    -0.0409505     0.2751683
   7 S        -0.2172152    -0.0478922     0.0213302     0.0077444    -0.2695716
   8 S        -0.0368093    -0.1999896    -0.1070019    -0.0409505    -0.2751683
   9 S        -0.0432020     0.0362621    -0.0582423     0.0238909    -0.0139223
   9 S         0.3061692    -0.2962396     0.4511383    -0.1955918     0.0865932
   9 PX       -0.1448647    -0.6796637     0.4566643    -0.3022244    -0.3673410
   9 PY        0.5588729    -0.1009252     0.6090612    -0.4138986     0.0232365
   9 PZ        0.0000000     0.0000000     0.0000000     0.0000000     0.0000000
  10 S         0.0325142    -0.0464803     0.0682286    -0.0380771    -0.0093311
  10 S        -0.2407672     0.3565128    -0.5253214     0.3046306     0.0821221
  10 PX        0.5402893    -0.1851342     0.5370408    -0.3017764    -0.0003499
  10 PY       -0.1335489    -0.5827633     0.3878970    -0.2402734    -0.2180675
  10 PZ        0.0000000     0.0000000     0.0000000     0.0000000     0.0000000
  11 S         0.2646662     0.2712195    -0.0128156     0.0328194     0.1352703
  12 S         0.3107438     0.1436725     0.1812732    -0.1584143     0.0463101
  13 S        -0.3215692    -0.1228145    -0.0964761     0.0457793    -0.0657815
  14 S        -0.0432020     0.0362621     0.0582423     0.0238909     0.0139223
  14 S         0.3061692    -0.2962396    -0.4511383    -0.1955918    -0.0865932
  14 PX        0.1448647     0.6796637     0.4566643     0.3022244    -0.3673410
  14 PY       -0.5588729     0.1009252     0.6090612     0.4138986     0.0232365
  14 PZ        0.0000000     0.0000000     0.0000000     0.0000000     0.0000000
  15 S         0.3107438     0.1436725    -0.1812732    -0.1584143    -0.0463101
  16 S         0.0325142    -0.0464803    -0.0682286    -0.0380771     0.0093311
  16 S        -0.2407672     0.3565128     0.5253214     0.3046306    -0.0821221
  16 PX       -0.5402893     0.1851342     0.5370408     0.3017764    -0.0003499
  16 PY        0.1335489     0.5827633     0.3878970     0.2402734    -0.2180675
  16 PZ        0.0000000     0.0000000     0.0000000     0.0000000     0.0000000
  17 S         0.2646662     0.2712195     0.0128156     0.0328194    -0.1352703
  18 S        -0.3215692    -0.1228145     0.0964761     0.0457793     0.0657815
  19 S         0.0281279    -0.0181464    -0.0465571    -0.0068421    -0.0503254
  19 S        -0.2010936     0.1323691     0.3407069     0.0469337     0.3711845
  19 PX       -0.3896393     0.3682719    -0.1379687    -0.5498359     0.2395740
  19 PY        0.2687363     0.1165294    -0.2001485    -0.2428462    -0.5642436
  19 PZ        0.0000000     0.0000000     0.0000000     0.0000000     0.0000000
  20 S        -0.2172152    -0.0478922    -0.0213302     0.0077444     0.2695716
--------------------------------------------------------------------------------


 
  ORBITAL EIGENVALUES (ALPHA)  (1H = 27.2113834 eV)

       MO #        E(hartree)               E(eV)           FULLSYM    COMPSYM
       ----   --------------------   --------------------   -------   ---------
    1    31         -11.0405804375        -300.4294672425      Bu        Bu (3)
    2     1         -11.0405188761        -300.4277920718      Ag        Ag (1)
    3    32         -11.0317787776        -300.1899619026     E          Bu (3)
    4     2         -11.0317784197        -300.1899521629     E          Ag (1)
    5    33         -11.0288765284        -300.1109876857      Bu        Bu (3)
    6     3         -11.0287669909        -300.1080070183      Ag        Ag (1)
    7    34         -11.0283662065        -300.0971011219      Bu        Bu (3)
    8     4         -11.0283209840        -300.0958705539      Ag        Ag (1)
    9    35         -11.0176878554        -299.8065284136     E          Bu (3)
   10     5         -11.0176876780        -299.8065235871     E          Ag (1)
   11     6          -1.0903553961         -29.6700787266      Ag        Ag (1)
   12    36          -1.0203057852         -27.7639319060      Bu        Bu (3)
   13     7          -0.9750458497         -26.5323464486      Ag        Ag (1)
   14    37          -0.9501441579         -25.8547369652      Bu        Bu (3)
   15    38          -0.9098682836         -24.7587747076      Bu        Bu (3)
   16     8          -0.8001098938         -21.7720970820      Ag        Ag (1)
   17     9          -0.7625535030         -20.7501357318      Ag        Ag (1)
   18    39          -0.7279219115         -19.8077622187      Bu        Bu (3)
   19    10          -0.6970787802         -18.9684779472      Ag        Ag (1)
   20    11          -0.6278566587         -17.0848482613      Ag        Ag (1)
   21    40          -0.6058915668         -16.4871477228      Bu        Bu (3)
   22    41          -0.5724689412         -15.5776718444      Bu        Bu (3)
   23    42          -0.5539016469         -15.0724300793      Bu        Bu (3)
   24    12          -0.5533467658         -15.0573309970      Ag        Ag (1)
   25    43          -0.5248417543         -14.2816702006      Bu        Bu (3)
   26    44          -0.4969488291         -13.5226651190      Bu        Bu (3)
   27    13          -0.4928607698         -13.4114233694      Ag        Ag (1)
   28    26          -0.4637871588         -12.6202901932      Au        Au (2)
   29    45          -0.4466644242         -12.1543568993      Bu        Bu (3)
   30    14          -0.4214090372         -11.4671228805      Ag        Ag (1)
   31    15          -0.4156151674         -11.3094636663      Ag        Ag (1)
   32    56          -0.3770650541         -10.2604617525      Bg        Bg (4)
   33    27          -0.3152497794          -8.5783826136      Au        Au (2)
   34    57          -0.2782756897          -7.5722664829      Bg        Bg (4)
   35    58          -0.2222677625          -6.0482133036      Bg        Bg (4)
  +++++++++++++++++++++++++++++++++++++++++++++++++++++++++++++++++++++++++++++
   36    28           0.1988740147           5.4116370619      Au        Au (2)
   37    29           0.2688326473           7.3153082358      Au        Au (2)
   38    59           0.3086803266           8.3996187139      Bg        Bg (4)
   39    30           0.3970690655          10.8047985766      Au        Au (2)
   40    60           0.5220286446          14.2051215939      Bg        Bg (4)
   41    16           0.5647220773          15.3668689591      Ag        Ag (1)
   42    46           0.5756668213          15.6646905860      Bu        Bu (3)
   43    17           0.6217187709          16.9178278409      Ag        Ag (1)
   44    47           0.6255961230          17.0233359567      Bu        Bu (3)
   45    18           0.6588663883          17.9286659010      Ag        Ag (1)
   46    48           0.6602031265          17.9650403969      Bu        Bu (3)
   47    49           0.6782843581          18.4570557238      Bu        Bu (3)
   48    19           0.6944818938          18.8978130778      Ag        Ag (1)
   49    50           0.7055512125          19.1990245526      Bu        Bu (3)
   50    20           0.7400538289          20.1378884749      Ag        Ag (1)
   51    21           0.8029959230          21.8506299302      Ag        Ag (1)
   52    51           0.8249839028          22.4489532789      Bu        Bu (3)
   53    22           0.8601684133          23.4063724839      Ag        Ag (1)
   54    52           0.8888303224          24.1863026814      Bu        Bu (3)
   55    53           0.9211937737          25.0669569616      Bu        Bu (3)
   56    23           0.9397359379          25.5715149020      Ag        Ag (1)
   57    24           0.9902873613          26.9470890649      Ag        Ag (1)
   58    54           1.0271322493          27.9496894383      Bu        Bu (3)
   59    25           1.1082800355          30.1578329605      Ag        Ag (1)
   60    55           1.1252942475          30.6208132052      Bu        Bu (3)


  VSCF finished.

 @CHECKOUT-I, Total execution time (CPU/WALL):        0.07/       0.07 seconds.
--executable xvscf finished with status     0 in        0.08 seconds (walltime).
  The final electronic energy is      -379.769106957917415 a.u. 
  This computation required                            0.84 seconds (walltime).
