Intel(R) Parallel Studio XE 2019 Update 4 for Linux*
Copyright (C) 2009-2019 Intel Corporation. All rights reserved.
 --invoking executable--
/ihome/kjordan/srs215/software/cfour/cfour-public/bin/xjoda


   *************************************************************************
         <<<     CCCCCC     CCCCCC   |||     CCCCCC     CCCCCC   >>>
       <<<      CCC        CCC       |||    CCC        CCC         >>>
      <<<      CCC        CCC        |||   CCC        CCC            >>>
    <<<        CCC        CCC        |||   CCC        CCC              >>>
      <<<      CCC        CCC        |||   CCC        CCC            >>>
       <<<      CCC        CCC       |||    CCC        CCC         >>>
         <<<     CCCCCC     CCCCCC   |||     CCCCCC     CCCCCC   >>>
   *************************************************************************

     ****************************************************************
     * CFOUR Coupled-Cluster techniques for Computational Chemistry *
     ****************************************************************
 

   Department of Chemistry                Institut fuer Physikalische Chemie
   University of Florida                  Universitaet Mainz
   Gainesville, FL 32611, USA             D-55099 Mainz, Germany

   Department of Chemistry                Fakultaet fuer Chemie und Biowiss.
   Johns Hopkins University               Karlsruher Institut fuer Technologie
   Baltimore, MD 21218, USA               D-76131 Karlsruhe, Germany

   Department of Chemistry                Department of Physical Chemistry
   Southern Methodist University          Eotvos Lorand University
   Dallas, TX 75275, USA                  H-1053 Budapest, Hungary

 
                       Version 2.1
 
                     smp-n218.crc.pitt.edu                             
                     Mon Apr  7 22:26:32 EDT 2025                      
                     integer*8 version is running
 
********************************************************************************
*                          Input from ZMAT file                                *
********************************************************************************
DVB RHF/STO-3G IR                                                               
C                                                                               
C 1 R0                                                                          
C 1 R1 2 A1                                                                     
C 2 R1 1 A1 3 D1                                                                
C 1 R2 2 A2 3 D1                                                                
C 2 R2 1 A2 4 D1                                                                
C 1 R3 3 A3 5 D1                                                                
C 2 R3 4 A3 6 D1                                                                
C 7 R4 1 A4 5 D1                                                                
C 8 R4 2 A4 6 D1                                                                
H 3 R5 1 A5 5 D1                                                                
H 4 R5 2 A5 6 D1                                                                
H 5 R6 1 A6 3 D1                                                                
H 6 R6 2 A6 4 D1                                                                
H 7 R7 1 A7 3 D1                                                                
H 8 R7 2 A7 4 D1                                                                
H 9 R8 7 A8 1 D1                                                                
H 10 R8 8 A8 2 D1                                                               
H 9 R9 7 A9 15 D1                                                               
H 10 R9 8 A9 16 D1                                                              
                                                                                
R0   =        2.822858222599144                                                 
R1   =        1.395256407516784                                                 
A1   =       59.069028432127148                                                 
D1   =      180.000000000000000                                                 
R2   =        1.396070248713247                                                 
A2   =       58.773175565027060                                                 
R3   =        1.496137730754037                                                 
A3   =      122.989600380950151                                                 
R4   =        1.313625350789681                                                 
A4   =      126.862304835457394                                                 
R5   =        1.081334917933385                                                 
A5   =      120.070716802037310                                                 
R6   =        1.082592911761922                                                 
A6   =      119.235833924419893                                                 
R7   =        1.084408222796143                                                 
A7   =      114.171203742421142                                                 
R8   =        1.081144453382197                                                 
A8   =      121.276692243038440                                                 
R9   =        1.080417230871380                                                 
A9   =      123.120876152810638                                                 
                                                                                
*ACES2(CALC=SCF                                                                 
COORDINATES=INTERNAL                                                            
BASIS=STO-3G                                                                    
VIB=EXACT                                                                       
REF=RHF                                                                         
PRINT=1                                                                         
CHARGE=0                                                                        
MULTIPLICITY=1)                                                                 
                                                                                
********************************************************************************
    -------------------------------------------------------------------
                    CFOUR Control Parameters 
    -------------------------------------------------------------------
        External           Internal           Value            Units
          Name               Name
    -------------------------------------------------------------------
       ABCDTYPE             IABCDT         STANDARD    [  0]    ***   
       ANHARMONIC           IANHAR         OFF         [  0]    ***   
       ANH_ALGORIT          IANALG         STANDARD    [  0]    ***   
       ANH_DERIVAT          IANDER         SECOND      [  1]    ***   
       ANH_MODE             ANHMOD         VIBRATION   [  0]    ***   
       ANH_STEPSIZ          ICUBST             50000          x 10-6  
       ANH_SYMMETR          IANHSM         ABELIAN     [  0]    ***   
       AO_LADDERS           IAOLAD         SINGLEPASS  [  1]    ***   
       AV_SCF               IAVSCF         OFF         [  0]    ***   
       BASIS                IBASIS         STO-3G      [  2]    ***   
       BOTHVECTORS          BOTHVC         OFF         [  0]    ***   
       BOX_POTENT           IPIAB          OFF         [  0]    ***   
       BREIT                IBREIT         OFF         [  0]    ***   
       BRUCK_CONV           IBRTOL          10D-  4             ***   
       BRUECKNER            IBRKNR         OFF         [  0]    ***   
       BUFFERSIZE           IBUFFS              4096            ***   
       CACHE_RECS           ICHREC             10               ***   
       CALCLEVEL            ICLLVL         SCF         [  0]    ***   
       CCORBOPT             ICCORB         OFF         [  0]  x 0.01  
       CC_CONV              ICCCNV          10D-  7             ***   
       CC_EXPORDER          ICCEOR              0               ***   
       CC_EXTRAPOL          ICCEXT         DIIS        [  1]    ***   
       CC_GUESS             ICCGES         MP2         [  0]    ***   
       CC_MAXCYC            ICCCYC              0              cycles 
       CC_PROGRAM           ICCPRO         VCC         [  0]    ***   
       CHARGE               ICHRGE              0               ***   
       CHOLESKY             ICHOLE         OFF         [  0]    ***   
       CIS_CONV             ICISTL              5               ***   
       COMM_SIZE            IPSIZE            ***               ***   
       CONSTANT             ICONST         OLD         [  1]    ***   
       CONTINUUM            ICONTU         NONE        [  0]    ***   
       CONTRACTION          ICNTYP         GENERAL     [  1]    ***   
       COORDINATES          ICOORD         INTERNAL    [  0]    ***   
       CPHF_CONVER          ICPHFT          10D- 16             ***   
       CPHF_MAXCYC          ICPHFC             64              cycles 
       CUBIC                ICUBIC         OFF         [  0]    ***   
       CURVILINEAR          ICURVY         OFF         [  0]    ***   
       DBOC                 IDBOC          OFF         [  0]    ***   
       DCT                  IDCT           OFF         [  0]    ***   
       DERIV_LEV            IDRLVL         SECOND      [  2]    ***   
       DEVMEM_SIZE          IDVMEM          50000000           MByte  
       DIAG_MRCC            IEOMST          10D-  0             ***   
       DIFF_TYPE            IDIFTY         RELAXED     [  0]    ***   
       DIRECT               IDIRCT         OFF         [  0]    ***   
       DROPMO               IDRPMO      NONE         
       ECP                  IECP           OFF         [  0]    ***   
       EIGENVECTOR          IVEC                1               ***   
       EL_ANHARM            IELANH         OFF         [  0]    ***   
       EOMFOLLOW            IEOMSR         ENERGY      [  0]    ***   
       EOMIP                IEOMIP         OFF         [  0]    ***   
       EOMLEVEL             HBARFM         SAME        [  0]    ***   
       EOM_MRCC             IMRCCE         NEW         [  1]    ***   
       EOM_NONIT            EOMNON         OFF         [  0]    ***   
       EOM_NSING            IEOMSI          10D-  0             ***   
       EOM_NSTATES          IMRCCD         DAVIDSON    [  0]    ***   
       EOM_NTRIP            IEOMTR          10D-  0             ***   
       EOM_ORDER            IEXORD         ENERGY      [  0]    ***   
       EOM_PROPSTA          IEOMST              0               ***   
       ESTATE_CONV          IEXTOL          10D-  5             ***   
       ESTATE_DIAG          IEXDIG         ITERATIVE   [  0]    ***   
       ESTATE_LOCK          IESLOC         ON          [  1]    ***   
       ESTATE_MAXC          IEXMXC             40               ***   
       ESTATE_PROP          IEXPRP         OFF         [  0]    ***   
       EVAL_HESS            IRECAL              0            # of cyc.
       EXCITATION           IEXCIT              0               ***   
       EXCITE               IEXCIT         NONE        [  0]    ***   
       EXTERN_POT           IEXPOT         OFF         [  0]    ***   
       FCGRADNEW            IFCGNW         OFF         [  0]    ***   
       FC_FIELD             IFINFC              0             x 10-6  
       FD_CALTYPE           IFDCAL         GRADONLY    [  0]    ***   
       FD_PROJECT           IFDPRJ         OFF         [  1]    ***   
       FD_STEPSIZE          IDISFD              0            10-4 bohr
       FD_USEGROUP          IFDGRP         FULL        [  0]    ***   
       FILE_RECSIZ          IFLREC              4096           words  
       FINITE_PERT          IFIPER              0             x 10-6  
       FIXGEOM              IFIXGM         OFF         [  0]    ***   
       FOCK                 IFOCK          AO          [  1]    ***   
       FREQ_ALGORI          IVIALG         STANDARD    [  0]    ***   
       FROZEN_CORE          IFROCO         OFF         [  0]    ***   
       GAMMA_ABCD           IGABCD         STORE       [  0]    ***   
       GAMMA_ABCI           IGABCI         STORE       [  0]    ***   
       GENBAS_1             IGNBS1              0               ***   
       GENBAS_2             IGNBS2              0               ***   
       GENBAS_3             IGNBS3              0               ***   
       GENBAS_4             IGNBS4              0               ***   
       GEO_CONV             ICONTL              5              H/bohr 
       GEO_MAXCYC           IOPTCY             50               ***   
       GEO_MAXSTEP          IMXSTP            300            millibohr
       GEO_METHOD           INR            SINGLE_POINT[  5]    ***   
       GIAO                 IGIAO          OFF         [  1]    ***   
       GIMIC                IGIMIC         OFF         [  0]    ***   
       GRID                 IGRID          OFF         [  0]    ***   
       GRID_ALGO            IGALGO         SERIAL      [  0]    ***   
       GUESS                IGUESS         MOREAD      [  0]    ***   
       HBAR                 IHBAR          OFF         [  0]    ***   
       HESS_TYPE            IHESTP         SCF         [  0]    ***   
       HF2_FILE             IHF2Fl         USE         [  1]    ***   
       HFSTABILITY          ISTABL         OFF         [  0]    ***   
       INCORE               INCORE         OFF         [  0]    ***   
       INPUT_MRCC           IMRCC          ON          [  1]    ***   
       INTEGRALS            INTTYP         VMOL        [  1]    ***   
       JODA_PRINT           IJPRNT              0               ***   
       KEYWORD_OUT          IDMPKW         NO          [  0]    ***   
       LINDEP_TOL           ILINDP              8               ***   
       LINEQ_CONV           IZTACN          10D-  7           cycles  
       LINEQ_EXPOR          ILMAXD              5               ***   
       LINEQ_MAXCY          ILMAXC            100               ***   
       LINEQ_TYPE           ILTYPE         DIIS        [  1]    ***   
       LOCK_ORBOCC          ILOCOC         OFF         [  0]    ***   
       MEMORY_SIZE          IMEMSZ         100000000           words  
       MEM_UNIT             IMEMU          INTEGERWORDS[  0]    ***   
       MRCC                 IMRCCC         OFF         [  0]    ***   
       MULTIPLICTY          IMULTP              1               ***   
       NACOUPLING           IVCOUP         OFF         [  0]    ***   
       NEGEVAL              IDIE           ABORT       [  0]    ***   
       NEWNORM              INEWNO         OFF         [  0]    ***   
       NON-HF               INONHF         OFF         [  0]    ***   
       NTOP_TAMP            ITOPT2             15               ***   
       NUC_MODEL            INUCMO         POINT       [  0]    ***   
       OCCUPATION           IOCCU   ESTIMATED BY SCF 
       OPEN-SHELL           IOPEN          SPIN-ORBITAL[  0]    ***   
       OPTVIB               IOPTVB         OFF         [  0]    ***   
       ORBITALS             IORBTP         STANDARD    [  0]    ***   
       PARALLEL             IPARAL         ON          [  1]    ***   
       PARA_INT             IPINTS         ON          [  1]    ***   
       PARA_PRINT           IPPRIN              0               ***   
       PERT_ORB             IPTORB         STANDARD    [  0]    ***   
       POINTS               IGRDFD              0               ***   
       PRINT                IPRNT               1               ***   
       PROPS                IPROPS         OFF         [  0]    ***   
       PROP_INTEGR          IINTYP         INTERNAL    [  0]    ***   
       PSI                  IPSI           OFF         [  0]    ***   
       QC_ALG               IQCALG         FLM         [  0]    ***   
       QC_LINALG            IQCLIN         TRIDIAG     [  2]    ***   
       QC_MAXCYC            IQCMAX          10D-100           cycles  
       QC_MAXSCFCY          IQCMSC          10D- 15           cycles  
       QC_RTRUST            IQCRTR          10D-  0           x 10-3  
       QC_SKIPSCF           IQCSKI         OFF         [  0]    ***   
       QC_START             IQCSTA          10D-  1             ***   
       QRHFGUESS            IQGUES         OFF         [  0]    ***   
       QUARTIC              IQUART         OFF         [  0]    ***   
       RAMAN_INT            IRAMIN         OFF         [  0]    ***   
       RAMAN_ORB            IRAMRE         UNRELAXED   [  0]    ***   
       RDO                  IRDOFM         OFF         [  0]    ***   
       REDUCE_REPR          REDREP         Ir          [  0]    ***   
       REFERENCE            IREFNC         RHF         [  0]    ***   
       RELATIVIST           IRELAT         OFF         [  0]    ***   
       RELAX_DENS           IRDENS         OFF         [  0]    ***   
       RESET_FLAGS          IRESET         OFF         [  0]    ***   
       RESTART_CC           ICCRES         OFF         [  0]    ***   
       ROT_EVEC             ROTVEC              0               ***   
       SAVE_INTS            ISVINT         OFF         [  0]    ***   
       SCALE_ON             ISTCRT              0               ***   
       SCF_CONV             ISCFCV          10D-  7             ***   
       SCF_DAMPING          IDAMP               0             x 10-3  
       SCF_EXPORDE          IRPPOR              6               ***   
       SCF_EXPSTAR          IRPPLS              8               ***   
       SCF_EXTRAPO          IRPP           ON          [  1]    ***   
       SCF_MAXCYC           ISCFCY            150              cycles 
       SCF_NOSTOP           ISCFST         OFF         [  0]    ***   
       SCF_PRINT            ISCFPR              0               ***   
       SCF_PROG             ISCFPR         SCF         [  0]    ***   
       SD_FIELD             IFINSD              0             x 10-6  
       SOPERT               IPERSO         OFF         [  0]    ***   
       SPHERICAL            IDFGHI         ON          [  1]    ***   
       SPINORBIT            ISOCAL         OFF         [  0]    ***   
       SPINROTATIO          ISRCON         OFF         [  0]    ***   
       SPIN_FLIP            ISPFLP         OFF         [  0]    ***   
       SPIN_ORBIT           ISPORB         OFF         [  0]    ***   
       SPIN_SCAL            ISCSMP         OFF         [  0]    ***   
       STEEPSCALE           ISTPSC              1000          x 10-3  
       SUBGROUP             ISUBGP         DEFAULT     [  0]    ***   
       SUBGRPAXIS           ISBXYZ         X           [  0]    ***   
       SYMMETRY             ISYM           ON          [  0]    ***   
       SYM_CHECK            ISYMCK         OVERRIDE    [  1]    ***   
       T3_EXTRAPOL          IT3EXT         OFF         [  0]    ***   
       T4_EXTRAPOL          IT4EXP         OFF         [  0]    ***   
       TAMP_SUM             IEVERY              0               ***   
       TESTSUITE            ITESTS         OFF         [  0]    ***   
       THERMOCH             ITHERM         ON          [  1]    ***   
       TOL_CHOLESK          ITOLCH          10D-  4             ***   
       TRANGRAD             IRESRM         OFF         [  0]    ***   
       TRANS_INV            ITRAIN         USE         [  0]    ***   
       TREAT_PERT           ITREAT         SIMULTANEOUS[  0]    ***   
       TRIP_ALGORI          ITRALG         NORMAL      [  0]    ***   
       UIJ_THRESHO          IUIJTH              1               ***   
       UNITS                IUNITS         ANGSTROM    [  0]    ***   
       UNOS                 IUNOS          OFF         [  0]    ***   
       UPDATE_HESS          IHUPDT         ON          [  1]    ***   
       VIBPHASE             ISETPH         STANDARD    [  0]    ***   
       VIBRATION            IVIB           ANALYTIC    [  1]    ***   
       VIB_ALGORIT          IGEALG         STANDARD    [  0]    ***   
       VNATORB              IVNORB         OFF         [  0]    ***   
       VTRAN                IVTRAN         FULL/PARTIAL[  0]    ***   
       XFIELD               IXEFLD              0             x 10-6  
       XFORM_TOL            IXFTOL          10D- 11             ***   
       YFIELD               IYEFLD              0             x 10-6  
       ZFIELD               IZEFLD              0             x 10-6  
       ZSCALE_EXP           IZEXPS         OFF         [  0]    ***   
    -------------------------------------------------------------------
  20 entries found in Z-matrix 
   Job Title : DVB RHF/STO-3G IR                                                               
   There are 20 unique internal coordinates.
   Of these,  0 will be optimized.
   User supplied Z-matrix: 
--------------------------------------------------------------------------------
       SYMBOL    BOND      LENGTH    ANGLE     ANGLE     DIHED     ANGLE
                  TO      (ANGST)    WRT      (DEG)      WRT      (DEG)
--------------------------------------------------------------------------------
        C    
        C          1         R0   
        C          1         R1         2        A1   
        C          2         R1         1        A1         3        D1   
        C          1         R2         2        A2         3        D1   
        C          2         R2         1        A2         4        D1   
        C          1         R3         3        A3         5        D1   
        C          2         R3         4        A3         6        D1   
        C          7         R4         1        A4         5        D1   
        C          8         R4         2        A4         6        D1   
        H          3         R5         1        A5         5        D1   
        H          4         R5         2        A5         6        D1   
        H          5         R6         1        A6         3        D1   
        H          6         R6         2        A6         4        D1   
        H          7         R7         1        A7         3        D1   
        H          8         R7         2        A7         4        D1   
        H          9         R8         7        A8         1        D1   
        H         10         R8         8        A8         2        D1   
        H          9         R9         7        A9        15        D1   
        H         10         R9         8        A9        16        D1   
                  *Initial values for internal coordinates* 
                      Name             Value
                        R0              2.8228582226
                        R1              1.3952564075
                        A1             59.0690284321
                        D1            180.0000000000
                        R2              1.3960702487
                        A2             58.7731755650
                        R3              1.4961377308
                        A3            122.9896003810
                        R4              1.3136253508
                        A4            126.8623048355
                        R5              1.0813349179
                        A5            120.0707168020
                        R6              1.0825929118
                        A6            119.2358339244
                        R7              1.0844082228
                        A7            114.1712037424
                        R8              1.0811444534
                        A8            121.2766922430
                        R9              1.0804172309
                        A9            123.1208761528
--------------------------------------------------------------------------------
   Rotational constants (in cm-1): 
          0.0203857526             0.0233612540             0.1600525997
   Rotational constants (in MHz): 
        611.1495726287           700.3528748339          4798.2568981501
********************************************************************************
   The full molecular point group is C2h .
   The largest Abelian subgroup of the full molecular point group is C2h .
   The computational point group is C2h .
********************************************************************************
--------------------------------------------------------------------------------
   Analysis of internal coordinates specified by Z-matrix 
--------------------------------------------------------------------------------
   *The nuclear repulsion energy is  452.119776734075117 a.u.
   *There are  19 degrees of freedom within the tot. symm. molecular subspace.
   *Z-matrix requests optimization of   0 coordinates.
   *The optimization is constrained.
   *The following  19 parameters can have non-zero 
    derivatives within the totally symmetric subspace:
             A6   [32]  A8   [47]  A5   [26]  A7   [41]  R9   [52]  A9   [50]
             R8   [43]  R7   [40]  A3   [14]  R5   [25]  R6   [34]  R2   [10]
             R1   [ 2]  R4   [19]  A4   [20]  R3   [13]  A2   [11]  A1   [ 3]
             R0   [ 1]
   *The following   0 parameters are to be optimized:

   *The following coordinates must be varied in an  unconstrained optimization.
             A6   [32]  A8   [47]  A5   [26]  A7   [41]  R9   [52]  A9   [50]
             R8   [43]  R7   [40]  A3   [14]  R5   [25]  R6   [34]  R2   [10]
             R1   [ 2]  R4   [19]  A4   [20]  R3   [13]  A2   [11]  A1   [ 3]
             R0   [ 1]
--------------------------------------------------------------------------------


 ----------------------------------------------------------------
         Coordinates used in calculation (QCOMP) 
 ----------------------------------------------------------------
 Z-matrix   Atomic            Coordinates (in bohr)
  Symbol    Number           X              Y              Z
 ----------------------------------------------------------------
     C         6         2.63251022     0.42886586    -0.00000000
     C         6        -2.63251022    -0.42886586     0.00000000
     C         6         1.65855177    -2.02130641     0.00000000
     C         6        -1.65855177     2.02130641    -0.00000000
     C         6         0.91985406     2.43556975    -0.00000000
     C         6        -0.91985406    -2.43556975     0.00000000
     C         6         5.40488233     0.98341802    -0.00000000
     C         6        -5.40488233    -0.98341802     0.00000000
     C         6         7.25468917    -0.67202392     0.00000000
     C         6        -7.25468917     0.67202392    -0.00000000
     H         1         2.92365772    -3.62601883     0.00000000
     H         1        -2.92365772     3.62601883    -0.00000000
     H         1         1.62909727     4.35449921    -0.00000000
     H         1        -1.62909727    -4.35449921     0.00000000
     H         1         5.86097010     2.98125384    -0.00000000
     H         1        -5.86097010    -2.98125384     0.00000000
     H         1         9.20955392    -0.07819905     0.00000000
     H         1        -9.20955392     0.07819905     0.00000000
     H         1         6.94567284    -2.69019626     0.00000000
     H         1        -6.94567284     2.69019626    -0.00000000
 ----------------------------------------------------------------
 
  Original Center of Mass Coordinates (QCOM) 
         0.00000000000000        -0.00000000000000        -2.66721502366518
         0.00000000000000        -0.00000000000000         2.66721502366518
         2.26168717974303        -0.00000000000000        -1.31196215595841
        -2.26168717974303        -0.00000000000000         1.31196215595841
        -2.25597419017592        -0.00000000000000        -1.29950450348294
         2.25597419017592        -0.00000000000000         1.29950450348294
        -0.10156229397574         0.00000000000000        -5.49268141669408
         0.10156229397574         0.00000000000000         5.49268141669408
         1.82977311603632         0.00000000000000        -7.05223804290918
        -1.82977311603632         0.00000000000000         7.05223804290918
         4.04893813406455        -0.00000000000000        -2.30258269017592
        -4.04893813406455         0.00000000000000         2.30258269017592
        -4.03589488419213        -0.00000000000000        -2.30806710656961
         4.03589488419212        -0.00000000000000         2.30806710656961
        -2.00006791837921        -0.00000000000000        -6.26407002728144
         2.00006791837921        -0.00000000000000         6.26407002728144
         1.55800077140346         0.00000000000000        -9.07714889870512
        -1.55800077140346         0.00000000000000         9.07714889870512
         3.77199851342940         0.00000000000000        -6.42273728984259
        -3.77199851342940         0.00000000000000         6.42273728984259
 
  Transformation matrix between QCOM and QCOMP (OMAT) 
  (QCOM = OMAT * QCOMP, where Q is stored 3 x NATOMS)
         0.16079163388261         0.00000000000000        -0.98698837403151
        -0.98698837403151         0.00000000000000        -0.16079163388261
         0.00000000000000         1.00000000000000         0.00000000000000
  test:  OMAT * QCOMP = 
        -0.00000000000000         0.00000000000000        -2.66721502366518
         0.00000000000000        -0.00000000000000         2.66721502366518
         2.26168717974303         0.00000000000000        -1.31196215595841
        -2.26168717974303        -0.00000000000000         1.31196215595841
        -2.25597419017592        -0.00000000000000        -1.29950450348294
         2.25597419017592        -0.00000000000000         1.29950450348294
        -0.10156229397574         0.00000000000000        -5.49268141669408
         0.10156229397574        -0.00000000000000         5.49268141669408
         1.82977311603632         0.00000000000000        -7.05223804290918
        -1.82977311603632        -0.00000000000000         7.05223804290918
         4.04893813406455         0.00000000000000        -2.30258269017592
        -4.04893813406455        -0.00000000000000         2.30258269017592
        -4.03589488419213        -0.00000000000000        -2.30806710656961
         4.03589488419213        -0.00000000000000         2.30806710656961
        -2.00006791837921         0.00000000000000        -6.26407002728144
         2.00006791837921        -0.00000000000000         6.26407002728144
         1.55800077140345         0.00000000000000        -9.07714889870512
        -1.55800077140345        -0.00000000000000         9.07714889870512
         3.77199851342940         0.00000000000000        -6.42273728984259
        -3.77199851342940        -0.00000000000000         6.42273728984259
 
   Interatomic distance matrix (Angstroms) 
 
                 C             C             C             C             C    
                [ 1]        [ 2]        [ 3]        [ 4]        [ 5]
  C    [ 1]     0.00000
  C    [ 2]     2.82286     0.00000
  C    [ 3]     1.39526     2.42205     0.00000
  C    [ 4]     2.42205     1.39526     2.76724     0.00000
  C    [ 5]     1.39607     2.41483     2.39065     1.38193     0.00000
  C    [ 6]     2.41483     1.39607     1.38193     2.39065     2.75541
  C    [ 7]     1.49614     4.31837     2.54134     3.77794     2.49468
  C    [ 8]     4.31837     1.49614     3.77794     2.54134     3.80462
  C    [ 9]     2.51437     5.23366     3.04621     4.92732     3.73388
  C    [10]     5.23366     2.51437     4.92732     3.04621     4.42530
  H    [11]     2.15128     3.39222     1.08134     3.84843     3.37838
  H    [12]     3.39222     2.15128     3.84843     1.08134     2.12922
  H    [13]     2.14414     3.39012     3.37397     2.13334     1.08259
  H    [14]     3.39012     2.14414     2.13334     3.37397     3.83798
  H    [15]     2.17785     4.84329     3.45735     4.01145     2.63062
  H    [16]     4.84329     2.17785     4.01145     3.45735     4.59262
  H    [17]     3.49075     6.26930     4.12600     5.85748     4.58397
  H    [18]     6.26930     3.49075     5.85748     4.12600     5.50350
  H    [19]     2.81669     5.20790     2.82013     5.19109     4.18632
  H    [20]     5.20790     2.81669     5.19109     2.82013     4.16444
 
                 C             C             C             C             C    
                [ 6]        [ 7]        [ 8]        [ 9]        [10]
  C    [ 6]     0.00000
  C    [ 7]     3.80462     0.00000
  C    [ 8]     2.49468     5.81420     0.00000
  C    [ 9]     4.42530     1.31363     6.70118     0.00000
  C    [10]     3.73388     6.70118     1.31363     7.71090     0.00000
  H    [11]     2.12922     2.77015     4.62381     2.77422     5.84668
  H    [12]     3.37838     4.62381     2.77015     5.84668     2.77422
  H    [13]     3.83798     2.67853     4.67267     3.99216     5.08898
  H    [14]     1.08259     4.67267     2.67853     5.08898     3.99216
  H    [15]     4.59262     1.08441     6.32003     2.06914     7.04726
  H    [16]     2.63062     6.32003     1.08441     7.04726     2.06914
  H    [17]     5.50350     2.09025     7.74845     1.08114     8.72154
  H    [18]     4.58397     7.74845     2.09025     8.72154     1.08114
  H    [19]     4.16444     2.10806     6.59774     1.08042     7.72227
  H    [20]     4.18632     6.59774     2.10806     7.72227     1.08042
 
                 H             H             H             H             H    
                [11]        [12]        [13]        [14]        [15]
  H    [11]     0.00000
  H    [12]     4.92968     0.00000
  H    [13]     4.27831     2.43986     0.00000
  H    [14]     2.43986     4.27831     4.92057     0.00000
  H    [15]     3.82635     4.66113     2.35437     5.54790     0.00000
  H    [16]     4.66113     3.82635     5.54790     2.35437     6.95934
  H    [17]     3.81960     6.71317     4.64689     6.16584     2.40023
  H    [18]     6.71317     3.81960     6.16584     4.64689     8.12159
  H    [19]     2.18521     6.20060     4.67038     4.62225     3.05560
  H    [20]     6.20060     2.18521     4.62225     4.67038     6.77873
 
                 H             H             H             H             H    
                [16]        [17]        [18]        [19]        [20]
  H    [16]     0.00000
  H    [17]     8.12159     0.00000
  H    [18]     2.40023     9.74732     0.00000
  H    [19]     6.77873     1.82912     8.67359     0.00000
  H    [20]     3.05560     8.67359     1.82912     7.88311     0.00000
 rotcon2
   Rotational constants (in cm-1): 
          0.1600525997             0.0233612540             0.0203857526
   Rotational constants (in MHz): 
       4798.2568981501           700.3528748339           611.1495726287
  GENBAS file not present.   Using default GENBAS. 
 --invoking executable--
/ihome/kjordan/srs215/software/cfour/cfour-public/bin/set_genbas
--executable set_genbas finished with status     0 in        0.07 seconds (walltime).
  ECPDATA file not present.   Using default ECPDATA. 
  There are   60 basis functions.
 @CHECKOUT-I, Total execution time (CPU/WALL):        0.07/       0.57 seconds.
--executable xjoda finished with status     0 in        0.71 seconds (walltime).
 --invoking executable--
/ihome/kjordan/srs215/software/cfour/cfour-public/bin/xvmol
 SERIAL VERSION OF MOLECULE STARTED
********************************************************************************
                    INPUT FROM MOL FILE
********************************************************************************
INTGRL        1    0    1    0    0    0    0    0    0                         
         *** CFOUR Program System (Release V0.1) ***                            
DVB RHF/STO-3G IR                                                               
   10    2 Z  XY      0.10E-08              0    0                              
   9999.00      3.00                                                            
          6.00000000    1    2    1    1                                        
C #1   2.632510219399707   0.428865861571380  -0.000000000000001                
    6    2                                                                      
   71.6168373000000       0.154329000000000       0.000000000000000E+000        
   13.0450963000000       0.535328100000000       0.000000000000000E+000        
   3.53051220000000       0.444634500000000       0.000000000000000E+000        
   2.94124940000000       0.000000000000000E+000 -9.996720000000001E-002        
  0.683483100000000       0.000000000000000E+000  0.399512800000000             
  0.222289900000000       0.000000000000000E+000  0.700115500000000             
    3    1                                                                      
   2.94124940000000       0.155916300000000                                     
  0.683483100000000       0.607683700000000                                     
  0.222289900000000       0.391957400000000                                     
          6.00000000    1    2    1    1                                        
C #2   1.658551772062509  -2.021306413453773   0.000000000000002                
    6    2                                                                      
   71.6168373000000       0.154329000000000       0.000000000000000E+000        
   13.0450963000000       0.535328100000000       0.000000000000000E+000        
   3.53051220000000       0.444634500000000       0.000000000000000E+000        
   2.94124940000000       0.000000000000000E+000 -9.996720000000001E-002        
  0.683483100000000       0.000000000000000E+000  0.399512800000000             
  0.222289900000000       0.000000000000000E+000  0.700115500000000             
    3    1                                                                      
   2.94124940000000       0.155916300000000                                     
  0.683483100000000       0.607683700000000                                     
  0.222289900000000       0.391957400000000                                     
          6.00000000    1    2    1    1                                        
C #3   0.919854060903859   2.435569750171619  -0.000000000000004                
    6    2                                                                      
   71.6168373000000       0.154329000000000       0.000000000000000E+000        
   13.0450963000000       0.535328100000000       0.000000000000000E+000        
   3.53051220000000       0.444634500000000       0.000000000000000E+000        
   2.94124940000000       0.000000000000000E+000 -9.996720000000001E-002        
  0.683483100000000       0.000000000000000E+000  0.399512800000000             
  0.222289900000000       0.000000000000000E+000  0.700115500000000             
    3    1                                                                      
   2.94124940000000       0.155916300000000                                     
  0.683483100000000       0.607683700000000                                     
  0.222289900000000       0.391957400000000                                     
          6.00000000    1    2    1    1                                        
C #4   5.404882333346744   0.983418022780942  -0.000000000000001                
    6    2                                                                      
   71.6168373000000       0.154329000000000       0.000000000000000E+000        
   13.0450963000000       0.535328100000000       0.000000000000000E+000        
   3.53051220000000       0.444634500000000       0.000000000000000E+000        
   2.94124940000000       0.000000000000000E+000 -9.996720000000001E-002        
  0.683483100000000       0.000000000000000E+000  0.399512800000000             
  0.222289900000000       0.000000000000000E+000  0.700115500000000             
    3    1                                                                      
   2.94124940000000       0.155916300000000                                     
  0.683483100000000       0.607683700000000                                     
  0.222289900000000       0.391957400000000                                     
          6.00000000    1    2    1    1                                        
C #5   7.254689168216033  -0.672023915194753   0.000000000000002                
    6    2                                                                      
   71.6168373000000       0.154329000000000       0.000000000000000E+000        
   13.0450963000000       0.535328100000000       0.000000000000000E+000        
   3.53051220000000       0.444634500000000       0.000000000000000E+000        
   2.94124940000000       0.000000000000000E+000 -9.996720000000001E-002        
  0.683483100000000       0.000000000000000E+000  0.399512800000000             
  0.222289900000000       0.000000000000000E+000  0.700115500000000             
    3    1                                                                      
   2.94124940000000       0.155916300000000                                     
  0.683483100000000       0.607683700000000                                     
  0.222289900000000       0.391957400000000                                     
          1.00000000    1    1    1                                             
H #6   2.923657723515690  -3.626018832591327   0.000000000000004                
    3    1                                                                      
   3.42525090000000       0.154329000000000                                     
  0.623913700000000       0.535328100000000                                     
  0.168855400000000       0.444634500000000                                     
          1.00000000    1    1    1                                             
H #7   1.629097268061014   4.354499210686912  -0.000000000000006                
    3    1                                                                      
   3.42525090000000       0.154329000000000                                     
  0.623913700000000       0.535328100000000                                     
  0.168855400000000       0.444634500000000                                     
          1.00000000    1    1    1                                             
H #8   5.860970102573622   2.981253837155372  -0.000000000000004                
    3    1                                                                      
   3.42525090000000       0.154329000000000                                     
  0.623913700000000       0.535328100000000                                     
  0.168855400000000       0.444634500000000                                     
          1.00000000    1    1    1                                             
H #9   9.209553921999195  -0.078199045688763   0.000000000000001                
    3    1                                                                      
   3.42525090000000       0.154329000000000                                     
  0.623913700000000       0.535328100000000                                     
  0.168855400000000       0.444634500000000                                     
          1.00000000    1    1    1                                             
H #0   6.945672838510375  -2.690196256786369   0.000000000000005                
    3    1                                                                      
   3.42525090000000       0.154329000000000                                     
  0.623913700000000       0.535328100000000                                     
  0.168855400000000       0.444634500000000                                     
FINISH                                                                          
 
********************************************************************************
 ONE- AND TWO-ELECTRON INTEGRALS OVER SYMMETRY-ADAPTED AOS ARE CALCULATED.

  SPHERICAL HARMONICS ARE USED.
  
  10 TYPES OF ATOMS
   2 SYMMETRY OPERATIONS

   REFLECTION IN THE XY-PLANE
   ROTATION ABOUT THE Z-AXIS
  
  INTEGRALS LESS THAN  0.10E-13 ARE NEGLECTED.

  ATOMIC TYPE NUMBER  1 :
  -----------------------

    NUCLEAR CHARGE:                        6
    NUMBER OF SYMMETRY INDEPENDENT ATOMS:  1
    HIGHEST ORBITAL TYPE:                  P

      1 GROUPS OF CGTOS OF S TYPE
      1 GROUPS OF CGTOS OF P TYPE

    NUCLEAR COORDINATES (IN A.U.) ARE :

    C #1        2.632510219399707        0.428865861571380       -0.000000000000001
  
  ATOMIC TYPE NUMBER  2 :
  -----------------------

    NUCLEAR CHARGE:                        6
    NUMBER OF SYMMETRY INDEPENDENT ATOMS:  1
    HIGHEST ORBITAL TYPE:                  P

      1 GROUPS OF CGTOS OF S TYPE
      1 GROUPS OF CGTOS OF P TYPE

    NUCLEAR COORDINATES (IN A.U.) ARE :

    C #2        1.658551772062509       -2.021306413453773        0.000000000000002
  
  ATOMIC TYPE NUMBER  3 :
  -----------------------

    NUCLEAR CHARGE:                        6
    NUMBER OF SYMMETRY INDEPENDENT ATOMS:  1
    HIGHEST ORBITAL TYPE:                  P

      1 GROUPS OF CGTOS OF S TYPE
      1 GROUPS OF CGTOS OF P TYPE

    NUCLEAR COORDINATES (IN A.U.) ARE :

    C #3        0.919854060903859        2.435569750171619       -0.000000000000004
  
  ATOMIC TYPE NUMBER  4 :
  -----------------------

    NUCLEAR CHARGE:                        6
    NUMBER OF SYMMETRY INDEPENDENT ATOMS:  1
    HIGHEST ORBITAL TYPE:                  P

      1 GROUPS OF CGTOS OF S TYPE
      1 GROUPS OF CGTOS OF P TYPE

    NUCLEAR COORDINATES (IN A.U.) ARE :

    C #4        5.404882333346744        0.983418022780942       -0.000000000000001
  
  ATOMIC TYPE NUMBER  5 :
  -----------------------

    NUCLEAR CHARGE:                        6
    NUMBER OF SYMMETRY INDEPENDENT ATOMS:  1
    HIGHEST ORBITAL TYPE:                  P

      1 GROUPS OF CGTOS OF S TYPE
      1 GROUPS OF CGTOS OF P TYPE

    NUCLEAR COORDINATES (IN A.U.) ARE :

    C #5        7.254689168216033       -0.672023915194753        0.000000000000002
  
  ATOMIC TYPE NUMBER  6 :
  -----------------------

    NUCLEAR CHARGE:                        1
    NUMBER OF SYMMETRY INDEPENDENT ATOMS:  1
    HIGHEST ORBITAL TYPE:                  S

      1 GROUPS OF CGTOS OF S TYPE

    NUCLEAR COORDINATES (IN A.U.) ARE :

    H #6        2.923657723515690       -3.626018832591327        0.000000000000004
  
  ATOMIC TYPE NUMBER  7 :
  -----------------------

    NUCLEAR CHARGE:                        1
    NUMBER OF SYMMETRY INDEPENDENT ATOMS:  1
    HIGHEST ORBITAL TYPE:                  S

      1 GROUPS OF CGTOS OF S TYPE

    NUCLEAR COORDINATES (IN A.U.) ARE :

    H #7        1.629097268061014        4.354499210686912       -0.000000000000006
  
  ATOMIC TYPE NUMBER  8 :
  -----------------------

    NUCLEAR CHARGE:                        1
    NUMBER OF SYMMETRY INDEPENDENT ATOMS:  1
    HIGHEST ORBITAL TYPE:                  S

      1 GROUPS OF CGTOS OF S TYPE

    NUCLEAR COORDINATES (IN A.U.) ARE :

    H #8        5.860970102573622        2.981253837155372       -0.000000000000004
  
  ATOMIC TYPE NUMBER  9 :
  -----------------------

    NUCLEAR CHARGE:                        1
    NUMBER OF SYMMETRY INDEPENDENT ATOMS:  1
    HIGHEST ORBITAL TYPE:                  S

      1 GROUPS OF CGTOS OF S TYPE

    NUCLEAR COORDINATES (IN A.U.) ARE :

    H #9        9.209553921999195       -0.078199045688763        0.000000000000001
  
  ATOMIC TYPE NUMBER 10 :
  -----------------------

    NUCLEAR CHARGE:                        1
    NUMBER OF SYMMETRY INDEPENDENT ATOMS:  1
    HIGHEST ORBITAL TYPE:                  S

      1 GROUPS OF CGTOS OF S TYPE

    NUCLEAR COORDINATES (IN A.U.) ARE :

    H #0        6.945672838510375       -2.690196256786369        0.000000000000005
  
   INTERNUCLEAR DISTANCES (A) :

     FOR ATOM C #1 (COORDINATES :   2.63251   0.42887  -0.00000)

     C #1   3     DISTANCE IS  2.823
     C #2   1     DISTANCE IS  1.395
     C #2   3     DISTANCE IS  2.422
     C #3   1     DISTANCE IS  1.396
     C #3   3     DISTANCE IS  2.415
     C #4   1     DISTANCE IS  1.496
     C #4   3     DISTANCE IS  4.318
     C #5   1     DISTANCE IS  2.514
     C #5   3     DISTANCE IS  5.234
     H #6   1     DISTANCE IS  2.151
     H #6   3     DISTANCE IS  3.392
     H #7   1     DISTANCE IS  2.144
     H #7   3     DISTANCE IS  3.390
     H #8   1     DISTANCE IS  2.178
     H #8   3     DISTANCE IS  4.843
     H #9   1     DISTANCE IS  3.491
     H #9   3     DISTANCE IS  6.269
     H #0   1     DISTANCE IS  2.817
     H #0   3     DISTANCE IS  5.208

     FOR ATOM C #2 (COORDINATES :   1.65855  -2.02131   0.00000)

     C #2   3     DISTANCE IS  2.767
     C #3   1     DISTANCE IS  2.391
     C #3   3     DISTANCE IS  1.382
     C #4   1     DISTANCE IS  2.541
     C #4   3     DISTANCE IS  3.778
     C #5   1     DISTANCE IS  3.046
     C #5   3     DISTANCE IS  4.927
     H #6   1     DISTANCE IS  1.081
     H #6   3     DISTANCE IS  3.848
     H #7   1     DISTANCE IS  3.374
     H #7   3     DISTANCE IS  2.133
     H #8   1     DISTANCE IS  3.457
     H #8   3     DISTANCE IS  4.011
     H #9   1     DISTANCE IS  4.126
     H #9   3     DISTANCE IS  5.857
     H #0   1     DISTANCE IS  2.820
     H #0   3     DISTANCE IS  5.191

     FOR ATOM C #3 (COORDINATES :   0.91985   2.43557  -0.00000)

     C #3   3     DISTANCE IS  2.755
     C #4   1     DISTANCE IS  2.495
     C #4   3     DISTANCE IS  3.805
     C #5   1     DISTANCE IS  3.734
     C #5   3     DISTANCE IS  4.425
     H #6   1     DISTANCE IS  3.378
     H #6   3     DISTANCE IS  2.129
     H #7   1     DISTANCE IS  1.083
     H #7   3     DISTANCE IS  3.838
     H #8   1     DISTANCE IS  2.631
     H #8   3     DISTANCE IS  4.593
     H #9   1     DISTANCE IS  4.584
     H #9   3     DISTANCE IS  5.503
     H #0   1     DISTANCE IS  4.186
     H #0   3     DISTANCE IS  4.164

     FOR ATOM C #4 (COORDINATES :   5.40488   0.98342  -0.00000)

     C #4   3     DISTANCE IS  5.814
     C #5   1     DISTANCE IS  1.314
     C #5   3     DISTANCE IS  6.701
     H #6   1     DISTANCE IS  2.770
     H #6   3     DISTANCE IS  4.624
     H #7   1     DISTANCE IS  2.679
     H #7   3     DISTANCE IS  4.673
     H #8   1     DISTANCE IS  1.084
     H #8   3     DISTANCE IS  6.320
     H #9   1     DISTANCE IS  2.090
     H #9   3     DISTANCE IS  7.748
     H #0   1     DISTANCE IS  2.108
     H #0   3     DISTANCE IS  6.598

     FOR ATOM C #5 (COORDINATES :   7.25469  -0.67202   0.00000)

     C #5   3     DISTANCE IS  7.711
     H #6   1     DISTANCE IS  2.774
     H #6   3     DISTANCE IS  5.847
     H #7   1     DISTANCE IS  3.992
     H #7   3     DISTANCE IS  5.089
     H #8   1     DISTANCE IS  2.069
     H #8   3     DISTANCE IS  7.047
     H #9   1     DISTANCE IS  1.081
     H #9   3     DISTANCE IS  8.722
     H #0   1     DISTANCE IS  1.080
     H #0   3     DISTANCE IS  7.722

     FOR ATOM H #6 (COORDINATES :   2.92366  -3.62602   0.00000)

     H #6   3     DISTANCE IS  4.930
     H #7   1     DISTANCE IS  4.278
     H #7   3     DISTANCE IS  2.440
     H #8   1     DISTANCE IS  3.826
     H #8   3     DISTANCE IS  4.661
     H #9   1     DISTANCE IS  3.820
     H #9   3     DISTANCE IS  6.713
     H #0   1     DISTANCE IS  2.185
     H #0   3     DISTANCE IS  6.201

     FOR ATOM H #7 (COORDINATES :   1.62910   4.35450  -0.00000)

     H #7   3     DISTANCE IS  4.921
     H #8   1     DISTANCE IS  2.354
     H #8   3     DISTANCE IS  5.548
     H #9   1     DISTANCE IS  4.647
     H #9   3     DISTANCE IS  6.166
     H #0   1     DISTANCE IS  4.670
     H #0   3     DISTANCE IS  4.622

     FOR ATOM H #8 (COORDINATES :   5.86097   2.98125  -0.00000)

     H #8   3     DISTANCE IS  6.959
     H #9   1     DISTANCE IS  2.400
     H #9   3     DISTANCE IS  8.122
     H #0   1     DISTANCE IS  3.056
     H #0   3     DISTANCE IS  6.779

     FOR ATOM H #9 (COORDINATES :   9.20955  -0.07820   0.00000)

     H #9   3     DISTANCE IS  9.747
     H #0   1     DISTANCE IS  1.829
     H #0   3     DISTANCE IS  8.674

     FOR ATOM H #0 (COORDINATES :   6.94567  -2.69020   0.00000)

     H #0   3     DISTANCE IS  7.883

   GROUP MULTIPLICATION TABLE :

         1   2   3   4
         2   1   4   3
         3   4   1   2
         4   3   2   1

   GAUSSIAN BASIS INFORMATION :

   ATOM                 EXPONENT      COEFFICIENTS

 C #1  1    S   
+                 1      71.616837   0.1543290   0.0000000
                  2      13.045096   0.5353281   0.0000000
                  3       3.530512   0.4446345   0.0000000
                  4       2.941249   0.0000000  -0.0999672
                  5       0.683483   0.0000000   0.3995128
                  6       0.222290   0.0000000   0.7001155

 C #1  3    S   
+                 7      71.616837   0.1543290   0.0000000
                  8      13.045096   0.5353281   0.0000000
                  9       3.530512   0.4446345   0.0000000
                 10       2.941249   0.0000000  -0.0999672
                 11       0.683483   0.0000000   0.3995128
                 12       0.222290   0.0000000   0.7001155

 C #1  1    X   
+                13       2.941249   0.1559163
                 14       0.683483   0.6076837
                 15       0.222290   0.3919574

 C #1  3    X   
+                16       2.941249   0.1559163
                 17       0.683483   0.6076837
                 18       0.222290   0.3919574

 C #1  1    Y   
+                19       2.941249   0.1559163
                 20       0.683483   0.6076837
                 21       0.222290   0.3919574

 C #1  3    Y   
+                22       2.941249   0.1559163
                 23       0.683483   0.6076837
                 24       0.222290   0.3919574

 C #1  1    Z   
+                25       2.941249   0.1559163
                 26       0.683483   0.6076837
                 27       0.222290   0.3919574

 C #1  3    Z   
+                28       2.941249   0.1559163
                 29       0.683483   0.6076837
                 30       0.222290   0.3919574

 C #2  1    S   
+                31      71.616837   0.1543290   0.0000000
                 32      13.045096   0.5353281   0.0000000
                 33       3.530512   0.4446345   0.0000000
                 34       2.941249   0.0000000  -0.0999672
                 35       0.683483   0.0000000   0.3995128
                 36       0.222290   0.0000000   0.7001155

 C #2  3    S   
+                37      71.616837   0.1543290   0.0000000
                 38      13.045096   0.5353281   0.0000000
                 39       3.530512   0.4446345   0.0000000
                 40       2.941249   0.0000000  -0.0999672
                 41       0.683483   0.0000000   0.3995128
                 42       0.222290   0.0000000   0.7001155

 C #2  1    X   
+                43       2.941249   0.1559163
                 44       0.683483   0.6076837
                 45       0.222290   0.3919574

 C #2  3    X   
+                46       2.941249   0.1559163
                 47       0.683483   0.6076837
                 48       0.222290   0.3919574

 C #2  1    Y   
+                49       2.941249   0.1559163
                 50       0.683483   0.6076837
                 51       0.222290   0.3919574

 C #2  3    Y   
+                52       2.941249   0.1559163
                 53       0.683483   0.6076837
                 54       0.222290   0.3919574

 C #2  1    Z   
+                55       2.941249   0.1559163
                 56       0.683483   0.6076837
                 57       0.222290   0.3919574

 C #2  3    Z   
+                58       2.941249   0.1559163
                 59       0.683483   0.6076837
                 60       0.222290   0.3919574

 C #3  1    S   
+                61      71.616837   0.1543290   0.0000000
                 62      13.045096   0.5353281   0.0000000
                 63       3.530512   0.4446345   0.0000000
                 64       2.941249   0.0000000  -0.0999672
                 65       0.683483   0.0000000   0.3995128
                 66       0.222290   0.0000000   0.7001155

 C #3  3    S   
+                67      71.616837   0.1543290   0.0000000
                 68      13.045096   0.5353281   0.0000000
                 69       3.530512   0.4446345   0.0000000
                 70       2.941249   0.0000000  -0.0999672
                 71       0.683483   0.0000000   0.3995128
                 72       0.222290   0.0000000   0.7001155

 C #3  1    X   
+                73       2.941249   0.1559163
                 74       0.683483   0.6076837
                 75       0.222290   0.3919574

 C #3  3    X   
+                76       2.941249   0.1559163
                 77       0.683483   0.6076837
                 78       0.222290   0.3919574

 C #3  1    Y   
+                79       2.941249   0.1559163
                 80       0.683483   0.6076837
                 81       0.222290   0.3919574

 C #3  3    Y   
+                82       2.941249   0.1559163
                 83       0.683483   0.6076837
                 84       0.222290   0.3919574

 C #3  1    Z   
+                85       2.941249   0.1559163
                 86       0.683483   0.6076837
                 87       0.222290   0.3919574

 C #3  3    Z   
+                88       2.941249   0.1559163
                 89       0.683483   0.6076837
                 90       0.222290   0.3919574

 C #4  1    S   
+                91      71.616837   0.1543290   0.0000000
                 92      13.045096   0.5353281   0.0000000
                 93       3.530512   0.4446345   0.0000000
                 94       2.941249   0.0000000  -0.0999672
                 95       0.683483   0.0000000   0.3995128
                 96       0.222290   0.0000000   0.7001155

 C #4  3    S   
+                97      71.616837   0.1543290   0.0000000
                 98      13.045096   0.5353281   0.0000000
                 99       3.530512   0.4446345   0.0000000
                100       2.941249   0.0000000  -0.0999672
                101       0.683483   0.0000000   0.3995128
                102       0.222290   0.0000000   0.7001155

 C #4  1    X   
+               103       2.941249   0.1559163
                104       0.683483   0.6076837
                105       0.222290   0.3919574

 C #4  3    X   
+               106       2.941249   0.1559163
                107       0.683483   0.6076837
                108       0.222290   0.3919574

 C #4  1    Y   
+               109       2.941249   0.1559163
                110       0.683483   0.6076837
                111       0.222290   0.3919574

 C #4  3    Y   
+               112       2.941249   0.1559163
                113       0.683483   0.6076837
                114       0.222290   0.3919574

 C #4  1    Z   
+               115       2.941249   0.1559163
                116       0.683483   0.6076837
                117       0.222290   0.3919574

 C #4  3    Z   
+               118       2.941249   0.1559163
                119       0.683483   0.6076837
                120       0.222290   0.3919574

 C #5  1    S   
+               121      71.616837   0.1543290   0.0000000
                122      13.045096   0.5353281   0.0000000
                123       3.530512   0.4446345   0.0000000
                124       2.941249   0.0000000  -0.0999672
                125       0.683483   0.0000000   0.3995128
                126       0.222290   0.0000000   0.7001155

 C #5  3    S   
+               127      71.616837   0.1543290   0.0000000
                128      13.045096   0.5353281   0.0000000
                129       3.530512   0.4446345   0.0000000
                130       2.941249   0.0000000  -0.0999672
                131       0.683483   0.0000000   0.3995128
                132       0.222290   0.0000000   0.7001155

 C #5  1    X   
+               133       2.941249   0.1559163
                134       0.683483   0.6076837
                135       0.222290   0.3919574

 C #5  3    X   
+               136       2.941249   0.1559163
                137       0.683483   0.6076837
                138       0.222290   0.3919574

 C #5  1    Y   
+               139       2.941249   0.1559163
                140       0.683483   0.6076837
                141       0.222290   0.3919574

 C #5  3    Y   
+               142       2.941249   0.1559163
                143       0.683483   0.6076837
                144       0.222290   0.3919574

 C #5  1    Z   
+               145       2.941249   0.1559163
                146       0.683483   0.6076837
                147       0.222290   0.3919574

 C #5  3    Z   
+               148       2.941249   0.1559163
                149       0.683483   0.6076837
                150       0.222290   0.3919574

 H #6  1    S   
+               151       3.425251   0.1543290
                152       0.623914   0.5353281
                153       0.168855   0.4446345

 H #6  3    S   
+               154       3.425251   0.1543290
                155       0.623914   0.5353281
                156       0.168855   0.4446345

 H #7  1    S   
+               157       3.425251   0.1543290
                158       0.623914   0.5353281
                159       0.168855   0.4446345

 H #7  3    S   
+               160       3.425251   0.1543290
                161       0.623914   0.5353281
                162       0.168855   0.4446345

 H #8  1    S   
+               163       3.425251   0.1543290
                164       0.623914   0.5353281
                165       0.168855   0.4446345

 H #8  3    S   
+               166       3.425251   0.1543290
                167       0.623914   0.5353281
                168       0.168855   0.4446345

 H #9  1    S   
+               169       3.425251   0.1543290
                170       0.623914   0.5353281
                171       0.168855   0.4446345

 H #9  3    S   
+               172       3.425251   0.1543290
                173       0.623914   0.5353281
                174       0.168855   0.4446345

 H #0  1    S   
+               175       3.425251   0.1543290
                176       0.623914   0.5353281
                177       0.168855   0.4446345

 H #0  3    S   
+               178       3.425251   0.1543290
                179       0.623914   0.5353281
                180       0.168855   0.4446345
 60 60
  1  2  3  4  5  6  7  8  9 10 11 12 13 14 15 16 17 18 19 20 21 22 23 24 25
 26 27 28 29 30 31 32 33 34 35 36 37 38 39 40 41 42 43 44 45 46 47 48 49 50
 51 52 53 54 55 56 57 58 59 60
1

             SYMMETRY TRANSFORMATION INFO
             60 SYMMETRY ADAPTED BASIS FUNCTIONS 


          IRREDUCIBLE REPRESENTATION NUMBER 1

    1    1  C #1     1S     2   1   1.0   2   1.0
    2    2  C #1     1S     2   3   1.0   4   1.0
    3    3  C #1     2PX    2   5   1.0   6  -1.0
    4    4  C #1     2PY    2   7   1.0   8  -1.0
    5    5  C #2     1S     2  11   1.0  12   1.0
    6    6  C #2     1S     2  13   1.0  14   1.0
    7    7  C #2     2PX    2  15   1.0  16  -1.0
    8    8  C #2     2PY    2  17   1.0  18  -1.0
    9    9  C #3     1S     2  21   1.0  22   1.0
   10   10  C #3     1S     2  23   1.0  24   1.0
   11   11  C #3     2PX    2  25   1.0  26  -1.0
   12   12  C #3     2PY    2  27   1.0  28  -1.0
   13   13  C #4     1S     2  31   1.0  32   1.0
   14   14  C #4     1S     2  33   1.0  34   1.0
   15   15  C #4     2PX    2  35   1.0  36  -1.0
   16   16  C #4     2PY    2  37   1.0  38  -1.0
   17   17  C #5     1S     2  41   1.0  42   1.0
   18   18  C #5     1S     2  43   1.0  44   1.0
   19   19  C #5     2PX    2  45   1.0  46  -1.0
   20   20  C #5     2PY    2  47   1.0  48  -1.0
   21   21  H #6     1S     2  51   1.0  52   1.0
   22   22  H #7     1S     2  53   1.0  54   1.0
   23   23  H #8     1S     2  55   1.0  56   1.0
   24   24  H #9     1S     2  57   1.0  58   1.0
   25   25  H #0     1S     2  59   1.0  60   1.0


          IRREDUCIBLE REPRESENTATION NUMBER 2

   26    1  C #1     2PZ    2   9   1.0  10   1.0
   27    2  C #2     2PZ    2  19   1.0  20   1.0
   28    3  C #3     2PZ    2  29   1.0  30   1.0
   29    4  C #4     2PZ    2  39   1.0  40   1.0
   30    5  C #5     2PZ    2  49   1.0  50   1.0


          IRREDUCIBLE REPRESENTATION NUMBER 3

   31    1  C #1     1S     2   1   1.0   2  -1.0
   32    2  C #1     1S     2   3   1.0   4  -1.0
   33    3  C #1     2PX    2   5   1.0   6   1.0
   34    4  C #1     2PY    2   7   1.0   8   1.0
   35    5  C #2     1S     2  11   1.0  12  -1.0
   36    6  C #2     1S     2  13   1.0  14  -1.0
   37    7  C #2     2PX    2  15   1.0  16   1.0
   38    8  C #2     2PY    2  17   1.0  18   1.0
   39    9  C #3     1S     2  21   1.0  22  -1.0
   40   10  C #3     1S     2  23   1.0  24  -1.0
   41   11  C #3     2PX    2  25   1.0  26   1.0
   42   12  C #3     2PY    2  27   1.0  28   1.0
   43   13  C #4     1S     2  31   1.0  32  -1.0
   44   14  C #4     1S     2  33   1.0  34  -1.0
   45   15  C #4     2PX    2  35   1.0  36   1.0
   46   16  C #4     2PY    2  37   1.0  38   1.0
   47   17  C #5     1S     2  41   1.0  42  -1.0
   48   18  C #5     1S     2  43   1.0  44  -1.0
   49   19  C #5     2PX    2  45   1.0  46   1.0
   50   20  C #5     2PY    2  47   1.0  48   1.0
   51   21  H #6     1S     2  51   1.0  52  -1.0
   52   22  H #7     1S     2  53   1.0  54  -1.0
   53   23  H #8     1S     2  55   1.0  56  -1.0
   54   24  H #9     1S     2  57   1.0  58  -1.0
   55   25  H #0     1S     2  59   1.0  60  -1.0


          IRREDUCIBLE REPRESENTATION NUMBER 4

   56    1  C #1     2PZ    2   9   1.0  10  -1.0
   57    2  C #2     2PZ    2  19   1.0  20  -1.0
   58    3  C #3     2PZ    2  29   1.0  30  -1.0
   59    4  C #4     2PZ    2  39   1.0  40  -1.0
   60    5  C #5     2PZ    2  49   1.0  50  -1.0
  NUCLEAR REPULSION ENERGY :  452.1197767341 A.U.
  @MOLECU-I, ONE ELECTRON INTEGRALS (CPU/WALL):        0.02/       0.02 SECONDS.
  @TWOEL-I,     102960 INTEGRALS OF SYMMETRY TYPE  I I I I
  @TWOEL-I,     221233 INTEGRALS OF SYMMETRY TYPE  I J I J
  @TWOEL-I,     121825 INTEGRALS OF SYMMETRY TYPE  I I J J
  @TWOEL-I,      46619 INTEGRALS OF SYMMETRY TYPE  I J K L
  @TWOEL-I, TOTAL NUMBER OF 2-E INTEGRALS     492637.
  @MOLECU-I, TWO ELECTRON INTEGRALS (CPU/WALL):        0.60/       0.60 SECONDS.
 @CHECKOUT-I, Total execution time (CPU/WALL):        0.62/       0.62 seconds.

OMP_NUM_THREADS not specified; defaulting to 1
Running with 1 threads/proc

--executable xvmol finished with status     0 in        0.71 seconds (walltime).
 --invoking executable--
/ihome/kjordan/srs215/software/cfour/cfour-public/bin/xvmol2ja
 @GETMEM-I,  Allocated     762 MB of main memory.
 ZMAT order <=> comp order: mapping vector 
           1    1
           2    2
           3    3
           4    4
           5    5
           6    6
           7    7
           8    8
           9    9
          10   10
          11   11
          12   12
          13   13
          14   14
          15   15
          16   16
          17   17
          18   18
          19   19
          20   20
 @CHECKOUT-I, Total execution time (CPU/WALL):        0.00/       0.01 seconds.
--executable xvmol2ja finished with status     0 in        0.07 seconds (walltime).
 --invoking executable--
/ihome/kjordan/srs215/software/cfour/cfour-public/bin/xvscf
  There are   60 functions in the AO basis.

  There are 4 irreducible representations.

       Irrep        # of functions
         1                 25
         2                  5
         3                 25
         4                  5


  Parameters for SCF calculation: 
        SCF reference function:  RHF  
  Maximum number of iterations:  150
     Full symmetry point group: C2h 
     Computational point group: C2h 
        Initial density matrix: MOREAD                 
     SCF convergence tolerance: 10**(- 7)
  DIIS convergence acceleration:  ON
          Latest start for DIIS:   8
                     DIIS order:   6

  Memory information:     165086 words required.
  Fock matrices are constructed from AO integral file.
 @GETMEM-I,  Allocated       1 MB of main memory.
  Initialization and symmetry analysis required      0.001 seconds.

 @INITGES-I, Routine entered. 
  @INITGES-I, Occupancies from core Hamiltonian:

          Alpha population by irrep:  15    3   14    3
           Beta population by irrep:  15    3   14    3


 total no. of electrons in initial guess :  0.000000000000000E+000
  --------------------------------------------------------------------
  Iteration         Total Energy            Largest Density Difference
  --------------------------------------------------------------------
       0           452.119776734075174              0.0000000000D+00
   current occupation vector 
    15  3 14  3
    15  3 14  3
  processed                 102960  ao basis integrals from 
                    26  buffers.
  processed                 121825  ao basis integrals from 
                    30  buffers.
  processed                 221233  ao basis integrals from 
                    55  buffers.
       1          -302.316919597806134              0.2931577622D+01
   current occupation vector 
    15  3 14  3
    15  3 14  3
  processed                 102960  ao basis integrals from 
                    26  buffers.
  processed                 121825  ao basis integrals from 
                    30  buffers.
  processed                 221233  ao basis integrals from 
                    55  buffers.
       2          -295.008868766161470              0.3008991959D+01
   current occupation vector 
    16  2 15  2
    16  2 15  2
  processed                 102960  ao basis integrals from 
                    26  buffers.
  processed                 121825  ao basis integrals from 
                    30  buffers.
  processed                 221233  ao basis integrals from 
                    55  buffers.
       3          -293.525415869829374              0.3025041920D+01
   current occupation vector 
    15  3 14  3
    15  3 14  3
  processed                 102960  ao basis integrals from 
                    26  buffers.
  processed                 121825  ao basis integrals from 
                    30  buffers.
  processed                 221233  ao basis integrals from 
                    55  buffers.
       4          -294.991741671710486              0.3025271377D+01
   current occupation vector 
    16  2 15  2
    16  2 15  2
 
 sum over diagonal and offdiagdiagonal of C(T)*S*C for irrep
                     1
  2.087219286295294E-014 -1.863140983460425E-014
 reorthoganalization of MOs is carried out
 sum over diagonal and offdiagdiagonal of C(T)*S*C for irrep
                     1
 -2.109423746787797E-015 -4.440252533514541E-015
 
 sum over diagonal and offdiagdiagonal of C(T)*S*C for irrep
                     2
  1.088018564132653E-014  1.391505302232891E-015
 reorthoganalization of MOs is carried out
 sum over diagonal and offdiagdiagonal of C(T)*S*C for irrep
                     2
  8.881784197001252E-016  3.967959722730660E-016
 
 sum over diagonal and offdiagdiagonal of C(T)*S*C for irrep
                     3
  3.030908857226677E-014  8.140491861078026E-015
 reorthoganalization of MOs is carried out
 sum over diagonal and offdiagdiagonal of C(T)*S*C for irrep
                     3
 -8.881784197001252E-016  4.794488639343741E-016
 
 sum over diagonal and offdiagdiagonal of C(T)*S*C for irrep
                     4
 -5.551115123125783E-016 -1.321683741116009E-015
 reorthoganalization of MOs is carried out
 sum over diagonal and offdiagdiagonal of C(T)*S*C for irrep
                     4
  4.440892098500626E-016  7.562349857755796E-017
  processed                 102960  ao basis integrals from 
                    26  buffers.
  processed                 121825  ao basis integrals from 
                    30  buffers.
  processed                 221233  ao basis integrals from 
                    55  buffers.
       5          -293.222313318326712              0.3025281137D+01
   current occupation vector 
    15  3 14  3
    15  3 14  3
  processed                 102960  ao basis integrals from 
                    26  buffers.
  processed                 121825  ao basis integrals from 
                    30  buffers.
  processed                 221233  ao basis integrals from 
                    55  buffers.
       6          -295.018413164914307              0.3025276645D+01
   current occupation vector 
    16  2 15  2
    16  2 15  2
  processed                 102960  ao basis integrals from 
                    26  buffers.
  processed                 121825  ao basis integrals from 
                    30  buffers.
  processed                 221233  ao basis integrals from 
                    55  buffers.
       7          -293.231517147457623              0.3025276712D+01
   current occupation vector 
    15  3 14  3
    15  3 14  3
  processed                 102960  ao basis integrals from 
                    26  buffers.
  processed                 121825  ao basis integrals from 
                    30  buffers.
  processed                 221233  ao basis integrals from 
                    55  buffers.
       8          -295.020248208624196              0.3025276302D+01
   current occupation vector 
    16  2 15  2
    16  2 15  2
  processed                 102960  ao basis integrals from 
                    26  buffers.
  processed                 121825  ao basis integrals from 
                    30  buffers.
  processed                 221233  ao basis integrals from 
                    55  buffers.
       9          -379.614927479096025              0.2593789331D+01
   current occupation vector 
    15  2 15  3
    15  2 15  3
 
 sum over diagonal and offdiagdiagonal of C(T)*S*C for irrep
                     1
 -1.010302952408892E-014 -4.383634103115876E-015
 reorthoganalization of MOs is carried out
 sum over diagonal and offdiagdiagonal of C(T)*S*C for irrep
                     1
  0.000000000000000E+000 -3.104538251938732E-015
 
 sum over diagonal and offdiagdiagonal of C(T)*S*C for irrep
                     2
  5.773159728050814E-015 -1.370431546021678E-015
 reorthoganalization of MOs is carried out
 sum over diagonal and offdiagdiagonal of C(T)*S*C for irrep
                     2
  0.000000000000000E+000  7.667477763817487E-016
 
 sum over diagonal and offdiagdiagonal of C(T)*S*C for irrep
                     3
 -3.141931159689193E-014 -5.144731125553162E-015
 reorthoganalization of MOs is carried out
 sum over diagonal and offdiagdiagonal of C(T)*S*C for irrep
                     3
 -2.109423746787797E-015  1.449608651750144E-015
 
 sum over diagonal and offdiagdiagonal of C(T)*S*C for irrep
                     4
  3.330669073875470E-015  5.521624824034177E-015
 reorthoganalization of MOs is carried out
 sum over diagonal and offdiagdiagonal of C(T)*S*C for irrep
                     4
 -1.110223024625157E-016 -3.330669073875470E-016
  processed                 102960  ao basis integrals from 
                    26  buffers.
  processed                 121825  ao basis integrals from 
                    30  buffers.
  processed                 221233  ao basis integrals from 
                    55  buffers.
      10          -379.620462879518357              0.8966601400D-01
   current occupation vector 
    15  2 15  3
    15  2 15  3
  processed                 102960  ao basis integrals from 
                    26  buffers.
  processed                 121825  ao basis integrals from 
                    30  buffers.
  processed                 221233  ao basis integrals from 
                    55  buffers.
      11          -379.617575435887545              0.1871401645D-01
   current occupation vector 
    15  2 15  3
    15  2 15  3
  processed                 102960  ao basis integrals from 
                    26  buffers.
  processed                 121825  ao basis integrals from 
                    30  buffers.
  processed                 221233  ao basis integrals from 
                    55  buffers.
      12          -379.619651993366290              0.8500612689D-03
   current occupation vector 
    15  2 15  3
    15  2 15  3
  processed                 102960  ao basis integrals from 
                    26  buffers.
  processed                 121825  ao basis integrals from 
                    30  buffers.
  processed                 221233  ao basis integrals from 
                    55  buffers.
      13          -379.741427081261861              0.9261800525D-01
   current occupation vector 
    15  2 15  3
    15  2 15  3
  processed                 102960  ao basis integrals from 
                    26  buffers.
  processed                 121825  ao basis integrals from 
                    30  buffers.
  processed                 221233  ao basis integrals from 
                    55  buffers.
      14          -379.770376012017039              0.3879022499D-01
   current occupation vector 
    15  2 15  3
    15  2 15  3
 
 sum over diagonal and offdiagdiagonal of C(T)*S*C for irrep
                     1
 -3.996802888650564E-015 -1.455080483896643E-014
 reorthoganalization of MOs is carried out
 sum over diagonal and offdiagdiagonal of C(T)*S*C for irrep
                     1
  1.665334536937735E-015 -3.979589900341129E-015
 
 sum over diagonal and offdiagdiagonal of C(T)*S*C for irrep
                     2
  7.105427357601002E-015 -3.354521521670151E-016
 reorthoganalization of MOs is carried out
 sum over diagonal and offdiagdiagonal of C(T)*S*C for irrep
                     2
  4.440892098500626E-016  4.303740523681210E-016
 
 sum over diagonal and offdiagdiagonal of C(T)*S*C for irrep
                     3
  2.986499936241671E-014 -5.990832520111691E-014
 reorthoganalization of MOs is carried out
 sum over diagonal and offdiagdiagonal of C(T)*S*C for irrep
                     3
 -5.551115123125783E-016  4.738044971672376E-015
 
 sum over diagonal and offdiagdiagonal of C(T)*S*C for irrep
                     4
  3.330669073875470E-016  4.533482964030888E-015
 reorthoganalization of MOs is carried out
 sum over diagonal and offdiagdiagonal of C(T)*S*C for irrep
                     4
  0.000000000000000E+000  3.172375556692586E-016
  processed                 102960  ao basis integrals from 
                    26  buffers.
  processed                 121825  ao basis integrals from 
                    30  buffers.
  processed                 221233  ao basis integrals from 
                    55  buffers.
      15          -379.777762385180665              0.3295346471D-01
   current occupation vector 
    15  2 15  3
    15  2 15  3
  processed                 102960  ao basis integrals from 
                    26  buffers.
  processed                 121825  ao basis integrals from 
                    30  buffers.
  processed                 221233  ao basis integrals from 
                    55  buffers.
      16          -379.777946228414919              0.5361446068D-02
   current occupation vector 
    15  2 15  3
    15  2 15  3
  processed                 102960  ao basis integrals from 
                    26  buffers.
  processed                 121825  ao basis integrals from 
                    30  buffers.
  processed                 221233  ao basis integrals from 
[...]
       -8.1149488855       55.9520858753        0.0000000000
        0.0000000000        0.0000000000       50.6584994318
  derivatives of inertia tensor for mode                     12
        0.0000000000        0.0000000000        0.0002305227
        0.0000000000        0.0000000000        0.0010197073
        0.0002305227        0.0010197073        0.0000000000
  derivatives of inertia tensor for mode                     13
       -4.0919573892        3.5915085193       -0.0000000000
        3.5915085193       77.9985309002        0.0000000000
       -0.0000000000        0.0000000000       73.9065735115
  derivatives of inertia tensor for mode                     14
        0.0000000000        0.0000000000       -0.0000000000
        0.0000000000        0.0000000000       -0.0000000000
       -0.0000000000       -0.0000000000        0.0000000000
  derivatives of inertia tensor for mode                     15
        0.0000000000        0.0000000000        0.0000000000
        0.0000000000        0.0000000000       -0.0000000000
        0.0000000000       -0.0000000000        0.0000000000
  derivatives of inertia tensor for mode                     16
       -0.0000000001        0.0000000003       -0.0000000000
        0.0000000003        0.0000000005        0.0000000000
       -0.0000000000        0.0000000000        0.0000000002
  derivatives of inertia tensor for mode                     17
       -3.4625835380      -16.3669368407        0.0000000000
      -16.3669368407        5.8620234022       -0.0000000000
        0.0000000000       -0.0000000000        2.3994398639
  derivatives of inertia tensor for mode                     18
        6.2165909151      -26.7771044562        0.0000000000
      -26.7771044562       -9.1773242814        0.0000000000
        0.0000000000        0.0000000000       -2.9607333670
  derivatives of inertia tensor for mode                     19
        0.0000000000        0.0000000000        0.0002598497
        0.0000000000        0.0000000000        0.0002806554
        0.0002598497        0.0002806554        0.0000000000
  derivatives of inertia tensor for mode                     20
        0.0000000000        0.0000000000       -0.0000000000
        0.0000000000        0.0000000000        0.0000000000
       -0.0000000000        0.0000000000        0.0000000000
  derivatives of inertia tensor for mode                     21
       -0.0000000001        0.0000000001       -0.0000000000
        0.0000000001        0.0000000000       -0.0000000000
       -0.0000000000       -0.0000000000        0.0000000002
  derivatives of inertia tensor for mode                     22
        0.0000000000        0.0000000000       -0.0001250985
        0.0000000000        0.0000000000       -0.0000354211
       -0.0001250985       -0.0000354211        0.0000000000
  derivatives of inertia tensor for mode                     23
      -29.2783811789       -0.5200632449       -0.0000000000
       -0.5200632449      -26.9990016159       -0.0000000000
       -0.0000000000       -0.0000000000      -56.2773827958
  derivatives of inertia tensor for mode                     24
        0.0000000000        0.0000000000       -0.0000000000
        0.0000000000        0.0000000000       -0.0000000000
       -0.0000000000       -0.0000000000        0.0000000000
  derivatives of inertia tensor for mode                     25
        0.0000000000        0.0000000000       -0.0000120333
        0.0000000000        0.0000000000        0.0002158798
       -0.0000120333        0.0002158798        0.0000000000
  derivatives of inertia tensor for mode                     26
        0.0000000000        0.0000000000        0.0000638338
        0.0000000000        0.0000000000       -0.0000763532
        0.0000638338       -0.0000763532        0.0000000000
  derivatives of inertia tensor for mode                     27
        0.0000000000        0.0000000000       -0.0000000000
        0.0000000000        0.0000000000       -0.0000000000
       -0.0000000000       -0.0000000000        0.0000000000
  derivatives of inertia tensor for mode                     28
        0.0000000001       -0.0000000000       -0.0000000000
       -0.0000000000        0.0000000000       -0.0000000000
       -0.0000000000       -0.0000000000        0.0000000000
  derivatives of inertia tensor for mode                     29
        0.0000000000        0.0000000000       -0.0001112347
        0.0000000000        0.0000000000        0.0000004687
       -0.0001112347        0.0000004687        0.0000000000
  derivatives of inertia tensor for mode                     30
       -0.0000000001       -0.0000000000        0.0000000000
       -0.0000000000        0.0000000000        0.0000000000
        0.0000000000        0.0000000000        0.0000000000
  derivatives of inertia tensor for mode                     31
        0.0000000000        0.0000000000        0.0000000000
        0.0000000000        0.0000000000       -0.0000000000
        0.0000000000       -0.0000000000        0.0000000000
  derivatives of inertia tensor for mode                     32
       11.8948643987       -7.8533001991        0.0000000000
       -7.8533001991       -0.9633269142        0.0000000000
        0.0000000000        0.0000000000       10.9315374843
  derivatives of inertia tensor for mode                     33
       -0.0000000000        0.0000000000        0.0000000000
        0.0000000000        0.0000000000       -0.0000000000
        0.0000000000       -0.0000000000       -0.0000000005
  derivatives of inertia tensor for mode                     34
        0.0000000000        0.0000000000       -0.0000000000
        0.0000000000        0.0000000000       -0.0000000000
       -0.0000000000       -0.0000000000        0.0000000000
  derivatives of inertia tensor for mode                     35
        0.0000000000        0.0000000000        0.0000031218
        0.0000000000        0.0000000000       -0.0000286469
        0.0000031218       -0.0000286469        0.0000000000
  derivatives of inertia tensor for mode                     36
        0.0000000001        0.0000000000        0.0000000000
        0.0000000000        0.0000000005        0.0000000000
        0.0000000000        0.0000000000        0.0000000002
  derivatives of inertia tensor for mode                     37
       13.3864868092        4.9390057866        0.0000000000
        4.9390057866      -10.2650499896        0.0000000000
        0.0000000000        0.0000000000        3.1214368200
  derivatives of inertia tensor for mode                     38
        1.9684450022        2.1601001724       -0.0000000000
        2.1601001724        5.7357198921        0.0000000000
       -0.0000000000        0.0000000000        7.7041648938
  derivatives of inertia tensor for mode                     39
        0.0000000001        0.0000000000       -0.0000000000
        0.0000000000        0.0000000000       -0.0000000000
       -0.0000000000       -0.0000000000        0.0000000005
  derivatives of inertia tensor for mode                     40
       -4.3387603744       -8.5028055353        0.0000000000
       -8.5028055353       -0.9682263444       -0.0000000000
        0.0000000000       -0.0000000000       -5.3069867181
  derivatives of inertia tensor for mode                     41
       -0.0000000001       -0.0000000000        0.0000000000
       -0.0000000000        0.0000000000        0.0000000000
        0.0000000000        0.0000000000        0.0000000000
  derivatives of inertia tensor for mode                     42
       -8.1385899082       -3.9831846494       -0.0000000000
       -3.9831846494       -0.6308314198       -0.0000000000
       -0.0000000000       -0.0000000000       -8.7694213280
  derivatives of inertia tensor for mode                     43
       -0.0000000001        0.0000000000        0.0000000000
        0.0000000000       -0.0000000005        0.0000000000
        0.0000000000        0.0000000000        0.0000000000
  derivatives of inertia tensor for mode                     44
        1.2694261612        3.9797127005        0.0000000000
        3.9797127005        2.7747991176        0.0000000000
        0.0000000000        0.0000000000        4.0442252782
  derivatives of inertia tensor for mode                     45
        0.0000000000       -0.0000000000       -0.0000000000
       -0.0000000000        0.0000000000       -0.0000000000
       -0.0000000000       -0.0000000000        0.0000000000
  derivatives of inertia tensor for mode                     46
       -0.0000000001        0.0000000000       -0.0000000000
        0.0000000000        0.0000000000       -0.0000000000
       -0.0000000000       -0.0000000000        0.0000000000
  derivatives of inertia tensor for mode                     47
       -2.5063737542        3.1899367343        0.0000000000
        3.1899367343        0.1788326583        0.0000000000
        0.0000000000        0.0000000000       -2.3275410958
  derivatives of inertia tensor for mode                     48
        3.0255352643        1.3336823418       -0.0000000000
        1.3336823418       -5.9049290503       -0.0000000000
       -0.0000000000       -0.0000000000       -2.8793937863
  derivatives of inertia tensor for mode                     49
        6.7361816873        4.8479881757        0.0000000000
        4.8479881757        6.1929055908        0.0000000000
        0.0000000000        0.0000000000       12.9290872785
  derivatives of inertia tensor for mode                     50
        0.0000000000       -0.0000000000        0.0000000000
       -0.0000000000        0.0000000002        0.0000000000
        0.0000000000        0.0000000000        0.0000000002
  derivatives of inertia tensor for mode                     51
       -0.0000000000        0.0000000000       -0.0000000000
        0.0000000000        0.0000000000        0.0000000000
       -0.0000000000        0.0000000000        0.0000000000
  derivatives of inertia tensor for mode                     52
       -1.9809478402        1.8032603549       -0.0000000000
        1.8032603549       -3.0974821452       -0.0000000000
       -0.0000000000       -0.0000000000       -5.0784299858
  derivatives of inertia tensor for mode                     53
       -0.0000000002        0.0000000001       -0.0000000000
        0.0000000001       -0.0000000002        0.0000000000
       -0.0000000000        0.0000000000        0.0000000000
  derivatives of inertia tensor for mode                     54
        5.9675332911       -2.0604419967        0.0000000000
       -2.0604419967        0.4575366631        0.0000000000
        0.0000000000        0.0000000000        6.4250699534
  derivatives of inertia tensor for mode                     55
        0.0000000001       -0.0000000000        0.0000000000
       -0.0000000000        0.0000000000       -0.0000000000
        0.0000000000       -0.0000000000        0.0000000000
  derivatives of inertia tensor for mode                     56
       -2.7215066156        2.8301785192       -0.0000000000
        2.8301785192        0.6597704073       -0.0000000000
       -0.0000000000       -0.0000000000       -2.0617362081
  derivatives of inertia tensor for mode                     57
       -0.0000000000        0.0000000000        0.0000000000
        0.0000000000        0.0000000000       -0.0000000000
        0.0000000000       -0.0000000000        0.0000000000
  derivatives of inertia tensor for mode                     58
       -4.6044310888       -1.7053406987        0.0000000000
       -1.7053406987       -1.7014723414       -0.0000000000
        0.0000000000       -0.0000000000       -6.3059034301
  derivatives of inertia tensor for mode                     59
        0.0000000003        0.0000000000        0.0000000000
        0.0000000000        0.0000000000       -0.0000000000
        0.0000000000       -0.0000000000       -0.0000000002
  derivatives of inertia tensor for mode                     60
       -3.4182879248       -0.5888309717        0.0000000000
       -0.5888309717        3.3255864362       -0.0000000000
        0.0000000000       -0.0000000000       -0.0927014876
    1    1    1    1   -0.7501130529E-07       -0.0022487824
    1    1    1    2   -0.1863301244E-08       -0.0000558604
    1    1    2    1   -0.1863301244E-08       -0.0000558604
    1    1    2    2    0.4107509233E-08        0.0001231400
    1    1    3    3    0.1910905901E-08        0.0000572875
    1    2    1    1   -0.1863301244E-08       -0.0000558604
    1    2    1    2   -0.2730211910E-08       -0.0000818497
    1    2    2    1   -0.2730211910E-08       -0.0000818497
    1    2    2    2    0.4986809658E-09        0.0000149501
    1    2    3    3    0.3495098180E-09        0.0000104780
    2    1    1    1   -0.1863301244E-08       -0.0000558604
    2    1    1    2   -0.2730211910E-08       -0.0000818497
    2    1    2    1   -0.2730211910E-08       -0.0000818497
    2    1    2    2    0.4986809658E-09        0.0000149501
    2    1    3    3    0.3495098180E-09        0.0000104780
    2    2    1    1    0.4107509233E-08        0.0001231400
    2    2    1    2    0.4986809658E-09        0.0000149501
    2    2    2    1    0.4986809658E-09        0.0000149501
    2    2    2    2   -0.1358443304E-08       -0.0000407251
    2    2    3    3   -0.9677981782E-09       -0.0000290139
    3    3    1    1    0.1910905901E-08        0.0000572875
    3    3    1    2    0.3495098180E-09        0.0000104780
    3    3    2    1    0.3495098180E-09        0.0000104780
    3    3    2    2   -0.9677981782E-09       -0.0000290139
    3    3    3    3   -0.7059631226E-09       -0.0000211642
---------------------------------------------------------------------------
------------------------------------------------------------
        Parameter                (MHz)                 (CM-1)
------------------------------------------------------------
 
           R6                -.603379E-07           -.201266E-11
           R5                -.550415E-05           -.183599E-09
           SI                            0.928777E+02
 
  A-reduced centrifugal distortion parameters (Ir representation) 
 
           DJ                0.761549E-05           0.254025E-09
           DK                0.573993E-03           0.191463E-07
           DJK               -.194130E-04           -.647549E-09
           DELJ              0.773617E-05           0.258051E-09
           DELK              0.574597E-03           0.191665E-07
           DELJK             -.201371E-04           -.671701E-09
           delJ              0.122255E-05           0.407800E-10
           delK              0.334245E-04           0.111492E-08
 
  S-reduced centrifugal distortion parameters (Ir representation) 
 
           DJ                0.755623E-05           0.252049E-09
           DK                0.573697E-03           0.191365E-07
           DJK               -.190575E-04           -.635688E-09
           D1                -.122255E-05           -.407800E-10
           D2                -.899691E-07           -.300105E-11
------------------------------------------------------------
  Centrifugal corrections for various types of rotational constants (MHz) ...
   Bx''-Bx         0.0000554318
   By''-By         0.0000122811
   Bz''-Bz        -0.0000411076
   Bx''-Bx'         0.0000145069
   By''-By'        -0.0000286438
   Bz''-Bz'         0.0000202797
   Bx'-Bx         0.0000409248
   By'-By         0.0000409248
   Bz'-Bz        -0.0000613873
   BxSR-Bx         0.0000408591
   BySR-By         0.0000190311
   BzSR-Bz        -0.0000392478
   BxSR-Bx''        -0.0000145726
   BySR-By''         0.0000067500
   BzSR-Bz''         0.0000018598
   BxSR-Bx'         0.0000000657
   BySR-By'        -0.0000218938
   BzSR-Bz'         0.0000221394
   Rotationally projected vibrational frequencies 
            1               0.0026i
            2               0.0025i
            3               0.0012i
            4               0.0009i
            5               0.0018 
            6               0.0020 
            7              39.6075 
            8              59.1876 
            9             155.3977 
           10             197.5846 
           11             292.1682 
           12             330.5119 
           13             444.3573 
           14             477.2137 
           15             525.9595 
           16             528.4318 
           17             629.3769 
           18             738.2082 
           19             740.1794 
           20             795.3831 
           21             797.7180 
           22             918.5246 
           23             945.7780 
           24            1021.1275 
           25            1022.9495 
           26            1145.9138 
           27            1145.9738 
           28            1154.6394 
           29            1162.9708 
           30            1179.5400 
           31            1187.7966 
           32            1213.3133 
           33            1234.8619 
           34            1246.6371 
           35            1246.8883 
           36            1333.3941 
           37            1386.6866 
           38            1418.0934 
           39            1428.8046 
           40            1534.1102 
           41            1552.5290 
           42            1565.7586 
           43            1666.7548 
           44            1716.4053 
           45            1724.9965 
           46            1819.2319 
           47            1888.8717 
           48            1948.2460 
           49            2038.5920 
           50            2040.2803 
           51            3658.0245 
           52            3659.1005 
           53            3711.4179 
           54            3711.5060 
           55            3715.8634 
           56            3722.9871 
           57            3741.3592 
           58            3744.6275 
           59            3816.1874 
           60            3816.2118 
  Zero-point energy:  121.4252 kcal/mol =  508.0437 kJ/mol =   42469.122 cm-1 
 
  Finite temperature thermodynamic corrections:
=======================================================
Temperature     Entropy       Enthalpy     Gibbs Energy
    (K)        (J/(mol K))    (kJ/mol)      (kJ/mol) 
=======================================================
    298.15      380.2207       24.3431      -89.0197
    100.00      280.1021        4.9487      -23.0615
    200.00      334.5163       12.9835      -53.9198
    300.00      381.0603       24.5942      -89.7239
    400.00      425.9280       40.2902     -130.0809
    500.00      469.7928       60.0194     -174.8770
    600.00      512.1866       83.3217     -223.9903
    700.00      552.7070      109.6433     -277.2516
    800.00      591.1955      138.4926     -334.4638
    900.00      627.6640      169.4744     -395.4233
   1000.00      662.2093      202.2769     -459.9324
   1100.00      694.9604      236.6511     -527.8053
   1200.00      726.0519      272.3931     -598.8692
   1300.00      755.6130      309.3322     -672.9647
   1400.00      783.7631      347.3235     -749.9448
   1500.00      810.6111      386.2427     -829.6739
   1600.00      836.2556      425.9820     -912.0269
   1700.00      860.7861      466.4484     -996.8879
   1800.00      884.2835      507.5607    -1084.1497
   1900.00      906.8215      549.2483    -1173.7126
   2000.00      928.4669      591.4495    -1265.4842
=======================================================
 @CHECKOUT-I, Total execution time (CPU/WALL):        0.02/       0.03 seconds.
--executable xjoda finished with status     0 in        0.04 seconds (walltime).
  The final electronic energy is      -379.777955473628651 a.u. 
  This computation required                           13.21 seconds (walltime).
