Intel(R) Parallel Studio XE 2019 Update 4 for Linux*
Copyright (C) 2009-2019 Intel Corporation. All rights reserved.
 --invoking executable--
/ihome/kjordan/shu8/software/source/cfour/cfour-public/bin/xjoda


   *************************************************************************
         <<<     CCCCCC     CCCCCC   |||     CCCCCC     CCCCCC   >>>
       <<<      CCC        CCC       |||    CCC        CCC         >>>
      <<<      CCC        CCC        |||   CCC        CCC            >>>
    <<<        CCC        CCC        |||   CCC        CCC              >>>
      <<<      CCC        CCC        |||   CCC        CCC            >>>
       <<<      CCC        CCC       |||    CCC        CCC         >>>
         <<<     CCCCCC     CCCCCC   |||     CCCCCC     CCCCCC   >>>
   *************************************************************************

     ****************************************************************
     * CFOUR Coupled-Cluster techniques for Computational Chemistry *
     ****************************************************************
 

   Department of Chemistry                Institut fuer Physikalische Chemie
   University of Florida                  Universitaet Mainz
   Gainesville, FL 32611, USA             D-55099 Mainz, Germany

   Department of Chemistry                Fakultaet fuer Chemie und Biowiss.
   Johns Hopkins University               Karlsruher Institut fuer Technologie
   Baltimore, MD 21218, USA               D-76131 Karlsruhe, Germany

   Department of Chemistry                Department of Physical Chemistry
   Southern Methodist University          Eotvos Lorand University
   Dallas, TX 75275, USA                  H-1053 Budapest, Hungary

 
                       Version 2.1
 
                     smp-n217.crc.pitt.edu                             
                     Mon Jan 27 23:08:13 EST 2025                      
                     integer*8 version is running
 
********************************************************************************
*                          Input from ZMAT file                                *
********************************************************************************
Mo4OCl4 restricted single point                                                 
MO     0.000325    -0.000325     0.051810                                       
O      0.000206    -0.000206     1.741504                                       
CL     1.711727    -1.711727    -0.659846                                       
CL    -1.710992    -1.711738    -0.660079                                       
CL    -1.711004     1.711004    -0.660311                                       
CL     1.711738     1.710992    -0.660079                                       
                                                                                
*ACES2(CALC=SCF                                                                 
ECP=ON                                                                          
COORDINATES=CARTESIAN                                                           
BASIS=SPECIAL                                                                   
REF=RHF                                                                         
PRINT=2                                                                         
CHARGE=-2                                                                       
MULTIPLICITY=1)                                                                 
                                                                                
MO:STO-3G                                                                       
O:STO-3G                                                                        
CL:STO-3G                                                                       
CL:STO-3G                                                                       
CL:STO-3G                                                                       
CL:STO-3G                                                                       
                                                                                
MO:ECP-28-HAY                                                                   
O:NONE                                                                          
CL:ECP-10-HAY                                                                   
CL:ECP-10-HAY                                                                   
CL:ECP-10-HAY                                                                   
CL:ECP-10-HAY                                                                   
                                                                                
********************************************************************************
    -------------------------------------------------------------------
                    CFOUR Control Parameters 
    -------------------------------------------------------------------
        External           Internal           Value            Units
          Name               Name
    -------------------------------------------------------------------
       ABCDTYPE             IABCDT         STANDARD    [  0]    ***   
       ANHARMONIC           IANHAR         OFF         [  0]    ***   
       ANH_ALGORIT          IANALG         STANDARD    [  0]    ***   
       ANH_DERIVAT          IANDER         SECOND      [  1]    ***   
       ANH_MODE             ANHMOD         VIBRATION   [  0]    ***   
       ANH_STEPSIZ          ICUBST             50000          x 10-6  
       ANH_SYMMETR          IANHSM         ABELIAN     [  0]    ***   
       AO_LADDERS           IAOLAD         SINGLEPASS  [  1]    ***   
       AV_SCF               IAVSCF         OFF         [  0]    ***   
       BASIS                IBASIS         SPECIAL     [  0]    ***   
       BOTHVECTORS          BOTHVC         OFF         [  0]    ***   
       BOX_POTENT           IPIAB          OFF         [  0]    ***   
       BREIT                IBREIT         OFF         [  0]    ***   
       BRUCK_CONV           IBRTOL          10D-  4             ***   
       BRUECKNER            IBRKNR         OFF         [  0]    ***   
       BUFFERSIZE           IBUFFS              4096            ***   
       CACHE_RECS           ICHREC             10               ***   
       CALCLEVEL            ICLLVL         SCF         [  0]    ***   
       CCORBOPT             ICCORB         OFF         [  0]  x 0.01  
       CC_CONV              ICCCNV          10D-  7             ***   
       CC_EXPORDER          ICCEOR              0               ***   
       CC_EXTRAPOL          ICCEXT         DIIS        [  1]    ***   
       CC_GUESS             ICCGES         MP2         [  0]    ***   
       CC_MAXCYC            ICCCYC              0              cycles 
       CC_PROGRAM           ICCPRO         VCC         [  0]    ***   
       CHARGE               ICHRGE             -2               ***   
       CHOLESKY             ICHOLE         OFF         [  0]    ***   
       CIS_CONV             ICISTL              5               ***   
       COMM_SIZE            IPSIZE            ***               ***   
       CONSTANT             ICONST         OLD         [  1]    ***   
       CONTINUUM            ICONTU         NONE        [  0]    ***   
       CONTRACTION          ICNTYP         GENERAL     [  1]    ***   
       COORDINATES          ICOORD         CARTESIAN   [  1]    ***   
       CPHF_CONVER          ICPHFT          10D- 16             ***   
       CPHF_MAXCYC          ICPHFC             64              cycles 
       CUBIC                ICUBIC         OFF         [  0]    ***   
       CURVILINEAR          ICURVY         OFF         [  0]    ***   
       DBOC                 IDBOC          OFF         [  0]    ***   
       DCT                  IDCT           OFF         [  0]    ***   
       DERIV_LEV            IDRLVL         ZERO        [  0]    ***   
       DEVMEM_SIZE          IDVMEM          50000000           MByte  
       DIAG_MRCC            IEOMST          10D-  0             ***   
       DIFF_TYPE            IDIFTY         RELAXED     [  0]    ***   
       DIRECT               IDIRCT         OFF         [  0]    ***   
       DROPMO               IDRPMO      NONE         
       ECP                  IECP           ON          [  1]    ***   
       EIGENVECTOR          IVEC                1               ***   
       EL_ANHARM            IELANH         OFF         [  0]    ***   
       EOMFOLLOW            IEOMSR         ENERGY      [  0]    ***   
       EOMIP                IEOMIP         OFF         [  0]    ***   
       EOMLEVEL             HBARFM         SAME        [  0]    ***   
       EOM_MRCC             IMRCCE         NEW         [  1]    ***   
       EOM_NONIT            EOMNON         OFF         [  0]    ***   
       EOM_NSING            IEOMSI          10D-  0             ***   
       EOM_NSTATES          IMRCCD         DAVIDSON    [  0]    ***   
       EOM_NTRIP            IEOMTR          10D-  0             ***   
       EOM_ORDER            IEXORD         ENERGY      [  0]    ***   
       EOM_PROPSTA          IEOMST              0               ***   
       ESTATE_CONV          IEXTOL          10D-  5             ***   
       ESTATE_DIAG          IEXDIG         ITERATIVE   [  0]    ***   
       ESTATE_LOCK          IESLOC         ON          [  1]    ***   
       ESTATE_MAXC          IEXMXC             40               ***   
       ESTATE_PROP          IEXPRP         OFF         [  0]    ***   
       EVAL_HESS            IRECAL              0            # of cyc.
       EXCITATION           IEXCIT              0               ***   
       EXCITE               IEXCIT         NONE        [  0]    ***   
       EXTERN_POT           IEXPOT         OFF         [  0]    ***   
       FCGRADNEW            IFCGNW         OFF         [  0]    ***   
       FC_FIELD             IFINFC              0             x 10-6  
       FD_CALTYPE           IFDCAL         GRADONLY    [  0]    ***   
       FD_PROJECT           IFDPRJ         OFF         [  1]    ***   
       FD_STEPSIZE          IDISFD              0            10-4 bohr
       FD_USEGROUP          IFDGRP         FULL        [  0]    ***   
       FILE_RECSIZ          IFLREC              4096           words  
       FINITE_PERT          IFIPER              0             x 10-6  
       FIXGEOM              IFIXGM         OFF         [  0]    ***   
       FOCK                 IFOCK          AO          [  1]    ***   
       FREQ_ALGORI          IVIALG         STANDARD    [  0]    ***   
       FROZEN_CORE          IFROCO         OFF         [  0]    ***   
       GAMMA_ABCD           IGABCD         STORE       [  0]    ***   
       GAMMA_ABCI           IGABCI         STORE       [  0]    ***   
       GENBAS_1             IGNBS1              0               ***   
       GENBAS_2             IGNBS2              0               ***   
       GENBAS_3             IGNBS3              0               ***   
       GENBAS_4             IGNBS4              0               ***   
       GEO_CONV             ICONTL              5              H/bohr 
       GEO_MAXCYC           IOPTCY             50               ***   
       GEO_MAXSTEP          IMXSTP            300            millibohr
       GEO_METHOD           INR            SINGLE_POINT[  5]    ***   
       GIAO                 IGIAO          OFF         [  1]    ***   
       GIMIC                IGIMIC         OFF         [  0]    ***   
       GRID                 IGRID          OFF         [  0]    ***   
       GRID_ALGO            IGALGO         SERIAL      [  0]    ***   
       GUESS                IGUESS         MOREAD      [  0]    ***   
       HBAR                 IHBAR          OFF         [  0]    ***   
       HESS_TYPE            IHESTP         SCF         [  0]    ***   
       HF2_FILE             IHF2Fl         USE         [  1]    ***   
       HFSTABILITY          ISTABL         OFF         [  0]    ***   
       INCORE               INCORE         OFF         [  0]    ***   
       INPUT_MRCC           IMRCC          ON          [  1]    ***   
       INTEGRALS            INTTYP         VMOL        [  1]    ***   
       JODA_PRINT           IJPRNT              0               ***   
       KEYWORD_OUT          IDMPKW         NO          [  0]    ***   
       LINDEP_TOL           ILINDP              8               ***   
       LINEQ_CONV           IZTACN          10D-  7           cycles  
       LINEQ_EXPOR          ILMAXD              5               ***   
       LINEQ_MAXCY          ILMAXC            100               ***   
       LINEQ_TYPE           ILTYPE         DIIS        [  1]    ***   
       LOCK_ORBOCC          ILOCOC         OFF         [  0]    ***   
       MEMORY_SIZE          IMEMSZ         100000000           words  
       MEM_UNIT             IMEMU          INTEGERWORDS[  0]    ***   
       MRCC                 IMRCCC         OFF         [  0]    ***   
       MULTIPLICTY          IMULTP              1               ***   
       NACOUPLING           IVCOUP         OFF         [  0]    ***   
       NEGEVAL              IDIE           ABORT       [  0]    ***   
       NEWNORM              INEWNO         OFF         [  0]    ***   
       NON-HF               INONHF         OFF         [  0]    ***   
       NTOP_TAMP            ITOPT2             15               ***   
       NUC_MODEL            INUCMO         POINT       [  0]    ***   
       OCCUPATION           IOCCU   ESTIMATED BY SCF 
       OPEN-SHELL           IOPEN          SPIN-ORBITAL[  0]    ***   
       OPTVIB               IOPTVB         OFF         [  0]    ***   
       ORBITALS             IORBTP         STANDARD    [  0]    ***   
       PARALLEL             IPARAL         ON          [  1]    ***   
       PARA_INT             IPINTS         ON          [  1]    ***   
       PARA_PRINT           IPPRIN              0               ***   
       PERT_ORB             IPTORB         STANDARD    [  0]    ***   
       POINTS               IGRDFD              0               ***   
       PRINT                IPRNT               2               ***   
       PROPS                IPROPS         OFF         [  0]    ***   
       PROP_INTEGR          IINTYP         INTERNAL    [  0]    ***   
       PSI                  IPSI           OFF         [  0]    ***   
       QC_ALG               IQCALG         FLM         [  0]    ***   
       QC_LINALG            IQCLIN         TRIDIAG     [  2]    ***   
       QC_MAXCYC            IQCMAX          10D-100           cycles  
       QC_MAXSCFCY          IQCMSC          10D- 15           cycles  
       QC_RTRUST            IQCRTR          10D-  0           x 10-3  
       QC_SKIPSCF           IQCSKI         OFF         [  0]    ***   
       QC_START             IQCSTA          10D-  1             ***   
       QRHFGUESS            IQGUES         OFF         [  0]    ***   
       QUARTIC              IQUART         OFF         [  0]    ***   
       RAMAN_INT            IRAMIN         OFF         [  0]    ***   
       RAMAN_ORB            IRAMRE         UNRELAXED   [  0]    ***   
       RDO                  IRDOFM         OFF         [  0]    ***   
       REDUCE_REPR          REDREP         Ir          [  0]    ***   
       REFERENCE            IREFNC         RHF         [  0]    ***   
       RELATIVIST           IRELAT         OFF         [  0]    ***   
       RELAX_DENS           IRDENS         OFF         [  0]    ***   
       RESET_FLAGS          IRESET         OFF         [  0]    ***   
       RESTART_CC           ICCRES         OFF         [  0]    ***   
       ROT_EVEC             ROTVEC              0               ***   
       SAVE_INTS            ISVINT         OFF         [  0]    ***   
       SCALE_ON             ISTCRT              0               ***   
       SCF_CONV             ISCFCV          10D-  7             ***   
       SCF_DAMPING          IDAMP               0             x 10-3  
       SCF_EXPORDE          IRPPOR              6               ***   
       SCF_EXPSTAR          IRPPLS              8               ***   
       SCF_EXTRAPO          IRPP           ON          [  1]    ***   
       SCF_MAXCYC           ISCFCY            150              cycles 
       SCF_NOSTOP           ISCFST         OFF         [  0]    ***   
       SCF_PRINT            ISCFPR              0               ***   
       SCF_PROG             ISCFPR         SCF         [  0]    ***   
       SD_FIELD             IFINSD              0             x 10-6  
       SOPERT               IPERSO         OFF         [  0]    ***   
       SPHERICAL            IDFGHI         ON          [  1]    ***   
       SPINORBIT            ISOCAL         OFF         [  0]    ***   
       SPINROTATIO          ISRCON         OFF         [  0]    ***   
       SPIN_FLIP            ISPFLP         OFF         [  0]    ***   
       SPIN_ORBIT           ISPORB         OFF         [  0]    ***   
       SPIN_SCAL            ISCSMP         OFF         [  0]    ***   
       STEEPSCALE           ISTPSC              1000          x 10-3  
       SUBGROUP             ISUBGP         DEFAULT     [  0]    ***   
       SUBGRPAXIS           ISBXYZ         X           [  0]    ***   
       SYMMETRY             ISYM           ON          [  0]    ***   
       SYM_CHECK            ISYMCK         OVERRIDE    [  1]    ***   
       T3_EXTRAPOL          IT3EXT         OFF         [  0]    ***   
       T4_EXTRAPOL          IT4EXP         OFF         [  0]    ***   
       TAMP_SUM             IEVERY              0               ***   
       TESTSUITE            ITESTS         OFF         [  0]    ***   
       THERMOCH             ITHERM         OFF         [  0]    ***   
       TOL_CHOLESK          ITOLCH          10D-  4             ***   
       TRANGRAD             IRESRM         OFF         [  0]    ***   
       TRANS_INV            ITRAIN         USE         [  0]    ***   
       TREAT_PERT           ITREAT         SIMULTANEOUS[  0]    ***   
       TRIP_ALGORI          ITRALG         NORMAL      [  0]    ***   
       UIJ_THRESHO          IUIJTH              1               ***   
       UNITS                IUNITS         ANGSTROM    [  0]    ***   
       UNOS                 IUNOS          OFF         [  0]    ***   
       UPDATE_HESS          IHUPDT         ON          [  1]    ***   
       VIBPHASE             ISETPH         STANDARD    [  0]    ***   
       VIBRATION            IVIB           NO          [  0]    ***   
       VIB_ALGORIT          IGEALG         STANDARD    [  0]    ***   
       VNATORB              IVNORB         OFF         [  0]    ***   
       VTRAN                IVTRAN         FULL/PARTIAL[  0]    ***   
       XFIELD               IXEFLD              0             x 10-6  
       XFORM_TOL            IXFTOL          10D- 11             ***   
       YFIELD               IYEFLD              0             x 10-6  
       ZFIELD               IZEFLD              0             x 10-6  
       ZSCALE_EXP           IZEXPS         OFF         [  0]    ***   
    -------------------------------------------------------------------
  @GETXYZ-I,     6 atoms read from ZMAT.
   Rotational constants (in cm-1): 
          0.0205749962             0.0333499982             0.0333500142
   Rotational constants (in MHz): 
        616.8229549977           999.8079334423           999.8084144259
********************************************************************************
   The full molecular point group is C s .
   The largest Abelian subgroup of the full molecular point group is C s .
   The computational point group is C s .
********************************************************************************


 ----------------------------------------------------------------
         Coordinates used in calculation (QCOMP) 
 ----------------------------------------------------------------
 Z-matrix   Atomic            Coordinates (in bohr)
  Symbol    Number           X              Y              Z
 ----------------------------------------------------------------
     MO       42         0.54023363     0.00001027     0.00000000
     O         8         3.73329321     0.00000230     0.00000000
     CL       17        -0.80504570     4.57356193     0.00000000
     CL       17        -0.80504190     0.00000792    -4.57358339
     CL       17        -0.80503620    -4.57360756    -0.00000000
     CL       17        -0.80504190     0.00000792     4.57358339
 ----------------------------------------------------------------
 
  Original Center of Mass Coordinates (QCOM) 
        -0.00002983299176         0.00002983299176         0.54023362995170
        -0.00025471044772         0.00025471044772         3.73329319356472
         3.23405191393190        -3.23405191393190        -0.80460158684056
        -3.23395095316117        -3.23407270092363        -0.80504189311987
        -3.23397362987942         3.23397362987942        -0.80548030967267
         3.23407270092363         3.23395095316117        -0.80504189311987
 
  Transformation matrix between QCOM and QCOMP (OMAT) 
  (QCOM = OMAT * QCOMP, where Q is stored 3 x NATOMS)
        -0.00006866267173         0.00006866267173         0.99999999528544
         0.70710677775156        -0.70710677795414         0.00009710368159
         0.70710678128784         0.70710678108526         0.00000000000001
  test:  OMAT * QCOMP = 
        -0.00002983299178         0.00002983299178         0.54023362995171
        -0.00025471044785         0.00025471044785         3.73329319356472
         3.23405191393099        -3.23405191393287        -0.80460158684033
        -3.23395095316209        -3.23407270092272        -0.80504189311987
        -3.23397362987845         3.23397362988033        -0.80548030967289
         3.23407270092460         3.23395095316020        -0.80504189311987
 
   Interatomic distance matrix (Angstroms) 
 
                 MO            O             CL            CL            CL   
                [ 1]        [ 2]        [ 3]        [ 4]        [ 5]
  MO   [ 1]     0.00000
  O    [ 2]     1.68969     0.00000
  CL   [ 3]     2.52275     3.40956     0.00000
  CL   [ 4]     2.52276     3.40957     3.42272     0.00000
  CL   [ 5]     2.52278     3.40957     4.84047     3.42274     0.00000
  CL   [ 6]     2.52276     3.40957     3.42272     4.84047     3.42274
 
                 CL   
                [ 6]
  CL   [ 6]     0.00000
 rotcon2
   Rotational constants (in cm-1): 
          0.0205749962             0.0333500142             0.0333499982
   Rotational constants (in MHz): 
        616.8229549977           999.8084144259           999.8079334423
  There are   68 basis functions.
 @GEOPT-W, Archive file not created for single-point calculation.
 @CHECKOUT-I, Total execution time (CPU/WALL):        0.07/       0.09 seconds.
--executable xjoda finished with status     0 in        0.12 seconds (walltime).
 --invoking executable--
/ihome/kjordan/shu8/software/source/cfour/cfour-public/bin/xvmol
 SERIAL VERSION OF MOLECULE STARTED
********************************************************************************
                    INPUT FROM MOL FILE
********************************************************************************
INTGRL        1    0    1    1    0    0    0    0    0                         
         *** CFOUR Program System (Release V0.1) ***                            
Mo4OCl4 restricted single point                                                 
    5    1 Z          0.10E-08              0    0                              
   9999.00      3.00                                                            
         42.00000000    1    3    1    1    1                                   
MO#1   0.540233631501566   0.000010268453002   0.000000000000001                
   15    5                                                                      
   3788.66611500000       0.154328967300000       0.000000000000000E+000        
  0.000000000000000E+000  0.000000000000000E+000  0.000000000000000E+000        
   690.110262300000       0.535328142300000       0.000000000000000E+000        
  0.000000000000000E+000  0.000000000000000E+000  0.000000000000000E+000        
   326.430956700000       0.000000000000000E+000 -9.996722919000001E-002        
  0.000000000000000E+000  0.000000000000000E+000  0.000000000000000E+000        
   186.770769100000       0.444634542200000       0.000000000000000E+000        
  0.000000000000000E+000  0.000000000000000E+000  0.000000000000000E+000        
   75.8555342000000       0.000000000000000E+000  0.399512826100000             
  0.000000000000000E+000  0.000000000000000E+000  0.000000000000000E+000        
   35.4694812900000       0.000000000000000E+000  0.000000000000000E+000        
 -0.227763502300000       0.000000000000000E+000  0.000000000000000E+000        
   24.6705740100000       0.000000000000000E+000  0.700115468900000             
  0.000000000000000E+000  0.000000000000000E+000  0.000000000000000E+000        
   10.8193223400000       0.000000000000000E+000  0.000000000000000E+000        
  0.217543604400000       0.000000000000000E+000  0.000000000000000E+000        
   4.17443091200000       0.000000000000000E+000  0.000000000000000E+000        
  0.916676961100000       0.000000000000000E+000  0.000000000000000E+000        
   3.49689518800000       0.000000000000000E+000  0.000000000000000E+000        
  0.000000000000000E+000 -0.330610062600000       0.000000000000000E+000        
   1.36167286100000       0.000000000000000E+000  0.000000000000000E+000        
  0.000000000000000E+000  5.761095338000000E-002  0.000000000000000E+000        
  0.599411745600000       0.000000000000000E+000  0.000000000000000E+000        
  0.000000000000000E+000   1.11557874500000       0.000000000000000E+000        
  0.512962508100000       0.000000000000000E+000  0.000000000000000E+000        
  0.000000000000000E+000  0.000000000000000E+000 -0.384264260800000             
  0.276198597000000       0.000000000000000E+000  0.000000000000000E+000        
  0.000000000000000E+000  0.000000000000000E+000 -0.197256743800000             
  0.122001777300000       0.000000000000000E+000  0.000000000000000E+000        
  0.000000000000000E+000  0.000000000000000E+000   1.37549551200000             
   12    4                                                                      
   326.430956700000       0.155916275000000       0.000000000000000E+000        
  0.000000000000000E+000  0.000000000000000E+000                                
   75.8555342000000       0.607683718600000       0.000000000000000E+000        
  0.000000000000000E+000  0.000000000000000E+000                                
   35.4694812900000       0.000000000000000E+000  4.951511155000000E-003        
  0.000000000000000E+000  0.000000000000000E+000                                
   24.6705740100000       0.391957393100000       0.000000000000000E+000        
  0.000000000000000E+000  0.000000000000000E+000                                
   10.8193223400000       0.000000000000000E+000  0.577766469100000             
  0.000000000000000E+000  0.000000000000000E+000                                
   4.17443091200000       0.000000000000000E+000  0.484646036600000             
  0.000000000000000E+000  0.000000000000000E+000                                
   3.49689518800000       0.000000000000000E+000  0.000000000000000E+000        
 -0.128392763400000       0.000000000000000E+000                                
   1.36167286100000       0.000000000000000E+000  0.000000000000000E+000        
  0.585204764100000       0.000000000000000E+000                                
  0.599411745600000       0.000000000000000E+000  0.000000000000000E+000        
  0.543944204000000       0.000000000000000E+000                                
  0.512962508100000       0.000000000000000E+000  0.000000000000000E+000        
  0.000000000000000E+000 -0.348169152600000                                     
  0.276198597000000       0.000000000000000E+000  0.000000000000000E+000        
  0.000000000000000E+000  0.629032369000000                                     
  0.122001777300000       0.000000000000000E+000  0.000000000000000E+000        
  0.000000000000000E+000  0.666283274300000                                     
    6    2                                                                      
   35.4694812900000       0.219767950800000       0.000000000000000E+000        
   10.8193223400000       0.655547362700000       0.000000000000000E+000        
   4.17443091200000       0.286573259000000       0.000000000000000E+000        
   1.70211231500000       0.000000000000000E+000  0.125066213800000             
  0.662793712700000       0.000000000000000E+000  0.668678557700000             
  0.291763424000000       0.000000000000000E+000  0.305246824500000             
          8.00000000    1    2    1    1                                        
O #2   3.733293210942075   0.000002301545414   0.000000000000000                
    6    2                                                                      
   130.709321400000       0.154328967300000       0.000000000000000E+000        
   23.8088660500000       0.535328142300000       0.000000000000000E+000        
   6.44360831300000       0.444634542200000       0.000000000000000E+000        
   5.03315131900000       0.000000000000000E+000 -9.996722919000001E-002        
   1.16959612500000       0.000000000000000E+000  0.399512826100000             
  0.380388960000000       0.000000000000000E+000  0.700115468900000             
    3    1                                                                      
   5.03315131900000       0.155916275000000                                     
   1.16959612500000       0.607683718600000                                     
  0.380388960000000       0.391957393100000                                     
         17.00000000    1    2    1    1                                        
CL#3  -0.805045700336833   4.573561926762197   0.000000000653823                
    9    3                                                                      
   601.345613600000       0.154328967300000       0.000000000000000E+000        
  0.000000000000000E+000                                                        
   109.535854200000       0.535328142300000       0.000000000000000E+000        
  0.000000000000000E+000                                                        
   38.9604188900000       0.000000000000000E+000 -9.996722919000001E-002        
  0.000000000000000E+000                                                        
   29.6446768600000       0.444634542200000       0.000000000000000E+000        
  0.000000000000000E+000                                                        
   9.05356347700000       0.000000000000000E+000  0.399512826100000             
  0.000000000000000E+000                                                        
   2.94449983400000       0.000000000000000E+000  0.700115468900000             
  0.000000000000000E+000                                                        
   2.12938649500000       0.000000000000000E+000  0.000000000000000E+000        
 -0.219620369000000                                                             
  0.594093427400000       0.000000000000000E+000  0.000000000000000E+000        
  0.225595433600000                                                             
  0.232524141000000       0.000000000000000E+000  0.000000000000000E+000        
  0.900398426000000                                                             
    6    2                                                                      
   38.9604188900000       0.155916275000000       0.000000000000000E+000        
   9.05356347700000       0.607683718600000       0.000000000000000E+000        
   2.94449983400000       0.391957393100000       0.000000000000000E+000        
   2.12938649500000       0.000000000000000E+000  1.058760429000000E-002        
  0.594093427400000       0.000000000000000E+000  0.595167005300000             
  0.232524141000000       0.000000000000000E+000  0.462001012000000             
         17.00000000    1    2    1    1                                        
CL#4  -0.805041897683978   0.000007916790232  -4.573583386678357                
    9    3                                                                      
   601.345613600000       0.154328967300000       0.000000000000000E+000        
  0.000000000000000E+000                                                        
   109.535854200000       0.535328142300000       0.000000000000000E+000        
  0.000000000000000E+000                                                        
   38.9604188900000       0.000000000000000E+000 -9.996722919000001E-002        
  0.000000000000000E+000                                                        
   29.6446768600000       0.444634542200000       0.000000000000000E+000        
  0.000000000000000E+000                                                        
   9.05356347700000       0.000000000000000E+000  0.399512826100000             
  0.000000000000000E+000                                                        
   2.94449983400000       0.000000000000000E+000  0.700115468900000             
  0.000000000000000E+000                                                        
   2.12938649500000       0.000000000000000E+000  0.000000000000000E+000        
 -0.219620369000000                                                             
  0.594093427400000       0.000000000000000E+000  0.000000000000000E+000        
  0.225595433600000                                                             
  0.232524141000000       0.000000000000000E+000  0.000000000000000E+000        
  0.900398426000000                                                             
    6    2                                                                      
   38.9604188900000       0.155916275000000       0.000000000000000E+000        
   9.05356347700000       0.607683718600000       0.000000000000000E+000        
   2.94449983400000       0.391957393100000       0.000000000000000E+000        
   2.12938649500000       0.000000000000000E+000  1.058760429000000E-002        
  0.594093427400000       0.000000000000000E+000  0.595167005300000             
  0.232524141000000       0.000000000000000E+000  0.462001012000000             
         17.00000000    1    2    1    1                                        
CL#5  -0.805036199335942  -4.573607561273712  -0.000000000653830                
    9    3                                                                      
   601.345613600000       0.154328967300000       0.000000000000000E+000        
  0.000000000000000E+000                                                        
   109.535854200000       0.535328142300000       0.000000000000000E+000        
  0.000000000000000E+000                                                        
   38.9604188900000       0.000000000000000E+000 -9.996722919000001E-002        
  0.000000000000000E+000                                                        
   29.6446768600000       0.444634542200000       0.000000000000000E+000        
  0.000000000000000E+000                                                        
   9.05356347700000       0.000000000000000E+000  0.399512826100000             
  0.000000000000000E+000                                                        
   2.94449983400000       0.000000000000000E+000  0.700115468900000             
  0.000000000000000E+000                                                        
   2.12938649500000       0.000000000000000E+000  0.000000000000000E+000        
 -0.219620369000000                                                             
  0.594093427400000       0.000000000000000E+000  0.000000000000000E+000        
  0.225595433600000                                                             
  0.232524141000000       0.000000000000000E+000  0.000000000000000E+000        
  0.900398426000000                                                             
    6    2                                                                      
   38.9604188900000       0.155916275000000       0.000000000000000E+000        
   9.05356347700000       0.607683718600000       0.000000000000000E+000        
   2.94449983400000       0.391957393100000       0.000000000000000E+000        
   2.12938649500000       0.000000000000000E+000  1.058760429000000E-002        
  0.594093427400000       0.000000000000000E+000  0.595167005300000             
  0.232524141000000       0.000000000000000E+000  0.462001012000000             
FINISH                                                                          
 
********************************************************************************
 ONE- AND TWO-ELECTRON INTEGRALS OVER SYMMETRY-ADAPTED AOS ARE CALCULATED.

  SPHERICAL HARMONICS ARE USED.
  
  EFFECTIVE CORE POTENTIALS ARE USED.
   5 TYPES OF ATOMS
   1 SYMMETRY OPERATIONS

   REFLECTION IN THE XY-PLANE
  
  INTEGRALS LESS THAN  0.10E-13 ARE NEGLECTED.

  ATOMIC TYPE NUMBER  1 :
  -----------------------

    NUCLEAR CHARGE:                       42
    NUMBER OF SYMMETRY INDEPENDENT ATOMS:  1
    HIGHEST ORBITAL TYPE:                  D

      1 GROUPS OF CGTOS OF S TYPE
      1 GROUPS OF CGTOS OF P TYPE
      1 GROUPS OF CGTOS OF D TYPE

    NUCLEAR COORDINATES (IN A.U.) ARE :

    MO#1        0.540233631501566        0.000010268453002        0.000000000000001
  
  ATOMIC TYPE NUMBER  2 :
  -----------------------

    NUCLEAR CHARGE:                        8
    NUMBER OF SYMMETRY INDEPENDENT ATOMS:  1
    HIGHEST ORBITAL TYPE:                  P

      1 GROUPS OF CGTOS OF S TYPE
      1 GROUPS OF CGTOS OF P TYPE

    NUCLEAR COORDINATES (IN A.U.) ARE :

    O #2        3.733293210942075        0.000002301545414        0.000000000000000
  
  ATOMIC TYPE NUMBER  3 :
  -----------------------

    NUCLEAR CHARGE:                       17
    NUMBER OF SYMMETRY INDEPENDENT ATOMS:  1
    HIGHEST ORBITAL TYPE:                  P

      1 GROUPS OF CGTOS OF S TYPE
      1 GROUPS OF CGTOS OF P TYPE

    NUCLEAR COORDINATES (IN A.U.) ARE :

    CL#3       -0.805045700336833        4.573561926762197        0.000000000653823
  
  ATOMIC TYPE NUMBER  4 :
  -----------------------

    NUCLEAR CHARGE:                       17
    NUMBER OF SYMMETRY INDEPENDENT ATOMS:  1
    HIGHEST ORBITAL TYPE:                  P

      1 GROUPS OF CGTOS OF S TYPE
      1 GROUPS OF CGTOS OF P TYPE

    NUCLEAR COORDINATES (IN A.U.) ARE :

    CL#4       -0.805041897683978        0.000007916790232       -4.573583386678357
  
  ATOMIC TYPE NUMBER  5 :
  -----------------------

    NUCLEAR CHARGE:                       17
    NUMBER OF SYMMETRY INDEPENDENT ATOMS:  1
    HIGHEST ORBITAL TYPE:                  P

      1 GROUPS OF CGTOS OF S TYPE
      1 GROUPS OF CGTOS OF P TYPE

    NUCLEAR COORDINATES (IN A.U.) ARE :

    CL#5       -0.805036199335942       -4.573607561273712       -0.000000000653830
  
 ECP CALLED
 reading data block $ecp from file <ECPDATA>

          ------------------
          -ecp- potential(s)
          ------------------
 ECP PARAMETERS FOR ATOM                     1
MO:ECP-28-HAY   CL:E
*
  NCORE =    28           LMAX =     3
#        COEFFICIENT   R^N          EXPONENT
f
          -0.0469492    0         537.9667807
         -20.2080084    1         147.8982938
        -106.2116302    2          45.7358898
         -41.8107368    2          13.2911467
          -4.2054103    2           4.7059961
s-f
           2.8063717    0         110.2991760
          44.5162012    1          23.2014645
          82.7785227    2           5.3530131
p-f
           4.9420876    0          63.2901397
          25.8604976    1          23.3315302
         132.4708742    2          24.6759423
          57.3149794    2           4.6493040
d-f
           3.0054591    0         104.4839977
          26.3637851    1          66.2307245
         183.3849199    2          39.1283176
          98.4453068    2          13.1164437
          22.4901377    2           3.6280263
*
 ECP PARAMETERS FOR ATOM                     3
CL:ECP-10-HAY       
*
  NCORE =    10           LMAX =     2
#        COEFFICIENT   R^N          EXPONENT
d
         -10.0000000    1          94.8130000
         -66.2729170    2         165.6440000
         -28.9685950    2          30.8317000
         -12.8663370    2          10.5841000
          -1.7102170    2           3.7704000
s-d
           3.0000000    0         128.8391000
          12.8528510    1         120.3786000
         275.6723980    2          63.5622000
         115.6777120    2          18.0695000
          35.0606090    2           3.8142000
p-d
           5.0000000    0         216.5263000
           7.4794860    1          46.5723000
         613.0320000    2         147.4685000
         280.8006850    2          48.9869000
         107.8788240    2          13.2096000
          15.3439560    2           3.1831000
*
 ECP PARAMETERS FOR ATOM                     4
CL:ECP-10-HAY       
*
  NCORE =    10           LMAX =     2
#        COEFFICIENT   R^N          EXPONENT
d
         -10.0000000    1          94.8130000
         -66.2729170    2         165.6440000
         -28.9685950    2          30.8317000
         -12.8663370    2          10.5841000
          -1.7102170    2           3.7704000
s-d
           3.0000000    0         128.8391000
          12.8528510    1         120.3786000
         275.6723980    2          63.5622000
         115.6777120    2          18.0695000
          35.0606090    2           3.8142000
p-d
           5.0000000    0         216.5263000
           7.4794860    1          46.5723000
         613.0320000    2         147.4685000
         280.8006850    2          48.9869000
         107.8788240    2          13.2096000
          15.3439560    2           3.1831000
*
 ECP PARAMETERS FOR ATOM                     5
CL:ECP-10-HAY       
*
  NCORE =    10           LMAX =     2
#        COEFFICIENT   R^N          EXPONENT
d
         -10.0000000    1          94.8130000
         -66.2729170    2         165.6440000
         -28.9685950    2          30.8317000
         -12.8663370    2          10.5841000
          -1.7102170    2           3.7704000
s-d
           3.0000000    0         128.8391000
          12.8528510    1         120.3786000
         275.6723980    2          63.5622000
         115.6777120    2          18.0695000
          35.0606090    2           3.8142000
p-d
           5.0000000    0         216.5263000
           7.4794860    1          46.5723000
         613.0320000    2         147.4685000
         280.8006850    2          48.9869000
         107.8788240    2          13.2096000
          15.3439560    2           3.1831000
*

     code set-up for matrix elements of effective core potential

          basis functions are max type  i
          projection operator max type  h
          1.basic angular ints.........     0.01 sec
          2.local operator ints........     0.00 sec
          3.projection operator ints...     0.00 sec
          4.special angular ints.......     0.00 sec

   INTERNUCLEAR DISTANCES (A) :

     FOR ATOM MO#1 (COORDINATES :   0.54023   0.00001   0.00000)

     O #2   1     DISTANCE IS  1.690
     CL#3   1     DISTANCE IS  2.523
     CL#4   1     DISTANCE IS  2.523
     CL#5   1     DISTANCE IS  2.523

     FOR ATOM O #2 (COORDINATES :   3.73329   0.00000   0.00000)

     CL#3   1     DISTANCE IS  3.410
     CL#4   1     DISTANCE IS  3.410
     CL#5   1     DISTANCE IS  3.410

     FOR ATOM CL#3 (COORDINATES :  -0.80505   4.57356   0.00000)

     CL#4   1     DISTANCE IS  3.423
     CL#5   1     DISTANCE IS  4.840

     FOR ATOM CL#4 (COORDINATES :  -0.80504   0.00001  -4.57358)

     CL#4   2     DISTANCE IS  4.840
     CL#5   1     DISTANCE IS  3.423

     FOR ATOM CL#5 (COORDINATES :  -0.80504  -4.57361  -0.00000)


   GROUP MULTIPLICATION TABLE :

         1   2
         2   1

   GAUSSIAN BASIS INFORMATION :

   ATOM                 EXPONENT      COEFFICIENTS

 MO#1  1    S   
+                 1    3788.666115   0.1543290   0.0000000   0.0000000   0.0000000   0.0000000
                  2     690.110262   0.5353281   0.0000000   0.0000000   0.0000000   0.0000000
                  3     326.430957   0.0000000  -0.0999672   0.0000000   0.0000000   0.0000000
                  4     186.770769   0.4446345   0.0000000   0.0000000   0.0000000   0.0000000
                  5      75.855534   0.0000000   0.3995128   0.0000000   0.0000000   0.0000000
                  6      35.469481   0.0000000   0.0000000  -0.2277635   0.0000000   0.0000000
                  7      24.670574   0.0000000   0.7001155   0.0000000   0.0000000   0.0000000
                  8      10.819322   0.0000000   0.0000000   0.2175436   0.0000000   0.0000000
                  9       4.174431   0.0000000   0.0000000   0.9166770   0.0000000   0.0000000
                 10       3.496895   0.0000000   0.0000000   0.0000000  -0.3306101   0.0000000
                 11       1.361673   0.0000000   0.0000000   0.0000000   0.0576110   0.0000000
                 12       0.599412   0.0000000   0.0000000   0.0000000   1.1155787   0.0000000
                 13       0.512963   0.0000000   0.0000000   0.0000000   0.0000000  -0.3842643
                 14       0.276199   0.0000000   0.0000000   0.0000000   0.0000000  -0.1972567
                 15       0.122002   0.0000000   0.0000000   0.0000000   0.0000000   1.3754955

 MO#1  1    X   
+                16     326.430957   0.1559163   0.0000000   0.0000000   0.0000000
                 17      75.855534   0.6076837   0.0000000   0.0000000   0.0000000
                 18      35.469481   0.0000000   0.0049515   0.0000000   0.0000000
                 19      24.670574   0.3919574   0.0000000   0.0000000   0.0000000
                 20      10.819322   0.0000000   0.5777665   0.0000000   0.0000000
                 21       4.174431   0.0000000   0.4846460   0.0000000   0.0000000
                 22       3.496895   0.0000000   0.0000000  -0.1283928   0.0000000
                 23       1.361673   0.0000000   0.0000000   0.5852048   0.0000000
                 24       0.599412   0.0000000   0.0000000   0.5439442   0.0000000
                 25       0.512963   0.0000000   0.0000000   0.0000000  -0.3481692
                 26       0.276199   0.0000000   0.0000000   0.0000000   0.6290324
                 27       0.122002   0.0000000   0.0000000   0.0000000   0.6662833

 MO#1  1    Y   
+                28     326.430957   0.1559163   0.0000000   0.0000000   0.0000000
                 29      75.855534   0.6076837   0.0000000   0.0000000   0.0000000
                 30      35.469481   0.0000000   0.0049515   0.0000000   0.0000000
                 31      24.670574   0.3919574   0.0000000   0.0000000   0.0000000
                 32      10.819322   0.0000000   0.5777665   0.0000000   0.0000000
                 33       4.174431   0.0000000   0.4846460   0.0000000   0.0000000
                 34       3.496895   0.0000000   0.0000000  -0.1283928   0.0000000
                 35       1.361673   0.0000000   0.0000000   0.5852048   0.0000000
                 36       0.599412   0.0000000   0.0000000   0.5439442   0.0000000
                 37       0.512963   0.0000000   0.0000000   0.0000000  -0.3481692
                 38       0.276199   0.0000000   0.0000000   0.0000000   0.6290324
                 39       0.122002   0.0000000   0.0000000   0.0000000   0.6662833

 MO#1  1    Z   
+                40     326.430957   0.1559163   0.0000000   0.0000000   0.0000000
                 41      75.855534   0.6076837   0.0000000   0.0000000   0.0000000
                 42      35.469481   0.0000000   0.0049515   0.0000000   0.0000000
                 43      24.670574   0.3919574   0.0000000   0.0000000   0.0000000
                 44      10.819322   0.0000000   0.5777665   0.0000000   0.0000000
                 45       4.174431   0.0000000   0.4846460   0.0000000   0.0000000
                 46       3.496895   0.0000000   0.0000000  -0.1283928   0.0000000
                 47       1.361673   0.0000000   0.0000000   0.5852048   0.0000000
                 48       0.599412   0.0000000   0.0000000   0.5439442   0.0000000
                 49       0.512963   0.0000000   0.0000000   0.0000000  -0.3481692
                 50       0.276199   0.0000000   0.0000000   0.0000000   0.6290324
                 51       0.122002   0.0000000   0.0000000   0.0000000   0.6662833

 MO#1  1    XX  
+                52      35.469481   0.2197680   0.0000000
                 53      10.819322   0.6555474   0.0000000
                 54       4.174431   0.2865733   0.0000000
                 55       1.702112   0.0000000   0.1250662
                 56       0.662794   0.0000000   0.6686786
                 57       0.291763   0.0000000   0.3052468

 MO#1  1    XY  
+                58      35.469481   0.2197680   0.0000000
                 59      10.819322   0.6555474   0.0000000
                 60       4.174431   0.2865733   0.0000000
                 61       1.702112   0.0000000   0.1250662
                 62       0.662794   0.0000000   0.6686786
                 63       0.291763   0.0000000   0.3052468

 MO#1  1    XZ  
+                64      35.469481   0.2197680   0.0000000
                 65      10.819322   0.6555474   0.0000000
                 66       4.174431   0.2865733   0.0000000
                 67       1.702112   0.0000000   0.1250662
                 68       0.662794   0.0000000   0.6686786
                 69       0.291763   0.0000000   0.3052468

 MO#1  1    YY  
+                70      35.469481   0.2197680   0.0000000
                 71      10.819322   0.6555474   0.0000000
                 72       4.174431   0.2865733   0.0000000
                 73       1.702112   0.0000000   0.1250662
                 74       0.662794   0.0000000   0.6686786
                 75       0.291763   0.0000000   0.3052468

 MO#1  1    YZ  
+                76      35.469481   0.2197680   0.0000000
                 77      10.819322   0.6555474   0.0000000
                 78       4.174431   0.2865733   0.0000000
                 79       1.702112   0.0000000   0.1250662
                 80       0.662794   0.0000000   0.6686786
                 81       0.291763   0.0000000   0.3052468

 MO#1  1    ZZ  
+                82      35.469481   0.2197680   0.0000000
                 83      10.819322   0.6555474   0.0000000
                 84       4.174431   0.2865733   0.0000000
                 85       1.702112   0.0000000   0.1250662
                 86       0.662794   0.0000000   0.6686786
                 87       0.291763   0.0000000   0.3052468

 O #2  1    S   
+                88     130.709321   0.1543290   0.0000000
                 89      23.808866   0.5353281   0.0000000
                 90       6.443608   0.4446345   0.0000000
                 91       5.033151   0.0000000  -0.0999672
                 92       1.169596   0.0000000   0.3995128
                 93       0.380389   0.0000000   0.7001155

 O #2  1    X   
+                94       5.033151   0.1559163
                 95       1.169596   0.6076837
                 96       0.380389   0.3919574

 O #2  1    Y   
+                97       5.033151   0.1559163
                 98       1.169596   0.6076837
                 99       0.380389   0.3919574

 O #2  1    Z   
+               100       5.033151   0.1559163
                101       1.169596   0.6076837
                102       0.380389   0.3919574

 CL#3  1    S   
+               103     601.345614   0.1543290   0.0000000   0.0000000
                104     109.535854   0.5353281   0.0000000   0.0000000
                105      38.960419   0.0000000  -0.0999672   0.0000000
                106      29.644677   0.4446345   0.0000000   0.0000000
                107       9.053563   0.0000000   0.3995128   0.0000000
                108       2.944500   0.0000000   0.7001155   0.0000000
                109       2.129386   0.0000000   0.0000000  -0.2196204
                110       0.594093   0.0000000   0.0000000   0.2255954
                111       0.232524   0.0000000   0.0000000   0.9003984

 CL#3  1    X   
+               112      38.960419   0.1559163   0.0000000
                113       9.053563   0.6076837   0.0000000
                114       2.944500   0.3919574   0.0000000
                115       2.129386   0.0000000   0.0105876
                116       0.594093   0.0000000   0.5951670
                117       0.232524   0.0000000   0.4620010

 CL#3  1    Y   
+               118      38.960419   0.1559163   0.0000000
                119       9.053563   0.6076837   0.0000000
                120       2.944500   0.3919574   0.0000000
                121       2.129386   0.0000000   0.0105876
                122       0.594093   0.0000000   0.5951670
                123       0.232524   0.0000000   0.4620010

 CL#3  1    Z   
+               124      38.960419   0.1559163   0.0000000
                125       9.053563   0.6076837   0.0000000
                126       2.944500   0.3919574   0.0000000
                127       2.129386   0.0000000   0.0105876
                128       0.594093   0.0000000   0.5951670
                129       0.232524   0.0000000   0.4620010

 CL#4  1    S   
+               130     601.345614   0.1543290   0.0000000   0.0000000
                131     109.535854   0.5353281   0.0000000   0.0000000
                132      38.960419   0.0000000  -0.0999672   0.0000000
                133      29.644677   0.4446345   0.0000000   0.0000000
                134       9.053563   0.0000000   0.3995128   0.0000000
                135       2.944500   0.0000000   0.7001155   0.0000000
                136       2.129386   0.0000000   0.0000000  -0.2196204
                137       0.594093   0.0000000   0.0000000   0.2255954
                138       0.232524   0.0000000   0.0000000   0.9003984

 CL#4  2    S   
+               139     601.345614   0.1543290   0.0000000   0.0000000
                140     109.535854   0.5353281   0.0000000   0.0000000
                141      38.960419   0.0000000  -0.0999672   0.0000000
                142      29.644677   0.4446345   0.0000000   0.0000000
                143       9.053563   0.0000000   0.3995128   0.0000000
                144       2.944500   0.0000000   0.7001155   0.0000000
                145       2.129386   0.0000000   0.0000000  -0.2196204
                146       0.594093   0.0000000   0.0000000   0.2255954
                147       0.232524   0.0000000   0.0000000   0.9003984

 CL#4  1    X   
+               148      38.960419   0.1559163   0.0000000
                149       9.053563   0.6076837   0.0000000
                150       2.944500   0.3919574   0.0000000
                151       2.129386   0.0000000   0.0105876
                152       0.594093   0.0000000   0.5951670
                153       0.232524   0.0000000   0.4620010

 CL#4  2    X   
+               154      38.960419   0.1559163   0.0000000
                155       9.053563   0.6076837   0.0000000
                156       2.944500   0.3919574   0.0000000
                157       2.129386   0.0000000   0.0105876
                158       0.594093   0.0000000   0.5951670
                159       0.232524   0.0000000   0.4620010

 CL#4  1    Y   
+               160      38.960419   0.1559163   0.0000000
                161       9.053563   0.6076837   0.0000000
                162       2.944500   0.3919574   0.0000000
                163       2.129386   0.0000000   0.0105876
                164       0.594093   0.0000000   0.5951670
                165       0.232524   0.0000000   0.4620010

 CL#4  2    Y   
+               166      38.960419   0.1559163   0.0000000
                167       9.053563   0.6076837   0.0000000
                168       2.944500   0.3919574   0.0000000
                169       2.129386   0.0000000   0.0105876
                170       0.594093   0.0000000   0.5951670
                171       0.232524   0.0000000   0.4620010

 CL#4  1    Z   
+               172      38.960419   0.1559163   0.0000000
                173       9.053563   0.6076837   0.0000000
                174       2.944500   0.3919574   0.0000000
                175       2.129386   0.0000000   0.0105876
                176       0.594093   0.0000000   0.5951670
                177       0.232524   0.0000000   0.4620010

 CL#4  2    Z   
+               178      38.960419   0.1559163   0.0000000
                179       9.053563   0.6076837   0.0000000
                180       2.944500   0.3919574   0.0000000
                181       2.129386   0.0000000   0.0105876
                182       0.594093   0.0000000   0.5951670
                183       0.232524   0.0000000   0.4620010

 CL#5  1    S   
+               184     601.345614   0.1543290   0.0000000   0.0000000
                185     109.535854   0.5353281   0.0000000   0.0000000
                186      38.960419   0.0000000  -0.0999672   0.0000000
                187      29.644677   0.4446345   0.0000000   0.0000000
                188       9.053563   0.0000000   0.3995128   0.0000000
                189       2.944500   0.0000000   0.7001155   0.0000000
                190       2.129386   0.0000000   0.0000000  -0.2196204
                191       0.594093   0.0000000   0.0000000   0.2255954
                192       0.232524   0.0000000   0.0000000   0.9003984

 CL#5  1    X   
+               193      38.960419   0.1559163   0.0000000
                194       9.053563   0.6076837   0.0000000
                195       2.944500   0.3919574   0.0000000
                196       2.129386   0.0000000   0.0105876
                197       0.594093   0.0000000   0.5951670
                198       0.232524   0.0000000   0.4620010

 CL#5  1    Y   
+               199      38.960419   0.1559163   0.0000000
                200       9.053563   0.6076837   0.0000000
                201       2.944500   0.3919574   0.0000000
                202       2.129386   0.0000000   0.0105876
                203       0.594093   0.0000000   0.5951670
                204       0.232524   0.0000000   0.4620010

 CL#5  1    Z   
+               205      38.960419   0.1559163   0.0000000
                206       9.053563   0.6076837   0.0000000
                207       2.944500   0.3919574   0.0000000
                208       2.129386   0.0000000   0.0105876
                209       0.594093   0.0000000   0.5951670
                210       0.232524   0.0000000   0.4620010
 70 68
  1  2  3  4  5  6  7  8  9 10 11 12 13 14 15 16 17 18 19****** 20 21 22 23
 24 25 26 27 28 29 30 31 32 33 34 35 36 37 38 39 40 41 42 43 44 45 46 47 48
 49 50 51 52 53 54 55 56 57 58 59 60 61 62 63 64 65 66 67 68
1

             SYMMETRY TRANSFORMATION INFO
             68 SYMMETRY ADAPTED BASIS FUNCTIONS 


          IRREDUCIBLE REPRESENTATION NUMBER 1

    1    1  MO#1     1S     1   1   1.0
    2    2  MO#1     1S     1   2   1.0
    3    3  MO#1     1S     1   3   1.0
    4    4  MO#1     1S     1   4   1.0
    5    5  MO#1     1S     1   5   1.0
    6    6  MO#1     2PX    1   6   1.0
    7    7  MO#1     2PX    1   7   1.0
    8    8  MO#1     2PX    1   8   1.0
    9    9  MO#1     2PX    1   9   1.0
   10   10  MO#1     2PY    1  10   1.0
   11   11  MO#1     2PY    1  11   1.0
   12   12  MO#1     2PY    1  12   1.0
   13   13  MO#1     2PY    1  13   1.0
   14   14  MO#1     3D2-   3  18  -1.0  24  -1.0  28   2.0
   15   15  MO#1     3D2-   3  19  -1.0  25  -1.0  29   2.0
   16   16  MO#1     3D1-   1  20   1.0
   17   17  MO#1     3D1-   1  21   1.0
   18   18  MO#1     3D1+   2  18   1.0  24  -1.0
   19   19  MO#1     3D1+   2  19   1.0  25  -1.0
   20   20  O #2     1S     1  30   1.0
   21   21  O #2     1S     1  31   1.0
   22   22  O #2     2PX    1  32   1.0
   23   23  O #2     2PY    1  33   1.0
   24   24  CL#3     1S     1  35   1.0
   25   25  CL#3     1S     1  36   1.0
   26   26  CL#3     1S     1  37   1.0
   27   27  CL#3     2PX    1  38   1.0
   28   28  CL#3     2PX    1  39   1.0
   29   29  CL#3     2PY    1  40   1.0
   30   30  CL#3     2PY    1  41   1.0
   31   31  CL#4     1S     2  44   1.0  45   1.0
   32   32  CL#4     1S     2  46   1.0  47   1.0
   33   33  CL#4     1S     2  48   1.0  49   1.0
   34   34  CL#4     2PX    2  50   1.0  51   1.0
   35   35  CL#4     2PX    2  52   1.0  53   1.0
   36   36  CL#4     2PY    2  54   1.0  55   1.0
   37   37  CL#4     2PY    2  56   1.0  57   1.0
   38   38  CL#4     2PZ    2  58   1.0  59  -1.0
   39   39  CL#4     2PZ    2  60   1.0  61  -1.0
   40   40  CL#5     1S     1  62   1.0
   41   41  CL#5     1S     1  63   1.0
   42   42  CL#5     1S     1  64   1.0
   43   43  CL#5     2PX    1  65   1.0
   44   44  CL#5     2PX    1  66   1.0
   45   45  CL#5     2PY    1  67   1.0
   46   46  CL#5     2PY    1  68   1.0


          IRREDUCIBLE REPRESENTATION NUMBER 2

   47    1  MO#1     2PZ    1  14   1.0
   48    2  MO#1     2PZ    1  15   1.0
   49    3  MO#1     2PZ    1  16   1.0
   50    4  MO#1     2PZ    1  17   1.0
   51    5  MO#1     3D0    1  22   1.0
   52    6  MO#1     3D0    1  23   1.0
   53    7  MO#1     3D2+   1  26   1.0
   54    8  MO#1     3D2+   1  27   1.0
   55    9  O #2     2PZ    1  34   1.0
   56   10  CL#3     2PZ    1  42   1.0
   57   11  CL#3     2PZ    1  43   1.0
   58   12  CL#4     1S     2  44   1.0  45  -1.0
   59   13  CL#4     1S     2  46   1.0  47  -1.0
   60   14  CL#4     1S     2  48   1.0  49  -1.0
   61   15  CL#4     2PX    2  50   1.0  51  -1.0
   62   16  CL#4     2PX    2  52   1.0  53  -1.0
   63   17  CL#4     2PY    2  54   1.0  55  -1.0
   64   18  CL#4     2PY    2  56   1.0  57  -1.0
   65   19  CL#4     2PZ    2  58   1.0  59   1.0
   66   20  CL#4     2PZ    2  60   1.0  61   1.0
   67   21  CL#5     2PZ    1  69   1.0
   68   22  CL#5     2PZ    1  70   1.0
  NUCLEAR REPULSION ENERGY :  193.0846233121 A.U.
 IA, IDEXATOM                     1                     1
 IA, IDEXATOM                     2                     2
 IA, IDEXATOM                     3                     3
 IA, IDEXATOM                     4                     4
 IA, IDEXATOM                     5                     5
 IA, IDEXATOM                     6                     4
 call cvw_ecp_int
 ECP: maximum angular momentum =                     2
 ECP: maximum angular projector=                     2
 total number of basis functions                    70
! CPU time for ECP integrals:     0.0 seconds.
  @MOLECU-I, ECP-INTEGRALS (CPU/WALL):       0.02/       0.02 SECONDS.
  @MOLECU-I, ONE ELECTRON INTEGRALS (CPU/WALL):        0.02/       0.02 SECONDS.
  @TWOEL-I,     370407 INTEGRALS OF SYMMETRY TYPE  I I I I
  @TWOEL-I,     296965 INTEGRALS OF SYMMETRY TYPE  I J I J
  @TWOEL-I,     173648 INTEGRALS OF SYMMETRY TYPE  I I J J
  @TWOEL-I, TOTAL NUMBER OF 2-E INTEGRALS     841020.
  @MOLECU-I, TWO ELECTRON INTEGRALS (CPU/WALL):        0.76/       0.76 SECONDS.
 @CHECKOUT-I, Total execution time (CPU/WALL):        0.81/       0.81 seconds.

OMP_NUM_THREADS not specified; defaulting to 1
Running with 1 threads/proc

--executable xvmol finished with status     0 in        0.84 seconds (walltime).
 --invoking executable--
/ihome/kjordan/shu8/software/source/cfour/cfour-public/bin/xvmol2ja
 @GETMEM-I,  Allocated     762 MB of main memory.
 ZMAT order <=> comp order: mapping vector 
           1    1
           2    2
           3    3
           4    4
           6    5
           5    6
 @CHECKOUT-I, Total execution time (CPU/WALL):        0.00/       0.01 seconds.
--executable xvmol2ja finished with status     0 in        0.03 seconds (walltime).
 --invoking executable--
/ihome/kjordan/shu8/software/source/cfour/cfour-public/bin/xvscf
  There are   68 functions in the AO basis.

  There are 2 irreducible representations.

       Irrep        # of functions
         1                 46
         2                 22


  Parameters for SCF calculation: 
        SCF reference function:  RHF  
  Maximum number of iterations:  150
     Full symmetry point group: C s 
     Computational point group: C s 
        Initial density matrix: MOREAD                 
     SCF convergence tolerance: 10**(- 7)
  DIIS convergence acceleration:  ON
          Latest start for DIIS:   8
                     DIIS order:   6

  Memory information:     219476 words required.
  Fock matrices are constructed from AO integral file.
 @GETMEM-I,  Allocated       1 MB of main memory.
  Initialization and symmetry analysis required      0.001 seconds.

 Read in ECP integrals from hard disk!
 unsymmetric error:  5.231025996048661E-010
 @INITGES-I, Routine entered. 
  @INITGES-I, Occupancies from core Hamiltonian:

          Alpha population by irrep:  17    9
           Beta population by irrep:  17    9


 total no. of electrons in initial guess :  0.000000000000000E+000
  --------------------------------------------------------------------
  Iteration         Total Energy            Largest Density Difference
  --------------------------------------------------------------------
       0           193.084623312063883              0.0000000000D+00
   current occupation vector 
    17  9
    17  9
  processed                 370407  ao basis integrals from 
                    91  buffers.
  processed                 173648  ao basis integrals from 
                    43  buffers.
  processed                 296965  ao basis integrals from 
                    73  buffers.
       1          -166.547928264612864              0.3779036768D+01
   current occupation vector 
    17  9
    17  9
  processed                 370407  ao basis integrals from 
                    91  buffers.
  processed                 173648  ao basis integrals from 
                    43  buffers.
  processed                 296965  ao basis integrals from 
                    73  buffers.
       2          -186.534686691171288              0.2182693193D+01
   current occupation vector 
    18  8
    18  8
  processed                 370407  ao basis integrals from 
                    91  buffers.
  processed                 173648  ao basis integrals from 
                    43  buffers.
  processed                 296965  ao basis integrals from 
                    73  buffers.
       3          -183.410165075798744              0.2025553203D+01
   current occupation vector 
    18  8
    18  8
  processed                 370407  ao basis integrals from 
                    91  buffers.
  processed                 173648  ao basis integrals from 
                    43  buffers.
  processed                 296965  ao basis integrals from 
                    73  buffers.
       4          -189.556302743134410              0.2045075997D+01
   current occupation vector 
    18  8
    18  8
 
 sum over diagonal and offdiagdiagonal of C(T)*S*C for irrep
                     1
  2.113864638886298E-013  2.302056142390850E-013
 reorthoganalization of MOs is carried out
 sum over diagonal and offdiagdiagonal of C(T)*S*C for irrep
                     1
 -9.992007221626409E-016 -1.300319125802922E-015
 
 sum over diagonal and offdiagdiagonal of C(T)*S*C for irrep
                     2
 -1.831867990631508E-014  5.711396283976303E-015
 reorthoganalization of MOs is carried out
 sum over diagonal and offdiagdiagonal of C(T)*S*C for irrep
                     2
 -2.220446049250313E-016 -1.483389028221479E-015
  processed                 370407  ao basis integrals from 
                    91  buffers.
  processed                 173648  ao basis integrals from 
                    43  buffers.
  processed                 296965  ao basis integrals from 
                    73  buffers.
       5          -184.611010715263973              0.2005350642D+01
   current occupation vector 
    18  8
    18  8
  processed                 370407  ao basis integrals from 
                    91  buffers.
  processed                 173648  ao basis integrals from 
                    43  buffers.
  processed                 296965  ao basis integrals from 
                    73  buffers.
       6          -190.859286727027182              0.2222323150D+01
   current occupation vector 
    18  8
    18  8
  processed                 370407  ao basis integrals from 
                    91  buffers.
  processed                 173648  ao basis integrals from 
                    43  buffers.
  processed                 296965  ao basis integrals from 
                    73  buffers.
       7          -184.519716844734063              0.2497958702D+01
   current occupation vector 
    18  8
    18  8
  processed                 370407  ao basis integrals from 
                    91  buffers.
  processed                 173648  ao basis integrals from 
                    43  buffers.
  processed                 296965  ao basis integrals from 
                    73  buffers.
       8          -191.345772259029815              0.2532207840D+01
   current occupation vector 
    18  8
    18  8
  processed                 370407  ao basis integrals from 
                    91  buffers.
  processed                 173648  ao basis integrals from 
                    43  buffers.
  processed                 296965  ao basis integrals from 
                    73  buffers.
       9          -197.477825131562867              0.1694710294D+01
   current occupation vector 
    18  8
    18  8
 
 sum over diagonal and offdiagdiagonal of C(T)*S*C for irrep
                     1
  2.547961841514734E-013  1.018699429240646E-013
 reorthoganalization of MOs is carried out
 sum over diagonal and offdiagdiagonal of C(T)*S*C for irrep
                     1
 -3.330669073875470E-016  1.281735452101504E-015
 
 sum over diagonal and offdiagdiagonal of C(T)*S*C for irrep
                     2
  3.441691376337985E-015 -4.416395151690903E-015
 reorthoganalization of MOs is carried out
 sum over diagonal and offdiagdiagonal of C(T)*S*C for irrep
                     2
 -1.332267629550188E-015  1.650663178313221E-015
  processed                 370407  ao basis integrals from 
                    91  buffers.
  processed                 173648  ao basis integrals from 
                    43  buffers.
  processed                 296965  ao basis integrals from 
                    73  buffers.
      10          -198.329238051351666              0.3841918626D+00
   current occupation vector 
    18  8
    18  8
  processed                 370407  ao basis integrals from 
                    91  buffers.
  processed                 173648  ao basis integrals from 
                    43  buffers.
  processed                 296965  ao basis integrals from 
                    73  buffers.
      11          -198.512809888283613              0.3088159368D+00
   current occupation vector 
    18  8
    18  8
  processed                 370407  ao basis integrals from 
                    91  buffers.
  processed                 173648  ao basis integrals from 
                    43  buffers.
  processed                 296965  ao basis integrals from 
                    73  buffers.
      12          -198.515482199460820              0.4081571299D-01
   current occupation vector 
    18  8
    18  8
  processed                 370407  ao basis integrals from 
                    91  buffers.
  processed                 173648  ao basis integrals from 
                    43  buffers.
  processed                 296965  ao basis integrals from 
                    73  buffers.
      13          -198.516421034535853              0.2765098883D-01
   current occupation vector 
    18  8
    18  8
  processed                 370407  ao basis integrals from 
                    91  buffers.
  processed                 173648  ao basis integrals from 
                    43  buffers.
  processed                 296965  ao basis integrals from 
                    73  buffers.
      14          -198.516554937624250              0.1854547668D-01
   current occupation vector 
    18  8
    18  8
 
 sum over diagonal and offdiagdiagonal of C(T)*S*C for irrep
                     1
  2.006173005497658E-013  3.100728495119878E-013
 reorthoganalization of MOs is carried out
 sum over diagonal and offdiagdiagonal of C(T)*S*C for irrep
                     1
 -6.661338147750939E-016 -1.764568088842974E-015
 
 sum over diagonal and offdiagdiagonal of C(T)*S*C for irrep
                     2
 -1.043609643147647E-014 -6.388204976784124E-014
 reorthoganalization of MOs is carried out
 sum over diagonal and offdiagdiagonal of C(T)*S*C for irrep
                     2
  1.110223024625157E-016 -4.040718016558845E-016
  processed                 370407  ao basis integrals from 
                    91  buffers.
  processed                 173648  ao basis integrals from 
                    43  buffers.
  processed                 296965  ao basis integrals from 
                    73  buffers.
      15          -198.516561186055043              0.2429645961D-02
   current occupation vector 
    18  8
    18  8
  processed                 370407  ao basis integrals from 
                    91  buffers.
  processed                 173648  ao basis integrals from 
                    43  buffers.
  processed                 296965  ao basis integrals from 
                    73  buffers.
      16          -198.516562107684791              0.7112093029D-03
   current occupation vector 
    18  8
    18  8
  processed                 370407  ao basis integrals from 
                    91  buffers.
  processed                 173648  ao basis integrals from 
                    43  buffers.
  processed                 296965  ao basis integrals from 
                    73  buffers.
      17          -198.516562118564792              0.2483136677D-04
   current occupation vector 
    18  8
    18  8
  processed                 370407  ao basis integrals from 
                    91  buffers.
  processed                 173648  ao basis integrals from 
                    43  buffers.
  processed                 296965  ao basis integrals from 
                    73  buffers.
      18          -198.516560018571880              0.2948721925D-02
   current occupation vector 
    18  8
    18  8
  processed                 370407  ao basis integrals from 
                    91  buffers.
  processed                 173648  ao basis integrals from 
                    43  buffers.
  processed                 296965  ao basis integrals from 
                    73  buffers.
      19          -198.516559732187744              0.1509773239D-02
   current occupation vector 
    18  8
    18  8
 
 sum over diagonal and offdiagdiagonal of C(T)*S*C for irrep
                     1
  2.470246229790973E-013  1.492622051931964E-013
 reorthoganalization of MOs is carried out
 sum over diagonal and offdiagdiagonal of C(T)*S*C for irrep
                     1
 -2.442490654175344E-015 -2.639905492326210E-016
 
 sum over diagonal and offdiagdiagonal of C(T)*S*C for irrep
                     2
 -5.928590951498336E-014 -2.521061181670802E-014
 reorthoganalization of MOs is carried out
 sum over diagonal and offdiagdiagonal of C(T)*S*C for irrep
                     2
 -2.109423746787797E-015  2.257984825214637E-015
  processed                 370407  ao basis integrals from 
                    91  buffers.
  processed                 173648  ao basis integrals from 
                    43  buffers.
  processed                 296965  ao basis integrals from 
                    73  buffers.
      20          -198.516559733553919              0.1093947413D-03
   current occupation vector 
    18  8
    18  8
  processed                 370407  ao basis integrals from 
                    91  buffers.
  processed                 173648  ao basis integrals from 
                    43  buffers.
  processed                 296965  ao basis integrals from 
                    73  buffers.
      21          -198.516559733697903              0.1203311669D-04
   current occupation vector 
    18  8
    18  8
  processed                 370407  ao basis integrals from 
                    91  buffers.
  processed                 173648  ao basis integrals from 
                    43  buffers.
  processed                 296965  ao basis integrals from 
                    73  buffers.
      22          -198.516559733800051              0.2717090909D-05
   current occupation vector 
    18  8
    18  8
  processed                 370407  ao basis integrals from 
                    91  buffers.
  processed                 173648  ao basis integrals from 
                    43  buffers.
  processed                 296965  ao basis integrals from 
                    73  buffers.
      23          -198.516559733579328              0.6196314905D-05
   current occupation vector 
    18  8
    18  8
  processed                 370407  ao basis integrals from 
                    91  buffers.
  processed                 173648  ao basis integrals from 
                    43  buffers.
  processed                 296965  ao basis integrals from 
                    73  buffers.
      24          -198.516559733375715              0.1178203474D-04
   current occupation vector 
    18  8
    18  8
 
 sum over diagonal and offdiagdiagonal of C(T)*S*C for irrep
                     1
  2.100541962590796E-013  1.988581333046308E-013
 reorthoganalization of MOs is carried out
 sum over diagonal and offdiagdiagonal of C(T)*S*C for irrep
                     1
 -7.771561172376096E-016 -2.798643440359168E-015
 
 sum over diagonal and offdiagdiagonal of C(T)*S*C for irrep
                     2
  1.798561299892754E-014 -4.539284125161879E-014
 reorthoganalization of MOs is carried out
 sum over diagonal and offdiagdiagonal of C(T)*S*C for irrep
                     2
 -9.992007221626409E-016  1.753956783862821E-016
  processed                 370407  ao basis integrals from 
                    91  buffers.
  processed                 173648  ao basis integrals from 
                    43  buffers.
  processed                 296965  ao basis integrals from 
                    73  buffers.
      25          -198.516559733374407              0.2392681041D-05
   current occupation vector 
    18  8
    18  8
  processed                 370407  ao basis integrals from 
                    91  buffers.
  processed                 173648  ao basis integrals from 
                    43  buffers.
  processed                 296965  ao basis integrals from 
                    73  buffers.
      26          -198.516559733376511              0.1084165352D-05
   current occupation vector 
    18  8
    18  8
  processed                 370407  ao basis integrals from 
                    91  buffers.
  processed                 173648  ao basis integrals from 
                    43  buffers.
  processed                 296965  ao basis integrals from 
                    73  buffers.
      27          -198.516559733378330              0.5757586382D-06
   current occupation vector 
    18  8
    18  8
  processed                 370407  ao basis integrals from 
                    91  buffers.
  processed                 173648  ao basis integrals from 
                    43  buffers.
[...]
   1 DX2       0.0000000     0.0000052     0.0000000    -0.0109912    -0.0003325
   1 DXY      -0.0000003    -0.0164838     0.0000000    -0.0000088    -0.0000001
   1 DXZ       0.0000000     0.0000000     0.0164838     0.0000000     0.0000000
   1 DY2       0.0178256    -0.0000019     0.0000000     0.0054956     0.0001663
   1 DYZ       0.0000000     0.0000000    -0.0000001     0.0000000     0.0000000
   1 DZZ      -0.0178256    -0.0000032     0.0000000     0.0054956     0.0001663
   2 S         0.0000000    -0.0000005     0.0000000     0.0008821     0.0004280
   2 S        -0.0000000     0.0000032     0.0000000    -0.0060888    -0.0092422
   2 PX        0.0000000    -0.0000004     0.0000000     0.0004378    -0.0023316
   2 PY        0.0000001    -0.0123069     0.0000000    -0.0000062    -0.0000000
   2 PZ        0.0000000     0.0000000     0.0123069     0.0000000     0.0000000
   3 S        -0.0000922    -0.0004820     0.0000000    -0.0003572    -0.0000172
   3 S         0.0014384     0.0064360     0.0000000     0.0048148     0.0008116
   3 S        -0.0041038    -0.0287010     0.0000000    -0.0208945    -0.0084049
   3 PX        0.1194335     0.2592571     0.0000000     0.0876730     0.0004151
   3 PY       -0.5004447    -0.6665514     0.0000000    -0.5088495    -0.0014223
   3 PZ        0.0000000     0.0000000    -0.1432683     0.0000000     0.0000000
   3 PX       -0.0258548    -0.0629818     0.0000000    -0.0215493    -0.0020852
   3 PY        0.1081946     0.1625185     0.0000000     0.1245950     0.0071746
   3 PZ        0.0000000     0.0000000     0.0348680     0.0000000     0.0000000
   4 S         0.0000922     0.0000002    -0.0004822    -0.0003569    -0.0000172
   4 S        -0.0014383    -0.0000024     0.0064382     0.0048115     0.0008116
   4 S         0.0041038     0.0000102    -0.0287104    -0.0208794    -0.0084047
   4 PX       -0.1194352    -0.0000450     0.2592966     0.0875441     0.0004151
   4 PY       -0.0000044     0.1432670    -0.0000005     0.0000702     0.0000000
   4 PZ       -0.5004509    -0.0002569     0.6667989     0.5085193     0.0014223
   4 PX        0.0258552     0.0000110    -0.0629913    -0.0215178    -0.0020852
   4 PY        0.0000009    -0.0348676     0.0000001    -0.0000172    -0.0000000
   4 PZ        0.1081957     0.0000626    -0.1625785    -0.1245139    -0.0071745
   5 S        -0.0000922     0.0004823     0.0000000    -0.0003567    -0.0000172
   5 S         0.0014383    -0.0064404     0.0000000     0.0048082     0.0008116
   5 S        -0.0041037     0.0287197     0.0000000    -0.0208644    -0.0084045
   5 PX        0.1194375    -0.2593355     0.0000000     0.0874149     0.0004151
   5 PY        0.5004574    -0.6670464     0.0000000     0.5081886     0.0014223
   5 PZ        0.0000000     0.0000000    -0.1432656     0.0000000     0.0000000
   5 PX       -0.0258556     0.0630007     0.0000000    -0.0214862    -0.0020851
   5 PY       -0.1081970     0.1626385     0.0000000    -0.1244326    -0.0071744
   5 PZ        0.0000000     0.0000000     0.0348672     0.0000000     0.0000000
   6 S         0.0000922     0.0000002     0.0004822    -0.0003569    -0.0000172
   6 S        -0.0014383    -0.0000024    -0.0064382     0.0048115     0.0008116
   6 S         0.0041038     0.0000102     0.0287104    -0.0208794    -0.0084047
   6 PX       -0.1194352    -0.0000450    -0.2592966     0.0875441     0.0004151
   6 PY       -0.0000044     0.1432670     0.0000005     0.0000702     0.0000000
   6 PZ        0.5004509     0.0002569     0.6667989    -0.5085193    -0.0014223
   6 PX        0.0258552     0.0000110     0.0629913    -0.0215178    -0.0020852
   6 PY        0.0000009    -0.0348676    -0.0000001    -0.0000172    -0.0000000
   6 PZ       -0.1081957    -0.0000626    -0.1625785     0.1245139     0.0071745
--------------------------------------------------------------------------------
Eigenvalue    643.575829    643.651916    643.651916   1656.708639   1656.956847
 Symmetry         A'           E             E              A'           E       
--------------------------------------------------------------------------------
   1 S        -0.0000057     0.0000000     0.0000000     0.0000000     0.0000000
   1 S         0.0000749    -0.0000000     0.0000000    -0.0000000    -0.0000003
   1 S        -0.0002029     0.0000000     0.0000000     0.0000000     0.0000009
   1 S         0.0004135    -0.0000001     0.0000000    -0.0000000    -0.0000022
   1 S        -0.0018521     0.0000003     0.0000000     0.0000000     0.0000084
   1 PX       -1.1188091     0.0000268     0.0000000    -0.0000000     0.0000001
   1 PY       -0.0000268    -1.1189239     0.0000000     0.0000000     0.0008631
   1 PZ        0.0000000     0.0000000     1.1189239     0.0000000     0.0000000
   1 PX        0.4377950    -0.0000105     0.0000000     0.0000000    -0.0000003
   1 PY        0.0000105     0.4383108     0.0000000    -0.0000000    -0.0018027
   1 PZ        0.0000000     0.0000000    -0.4383108     0.0000000     0.0000000
   1 PX       -0.1264351     0.0000031     0.0000000    -0.0000000     0.0000009
   1 PY       -0.0000030    -0.1280812     0.0000000     0.0000001     0.0053492
   1 PZ        0.0000000     0.0000000     0.1280812     0.0000000     0.0000000
   1 PX        0.0461732    -0.0000013     0.0000000     0.0000000    -0.0000028
   1 PY        0.0000011     0.0522231     0.0000000    -0.0000001    -0.0194733
   1 PZ        0.0000000     0.0000000    -0.0522231     0.0000000     0.0000000
   1 DX2      -0.0001647     0.0000000     0.0000000    -0.0000000     0.0000001
   1 DXY      -0.0000000     0.0001665     0.0000000     0.0000000    -0.0003852
   1 DXZ       0.0000000     0.0000000    -0.0001665     0.0000000     0.0000000
   1 DY2       0.0000823    -0.0000000     0.0000000    -0.0004030    -0.0000000
   1 DYZ       0.0000000     0.0000000     0.0000000     0.0000000     0.0000000
   1 DZZ       0.0000823     0.0000000     0.0000000     0.0004030    -0.0000001
   1 DX2       0.0011341    -0.0000001     0.0000000     0.0000000    -0.0000007
   1 DXY       0.0000000    -0.0011245     0.0000000    -0.0000000     0.0027608
   1 DXZ       0.0000000     0.0000000     0.0011245     0.0000000     0.0000000
   1 DY2      -0.0005670     0.0000001     0.0000000     0.0028934     0.0000002
   1 DYZ       0.0000000     0.0000000    -0.0000000     0.0000000     0.0000000
   1 DZZ      -0.0005670    -0.0000000     0.0000000    -0.0028934     0.0000005
   2 S         0.0000873    -0.0000000     0.0000000     0.0000000     0.0000001
   2 S        -0.0107083     0.0000003     0.0000000    -0.0000000    -0.0000009
   2 PX       -0.0046569     0.0000001     0.0000000     0.0000000     0.0000003
   2 PY       -0.0000001    -0.0044988     0.0000000     0.0000000     0.0022974
   2 PZ        0.0000000     0.0000000     0.0044988     0.0000000     0.0000000
   3 S        -0.0000278     0.0001008     0.0000000    -0.5323369     0.7527216
   3 S        -0.0002198     0.0008019     0.0000000     0.1542398    -0.2184005
   3 S         0.0031637    -0.0113130     0.0000000    -0.0284115     0.0443366
   3 PX        0.0004688     0.0006762     0.0000000     0.0000419    -0.0003479
   3 PY        0.0006203    -0.0015400     0.0000000    -0.0002135     0.0009193
   3 PZ        0.0000000     0.0000000    -0.0006957     0.0000000     0.0000000
   3 PX       -0.0021305    -0.0036623     0.0000000    -0.0001939     0.0018142
   3 PY       -0.0033952     0.0088241     0.0000000     0.0009512    -0.0048586
   3 PZ        0.0000000     0.0000000     0.0033737     0.0000000     0.0000000
   4 S        -0.0000278     0.0000000     0.0001008     0.5323472    -0.0002348
   4 S        -0.0002198     0.0000000     0.0008019    -0.1542428     0.0000681
   4 S         0.0031639    -0.0000001    -0.0113128     0.0284120    -0.0000138
   4 PX        0.0004688    -0.0000000     0.0006763    -0.0000419     0.0000001
   4 PY        0.0000000     0.0006957     0.0000000    -0.0000000    -0.0001414
   4 PZ       -0.0006204     0.0000000     0.0015400    -0.0002135     0.0000003
   4 PX       -0.0021304     0.0000000    -0.0036623     0.0001939    -0.0000003
   4 PY       -0.0000001    -0.0033737    -0.0000000     0.0000000     0.0008058
   4 PZ        0.0033954    -0.0000001    -0.0088240     0.0009512    -0.0000016
   5 S        -0.0000278    -0.0001008     0.0000000    -0.5323580    -0.7531614
   5 S        -0.0002198    -0.0008020     0.0000000     0.1542459     0.2185281
   5 S         0.0031640     0.0113125     0.0000000    -0.0284126    -0.0443624
   5 PX        0.0004688    -0.0006763     0.0000000     0.0000419     0.0003480
   5 PY       -0.0006204    -0.0015399     0.0000000     0.0002135     0.0009199
   5 PZ        0.0000000     0.0000000    -0.0006957     0.0000000     0.0000000
   5 PX       -0.0021303     0.0036623     0.0000000    -0.0001939    -0.0018148
   5 PY        0.0033955     0.0088238     0.0000000    -0.0009512    -0.0048616
   5 PZ        0.0000000     0.0000000     0.0033736     0.0000000     0.0000000
   6 S        -0.0000278     0.0000000    -0.0001008     0.5323472    -0.0002348
   6 S        -0.0002198     0.0000000    -0.0008019    -0.1542428     0.0000681
   6 S         0.0031639    -0.0000001     0.0113128     0.0284120    -0.0000138
   6 PX        0.0004688    -0.0000000    -0.0006763    -0.0000419     0.0000001
   6 PY        0.0000000     0.0006957    -0.0000000    -0.0000000    -0.0001414
   6 PZ        0.0006204    -0.0000000     0.0015400     0.0002135    -0.0000003
   6 PX       -0.0021304     0.0000000     0.0036623     0.0001939    -0.0000003
   6 PY       -0.0000001    -0.0033737     0.0000000     0.0000000     0.0008058
   6 PZ       -0.0033954     0.0000001    -0.0088240    -0.0009512     0.0000016
--------------------------------------------------------------------------------
Eigenvalue   1656.956848   1656.971394  11003.416627
 Symmetry        E              A'            A'     
--------------------------------------------------------------------------------
   1 S         0.0000000     0.0000327     1.1110211
   1 S         0.0000000    -0.0007802    -0.4446910
   1 S         0.0000000     0.0021215     0.1647638
   1 S         0.0000000    -0.0051924    -0.0494796
   1 S         0.0000000     0.0205382     0.0216534
   1 PX        0.0000000     0.0003375     0.0000240
   1 PY        0.0000000    -0.0000004    -0.0000000
   1 PZ        0.0008631     0.0000000     0.0000000
   1 PX        0.0000000    -0.0007041    -0.0000664
   1 PY        0.0000000     0.0000008     0.0000000
   1 PZ       -0.0018027     0.0000000     0.0000000
   1 PX        0.0000000     0.0020934     0.0002030
   1 PY        0.0000000    -0.0000023    -0.0000000
   1 PZ        0.0053492     0.0000000     0.0000000
   1 PX        0.0000000    -0.0070211    -0.0004651
   1 PY        0.0000000     0.0000086     0.0000001
   1 PZ       -0.0194733     0.0000000     0.0000000
   1 DX2       0.0000000     0.0002417     0.0000162
   1 DXY       0.0000000     0.0000002     0.0000000
   1 DXZ      -0.0003852     0.0000000     0.0000000
   1 DY2       0.0000000    -0.0001208    -0.0000081
   1 DYZ      -0.0000000     0.0000000     0.0000000
   1 DZZ       0.0000000    -0.0001208    -0.0000081
   1 DX2       0.0000000    -0.0017229    -0.0001146
   1 DXY       0.0000000    -0.0000013    -0.0000000
   1 DXZ       0.0027608     0.0000000     0.0000000
   1 DY2       0.0000000     0.0008614     0.0000573
   1 DYZ       0.0000000     0.0000000     0.0000000
   1 DZZ       0.0000000     0.0008614     0.0000573
   2 S         0.0000000     0.0002660     0.0001659
   2 S         0.0000000    -0.0020527    -0.0035302
   2 PX        0.0000000     0.0005264    -0.0008540
   2 PY        0.0000000    -0.0000010    -0.0000000
   2 PZ        0.0022974     0.0000000     0.0000000
   3 S         0.0000000    -0.5327351    -0.0001361
   3 S         0.0000000     0.1545877     0.0003107
   3 S         0.0000000    -0.0315357    -0.0031869
   3 PX        0.0000000     0.0001460     0.0001347
   3 PY        0.0000000    -0.0007223    -0.0004606
   3 PZ       -0.0001414     0.0000000     0.0000000
   3 PX        0.0000000    -0.0007777    -0.0007875
   3 PY        0.0000000     0.0038460     0.0027045
   3 PZ        0.0008058     0.0000000     0.0000000
   4 S        -0.7529416    -0.5324138    -0.0001361
   4 S         0.2184643     0.1544945     0.0003107
   4 S        -0.0443495    -0.0315167    -0.0031868
   4 PX        0.0003479     0.0001458     0.0001347
   4 PY        0.0000000     0.0000001     0.0000000
   4 PZ        0.0009196     0.0007219     0.0004606
   4 PX       -0.0018145    -0.0007769    -0.0007875
   4 PY       -0.0000000    -0.0000004    -0.0000000
   4 PZ       -0.0048601    -0.0038438    -0.0027045
   5 S         0.0000000    -0.5320920    -0.0001361
   5 S         0.0000000     0.1544011     0.0003107
   5 S         0.0000000    -0.0314975    -0.0031867
   5 PX        0.0000000     0.0001457     0.0001347
   5 PY        0.0000000     0.0007215     0.0004605
   5 PZ       -0.0001414     0.0000000     0.0000000
   5 PX        0.0000000    -0.0007761    -0.0007875
   5 PY        0.0000000    -0.0038415    -0.0027044
   5 PZ        0.0008058     0.0000000     0.0000000
   6 S         0.7529416    -0.5324138    -0.0001361
   6 S        -0.2184643     0.1544945     0.0003107
   6 S         0.0443495    -0.0315167    -0.0031868
   6 PX       -0.0003479     0.0001458     0.0001347
   6 PY       -0.0000000     0.0000001     0.0000000
   6 PZ        0.0009196    -0.0007219    -0.0004606
   6 PX        0.0018145    -0.0007769    -0.0007875
   6 PY        0.0000000    -0.0000004    -0.0000000
   6 PZ       -0.0048601     0.0038438     0.0027045
--------------------------------------------------------------------------------


 
  ORBITAL EIGENVALUES (ALPHA)  (1H = 27.2113834 eV)

       MO #        E(hartree)               E(eV)           FULLSYM    COMPSYM
       ----   --------------------   --------------------   -------   ---------
    1     1         -19.8616700510        -540.4635187222     A'        A'  (1)
    2     2          -2.5920162450         -70.5323478223     A'        A'  (1)
    3     3          -1.4996811771         -40.8083994888     A'        A'  (1)
    4    47          -1.4810128250         -40.3004078018    E          A'' (2)
    5     4          -1.4810127922         -40.3004069077    E          A'  (1)
    6     5          -0.7783766990         -21.1807067871     A'        A'  (1)
    7     6          -0.5780107218         -15.7284713607     A'        A'  (1)
    8    48          -0.5627019970         -15.3118997803    E          A'' (2)
    9     7          -0.5627018760         -15.3118964869    E          A'  (1)
   10     8          -0.5593992907         -15.2220285734     A'        A'  (1)
   11     9          -0.1207040472          -3.2845241065     A'        A'  (1)
   12    10          -0.0776159168          -2.1120364697     A'        A'  (1)
   13    49          -0.0397701281          -1.0822002047    E          A'' (2)
   14    11          -0.0397700576          -1.0821982855    E          A'  (1)
   15    12          -0.0337612194          -0.9186894859     A'        A'  (1)
   16    50          -0.0278912905          -0.7589605985    E          A'' (2)
   17    13          -0.0278912616          -0.7589598131    E          A'  (1)
   18    51          -0.0194656249          -0.5296865826     A''       A'' (2)
   19    14          -0.0112509536          -0.3061540128     A'        A'  (1)
   20    52           0.0148596071           0.4043504647    E          A'' (2)
   21    15           0.0148596612           0.4043519394    E          A'  (1)
   22    16           0.0148973093           0.4053763936     A'        A'  (1)
   23    17           0.0273164889           0.7433194531    E          A'  (1)
   24    53           0.0273164947           0.7433196092    E          A'' (2)
   25    54           0.0295971683           0.8053798955     A''       A'' (2)
   26    18           0.2519147817           6.8549497089     A'        A'  (1)
  +++++++++++++++++++++++++++++++++++++++++++++++++++++++++++++++++++++++++++++
   27    55           0.4910603196          13.3624306289     A''       A'' (2)
   28    19           0.5331775167          14.5084978273     A'        A'  (1)
   29    20           0.5816012530          15.8261746802    E          A'  (1)
   30    56           0.5816012577          15.8261748096    E          A'' (2)
   31    21           0.7281536255          19.8140674778     A'        A'  (1)
   32    22           0.9103458082          24.7717688140    E          A'  (1)
   33    57           0.9103459131          24.7717716677    E          A'' (2)
   34    23           1.0234875246          27.8505114376     A'        A'  (1)
   35    24          24.6670686274         671.2250617754     A'        A'  (1)
   36    25          30.0661343391         818.1411088564    E          A'  (1)
   37    58          30.0661343638         818.1411095281    E          A'' (2)
   38    26          30.0743458793         818.3645562259     A'        A'  (1)
   39    27          30.8627368177         839.8177643208     A'        A'  (1)
   40    28          30.9381544435         841.8699822507     A'        A'  (1)
   41    59          30.9504663515         842.2050062997    E          A'' (2)
   42    29          30.9504664249         842.2050082955    E          A'  (1)
   43    60          40.8831842384        1112.4880009248     A''       A'' (2)
   44    30          40.9124694494        1113.2848920286     A'        A'  (1)
   45    31          40.9173171288        1113.4168040904    E          A'  (1)
   46    61          40.9173171481        1113.4168046176    E          A'' (2)
   47    32          41.0304678445        1116.4957915985     A'        A'  (1)
   48    62          54.6946183991        1488.3162311757     A''       A'' (2)
   49    63          54.7305717039        1489.2945703373    E          A'' (2)
   50    33          54.7305717723        1489.2945721978    E          A'  (1)
   51    34          54.7486764539        1489.7872256300     A'        A'  (1)
   52    35          54.7640524324        1490.2056272745    E          A'  (1)
   53    64          54.7640524690        1490.2056282710    E          A'' (2)
   54    36          54.7854799475        1490.7886996053     A'        A'  (1)
   55    65          54.7869883182        1490.8297444574     A''       A'' (2)
   56    37          54.8397393533        1492.2651730994     A'        A'  (1)
   57    38          55.0698078596        1498.5256554306    E          A'  (1)
   58    66          55.0698079850        1498.5256588452    E          A'' (2)
   59    39          55.0797159212        1498.7952674949     A'        A'  (1)
   60    40         317.6761660209        8644.4079506359     A'        A'  (1)
   61    41         643.5758290238       17512.5886305392     A'        A'  (1)
   62    42         643.6519161307       17514.6590659779    E          A'  (1)
   63    67         643.6519162257       17514.6590685627    E          A'' (2)
   64    43        1656.7086389521       45081.3339566173     A'        A'  (1)
   65    44        1656.9568473132       45088.0880494935    E          A'  (1)
   66    68        1656.9568475028       45088.0880546550    E          A'' (2)
   67    45        1656.9713944247       45088.4838965244     A'        A'  (1)
   68    46       11003.4166271297      299418.1885507602     A'        A'  (1)


  VSCF finished.

 @CHECKOUT-I, Total execution time (CPU/WALL):        0.18/       0.20 seconds.
--executable xvscf finished with status     0 in        0.21 seconds (walltime).
  The final electronic energy is      -198.516559733368155 a.u. 
  This computation required                            1.21 seconds (walltime).
