Intel(R) Parallel Studio XE 2019 Update 4 for Linux*
Copyright (C) 2009-2019 Intel Corporation. All rights reserved.
 --invoking executable--
/ihome/kjordan/shu8/software/source/cfour/cfour-public/bin/xjoda


   *************************************************************************
         <<<     CCCCCC     CCCCCC   |||     CCCCCC     CCCCCC   >>>
       <<<      CCC        CCC       |||    CCC        CCC         >>>
      <<<      CCC        CCC        |||   CCC        CCC            >>>
    <<<        CCC        CCC        |||   CCC        CCC              >>>
      <<<      CCC        CCC        |||   CCC        CCC            >>>
       <<<      CCC        CCC       |||    CCC        CCC         >>>
         <<<     CCCCCC     CCCCCC   |||     CCCCCC     CCCCCC   >>>
   *************************************************************************

     ****************************************************************
     * CFOUR Coupled-Cluster techniques for Computational Chemistry *
     ****************************************************************
 

   Department of Chemistry                Institut fuer Physikalische Chemie
   University of Florida                  Universitaet Mainz
   Gainesville, FL 32611, USA             D-55099 Mainz, Germany

   Department of Chemistry                Fakultaet fuer Chemie und Biowiss.
   Johns Hopkins University               Karlsruher Institut fuer Technologie
   Baltimore, MD 21218, USA               D-76131 Karlsruhe, Germany

   Department of Chemistry                Department of Physical Chemistry
   Southern Methodist University          Eotvos Lorand University
   Dallas, TX 75275, USA                  H-1053 Budapest, Hungary

 
                       Version 2.1
 
                     smp-n223.crc.pitt.edu                             
                     Mon Jan 20 14:25:54 EST 2025                      
                     integer*8 version is running
 
********************************************************************************
*                          Input from ZMAT file                                *
********************************************************************************
N2, CCSD/cc-pVTZ excitation energies                                            
N                                                                               
N 1 R                                                                           
                                                                                
R=1.09                                                                          
                                                                                
*ACES2(CALC=CCSD,BASIS=PVTZ,EXCITE=EOMEE,REF=UHF                                
ESTATE_CONV=10,SCF_CONV=10,CC_CONV=10                                           
ESTATE_SYM=10/0/0/0/0/0/0/0,PRINT=1)                                            
                                                                                
********************************************************************************
    -------------------------------------------------------------------
                    CFOUR Control Parameters 
    -------------------------------------------------------------------
        External           Internal           Value            Units
          Name               Name
    -------------------------------------------------------------------
       ABCDTYPE             IABCDT         STANDARD    [  0]    ***   
       ANHARMONIC           IANHAR         OFF         [  0]    ***   
       ANH_ALGORIT          IANALG         STANDARD    [  0]    ***   
       ANH_DERIVAT          IANDER         SECOND      [  1]    ***   
       ANH_MODE             ANHMOD         VIBRATION   [  0]    ***   
       ANH_STEPSIZ          ICUBST             50000          x 10-6  
       ANH_SYMMETR          IANHSM         ABELIAN     [  0]    ***   
       AO_LADDERS           IAOLAD         SINGLEPASS  [  1]    ***   
       AV_SCF               IAVSCF         OFF         [  0]    ***   
       BASIS                IBASIS         PVTZ        [ 14]    ***   
       BOTHVECTORS          BOTHVC         OFF         [  0]    ***   
       BOX_POTENT           IPIAB          OFF         [  0]    ***   
       BREIT                IBREIT         OFF         [  0]    ***   
       BRUCK_CONV           IBRTOL          10D-  4             ***   
       BRUECKNER            IBRKNR         OFF         [  0]    ***   
       BUFFERSIZE           IBUFFS              4096            ***   
       CACHE_RECS           ICHREC             10               ***   
       CALCLEVEL            ICLLVL         CCSD        [ 10]    ***   
       CCORBOPT             ICCORB         OFF         [  0]  x 0.01  
       CC_CONV              ICCCNV          10D- 10             ***   
       CC_EXPORDER          ICCEOR              5               ***   
       CC_EXTRAPOL          ICCEXT         DIIS        [  1]    ***   
       CC_GUESS             ICCGES         MP2         [  0]    ***   
       CC_MAXCYC            ICCCYC            100              cycles 
       CC_PROGRAM           ICCPRO         VCC         [  0]    ***   
       CHARGE               ICHRGE              0               ***   
       CHOLESKY             ICHOLE         OFF         [  0]    ***   
       CIS_CONV             ICISTL              5               ***   
       COMM_SIZE            IPSIZE            ***               ***   
       CONSTANT             ICONST         OLD         [  1]    ***   
       CONTINUUM            ICONTU         NONE        [  0]    ***   
       CONTRACTION          ICNTYP         GENERAL     [  1]    ***   
       COORDINATES          ICOORD         INTERNAL    [  0]    ***   
       CPHF_CONVER          ICPHFT          10D- 16             ***   
       CPHF_MAXCYC          ICPHFC             64              cycles 
       CUBIC                ICUBIC         OFF         [  0]    ***   
       CURVILINEAR          ICURVY         OFF         [  0]    ***   
       DBOC                 IDBOC          OFF         [  0]    ***   
       DCT                  IDCT           OFF         [  0]    ***   
       DERIV_LEV            IDRLVL         ZERO        [  0]    ***   
       DEVMEM_SIZE          IDVMEM          50000000           MByte  
       DIAG_MRCC            IEOMST          10D-  0             ***   
       DIFF_TYPE            IDIFTY         RELAXED     [  0]    ***   
       DIRECT               IDIRCT         OFF         [  0]    ***   
       DROPMO               IDRPMO      NONE         
       ECP                  IECP           OFF         [  0]    ***   
       EIGENVECTOR          IVEC                1               ***   
       EL_ANHARM            IELANH         OFF         [  0]    ***   
       EOMFOLLOW            IEOMSR         ENERGY      [  0]    ***   
       EOMIP                IEOMIP         OFF         [  0]    ***   
       EOMLEVEL             HBARFM         SAME        [  0]    ***   
       EOM_MRCC             IMRCCE         NEW         [  1]    ***   
       EOM_NONIT            EOMNON         OFF         [  0]    ***   
       EOM_NSING            IEOMSI          10D-  0             ***   
       EOM_NSTATES          IMRCCD         DAVIDSON    [  0]    ***   
       EOM_NTRIP            IEOMTR          10D-  0             ***   
       EOM_ORDER            IEXORD         ENERGY      [  0]    ***   
       EOM_PROPSTA          IEOMST              0               ***   
       ESTATE_CONV          IEXTOL          10D- 10             ***   
       ESTATE_DIAG          IEXDIG         ITERATIVE   [  0]    ***   
       ESTATE_LOCK          IESLOC         ON          [  1]    ***   
       ESTATE_MAXC          IEXMXC             40               ***   
       ESTATE_PROP          IEXPRP         OFF         [  0]    ***   
       ESTATE_SYM           IEXSYM  10,  0,  0,  0,  0,  0,  0,  0,
       EVAL_HESS            IRECAL              0            # of cyc.
       EXCITATION           IEXCIT              0               ***   
       EXCITE               IEXCIT         EOMEE       [  3]    ***   
       EXTERN_POT           IEXPOT         OFF         [  0]    ***   
       FCGRADNEW            IFCGNW         OFF         [  0]    ***   
       FC_FIELD             IFINFC              0             x 10-6  
       FD_CALTYPE           IFDCAL         GRADONLY    [  0]    ***   
       FD_PROJECT           IFDPRJ         OFF         [  1]    ***   
       FD_STEPSIZE          IDISFD              0            10-4 bohr
       FD_USEGROUP          IFDGRP         FULL        [  0]    ***   
       FILE_RECSIZ          IFLREC              4096           words  
       FINITE_PERT          IFIPER              0             x 10-6  
       FIXGEOM              IFIXGM         OFF         [  0]    ***   
       FOCK                 IFOCK          AO          [  1]    ***   
       FREQ_ALGORI          IVIALG         STANDARD    [  0]    ***   
       FROZEN_CORE          IFROCO         OFF         [  0]    ***   
       GAMMA_ABCD           IGABCD         STORE       [  0]    ***   
       GAMMA_ABCI           IGABCI         STORE       [  0]    ***   
       GENBAS_1             IGNBS1              0               ***   
       GENBAS_2             IGNBS2              0               ***   
       GENBAS_3             IGNBS3              0               ***   
       GENBAS_4             IGNBS4              0               ***   
       GEO_CONV             ICONTL              5              H/bohr 
       GEO_MAXCYC           IOPTCY             50               ***   
       GEO_MAXSTEP          IMXSTP            300            millibohr
       GEO_METHOD           INR            SINGLE_POINT[  5]    ***   
       GIAO                 IGIAO          OFF         [  1]    ***   
       GIMIC                IGIMIC         OFF         [  0]    ***   
       GRID                 IGRID          OFF         [  0]    ***   
       GRID_ALGO            IGALGO         SERIAL      [  0]    ***   
       GUESS                IGUESS         MOREAD      [  0]    ***   
       HBAR                 IHBAR          ON          [  1]    ***   
       HESS_TYPE            IHESTP         SCF         [  0]    ***   
       HF2_FILE             IHF2Fl         USE         [  1]    ***   
       HFSTABILITY          ISTABL         OFF         [  0]    ***   
       INCORE               INCORE         OFF         [  0]    ***   
       INPUT_MRCC           IMRCC          ON          [  1]    ***   
       INTEGRALS            INTTYP         VMOL        [  1]    ***   
       JODA_PRINT           IJPRNT              0               ***   
       KEYWORD_OUT          IDMPKW         NO          [  0]    ***   
       LINDEP_TOL           ILINDP              8               ***   
       LINEQ_CONV           IZTACN          10D-  7           cycles  
       LINEQ_EXPOR          ILMAXD              5               ***   
       LINEQ_MAXCY          ILMAXC            100               ***   
       LINEQ_TYPE           ILTYPE         DIIS        [  1]    ***   
       LOCK_ORBOCC          ILOCOC         OFF         [  0]    ***   
       MEMORY_SIZE          IMEMSZ         100000000           words  
       MEM_UNIT             IMEMU          INTEGERWORDS[  0]    ***   
       MRCC                 IMRCCC         OFF         [  0]    ***   
       MULTIPLICTY          IMULTP              1               ***   
       NACOUPLING           IVCOUP         OFF         [  0]    ***   
       NEGEVAL              IDIE           ABORT       [  0]    ***   
       NEWNORM              INEWNO         OFF         [  0]    ***   
       NON-HF               INONHF         OFF         [  0]    ***   
       NTOP_TAMP            ITOPT2             15               ***   
       NUC_MODEL            INUCMO         POINT       [  0]    ***   
       OCCUPATION           IOCCU   ESTIMATED BY SCF 
       OPEN-SHELL           IOPEN          SPIN-ORBITAL[  0]    ***   
       OPTVIB               IOPTVB         OFF         [  0]    ***   
       ORBITALS             IORBTP         STANDARD    [  0]    ***   
       PARALLEL             IPARAL         ON          [  1]    ***   
       PARA_INT             IPINTS         ON          [  1]    ***   
       PARA_PRINT           IPPRIN              0               ***   
       PERT_ORB             IPTORB         STANDARD    [  0]    ***   
       POINTS               IGRDFD              0               ***   
       PRINT                IPRNT               1               ***   
       PROPS                IPROPS         OFF         [  0]    ***   
       PROP_INTEGR          IINTYP         INTERNAL    [  0]    ***   
       PSI                  IPSI           OFF         [  0]    ***   
       QC_ALG               IQCALG         FLM         [  0]    ***   
       QC_LINALG            IQCLIN         TRIDIAG     [  2]    ***   
       QC_MAXCYC            IQCMAX          10D-100           cycles  
       QC_MAXSCFCY          IQCMSC          10D- 15           cycles  
       QC_RTRUST            IQCRTR          10D-  0           x 10-3  
       QC_SKIPSCF           IQCSKI         OFF         [  0]    ***   
       QC_START             IQCSTA          10D-  1             ***   
       QRHFGUESS            IQGUES         OFF         [  0]    ***   
       QUARTIC              IQUART         OFF         [  0]    ***   
       RAMAN_INT            IRAMIN         OFF         [  0]    ***   
       RAMAN_ORB            IRAMRE         UNRELAXED   [  0]    ***   
       RDO                  IRDOFM         OFF         [  0]    ***   
       REDUCE_REPR          REDREP         Ir          [  0]    ***   
       REFERENCE            IREFNC         UHF         [  1]    ***   
       RELATIVIST           IRELAT         OFF         [  0]    ***   
       RELAX_DENS           IRDENS         OFF         [  0]    ***   
       RESET_FLAGS          IRESET         OFF         [  0]    ***   
       RESTART_CC           ICCRES         OFF         [  0]    ***   
       ROT_EVEC             ROTVEC              0               ***   
       SAVE_INTS            ISVINT         OFF         [  0]    ***   
       SCALE_ON             ISTCRT              0               ***   
       SCF_CONV             ISCFCV          10D- 10             ***   
       SCF_DAMPING          IDAMP               0             x 10-3  
       SCF_EXPORDE          IRPPOR              6               ***   
       SCF_EXPSTAR          IRPPLS              8               ***   
       SCF_EXTRAPO          IRPP           ON          [  1]    ***   
       SCF_MAXCYC           ISCFCY            150              cycles 
       SCF_NOSTOP           ISCFST         OFF         [  0]    ***   
       SCF_PRINT            ISCFPR              0               ***   
       SCF_PROG             ISCFPR         SCF         [  0]    ***   
       SD_FIELD             IFINSD              0             x 10-6  
       SOPERT               IPERSO         OFF         [  0]    ***   
       SPHERICAL            IDFGHI         ON          [  1]    ***   
       SPINORBIT            ISOCAL         OFF         [  0]    ***   
       SPINROTATIO          ISRCON         OFF         [  0]    ***   
       SPIN_FLIP            ISPFLP         OFF         [  0]    ***   
       SPIN_ORBIT           ISPORB         OFF         [  0]    ***   
       SPIN_SCAL            ISCSMP         OFF         [  0]    ***   
       STEEPSCALE           ISTPSC              1000          x 10-3  
       SUBGROUP             ISUBGP         DEFAULT     [  0]    ***   
       SUBGRPAXIS           ISBXYZ         X           [  0]    ***   
       SYMMETRY             ISYM           ON          [  0]    ***   
       SYM_CHECK            ISYMCK         OVERRIDE    [  1]    ***   
       T3_EXTRAPOL          IT3EXT         OFF         [  0]    ***   
       T4_EXTRAPOL          IT4EXP         OFF         [  0]    ***   
       TAMP_SUM             IEVERY              5               ***   
       TESTSUITE            ITESTS         OFF         [  0]    ***   
       THERMOCH             ITHERM         OFF         [  0]    ***   
       TOL_CHOLESK          ITOLCH          10D-  4             ***   
       TRANGRAD             IRESRM         OFF         [  0]    ***   
       TRANS_INV            ITRAIN         USE         [  0]    ***   
       TREAT_PERT           ITREAT         SIMULTANEOUS[  0]    ***   
       TRIP_ALGORI          ITRALG         NORMAL      [  0]    ***   
       UIJ_THRESHO          IUIJTH              1               ***   
       UNITS                IUNITS         ANGSTROM    [  0]    ***   
       UNOS                 IUNOS          OFF         [  0]    ***   
       UPDATE_HESS          IHUPDT         ON          [  1]    ***   
       VIBPHASE             ISETPH         STANDARD    [  0]    ***   
       VIBRATION            IVIB           NO          [  0]    ***   
       VIB_ALGORIT          IGEALG         STANDARD    [  0]    ***   
       VNATORB              IVNORB         OFF         [  0]    ***   
       VTRAN                IVTRAN         FULL/PARTIAL[  0]    ***   
       XFIELD               IXEFLD              0             x 10-6  
       XFORM_TOL            IXFTOL          10D- 11             ***   
       YFIELD               IYEFLD              0             x 10-6  
       ZFIELD               IZEFLD              0             x 10-6  
       ZSCALE_EXP           IZEXPS         OFF         [  0]    ***   
    -------------------------------------------------------------------
   2 entries found in Z-matrix 
   Job Title : N2, CCSD/cc-pVTZ excitation energies                                            
   There are  1 unique internal coordinates.
   Of these,  0 will be optimized.
   User supplied Z-matrix: 
--------------------------------------------------------------------------------
       SYMBOL    BOND      LENGTH    ANGLE     ANGLE     DIHED     ANGLE
                  TO      (ANGST)    WRT      (DEG)      WRT      (DEG)
--------------------------------------------------------------------------------
        N    
        N          1         R    
                  *Initial values for internal coordinates* 
                      Name             Value
                        R               1.0900000000
--------------------------------------------------------------------------------
   Rotational constants (in cm-1): 
          2.0265166254             2.0265166254
   Rotational constants (in MHz): 
      60753.4485420440         60753.4485420440
********************************************************************************
   The full molecular point group is DXh .
   The largest Abelian subgroup of the full molecular point group is D2h .
   The computational point group is D2h .
********************************************************************************
--------------------------------------------------------------------------------
   Analysis of internal coordinates specified by Z-matrix 
--------------------------------------------------------------------------------
   *The nuclear repulsion energy is   23.788695321100914 a.u.
   *There is   1 degree of freedom within the tot. symm. molecular subspace.
   *Z-matrix requests optimization of   0 coordinates.
   *The optimization is constrained.
   *The following   1 parameters can have non-zero 
    derivatives within the totally symmetric subspace:
             R    [ 1]
   *The following   0 parameters are to be optimized:

   *The following coordinates must be varied in an  unconstrained optimization.
             R    [ 1]
--------------------------------------------------------------------------------


 ----------------------------------------------------------------
         Coordinates used in calculation (QCOMP) 
 ----------------------------------------------------------------
 Z-matrix   Atomic            Coordinates (in bohr)
  Symbol    Number           X              Y              Z
 ----------------------------------------------------------------
     N         7        -0.00000000     0.00000000     1.02990095
     N         7         0.00000000     0.00000000    -1.02990095
 ----------------------------------------------------------------
 
  Original Center of Mass Coordinates (QCOM) 
         0.00000000000000         0.00000000000000        -1.02990095376387
         0.00000000000000         0.00000000000000         1.02990095376387
 
  Transformation matrix between QCOM and QCOMP (OMAT) 
  (QCOM = OMAT * QCOMP, where Q is stored 3 x NATOMS)
        -1.00000000000000         0.00000000000000         0.00000000000000
         0.00000000000000         1.00000000000000         0.00000000000000
        -0.00000000000000         0.00000000000000        -1.00000000000000
  test:  OMAT * QCOMP = 
        -0.00000000000000         0.00000000000000        -1.02990095376387
         0.00000000000000         0.00000000000000         1.02990095376387
 
   Interatomic distance matrix (Angstroms) 
 
                 N             N    
                [ 1]        [ 2]
  N    [ 1]     0.00000
  N    [ 2]     1.09000     0.00000
 rotcon2
   Rotational constants (in cm-1): 
          2.0265166254             0.0000000000
   Rotational constants (in MHz): 
      60753.4485420440             0.0000000000
  GENBAS file not present.   Using default GENBAS. 
 --invoking executable--
/ihome/kjordan/shu8/software/source/cfour/cfour-public/bin/set_genbas
--executable set_genbas finished with status     0 in        0.04 seconds (walltime).
  ECPDATA file not present.   Using default ECPDATA. 
  There are   60 basis functions.
 @GEOPT-W, Archive file not created for single-point calculation.
 @CHECKOUT-I, Total execution time (CPU/WALL):        0.08/       0.17 seconds.
--executable xjoda finished with status     0 in        0.21 seconds (walltime).
 --invoking executable--
/ihome/kjordan/shu8/software/source/cfour/cfour-public/bin/xvmol
 SERIAL VERSION OF MOLECULE STARTED
********************************************************************************
                    INPUT FROM MOL FILE
********************************************************************************
INTGRL        1    0    1    0    0    0    0    0    0                         
         *** CFOUR Program System (Release V0.1) ***                            
N2, CCSD/cc-pVTZ excitation energies                                            
    1    3 X  Y   Z   0.10E-08              0    0                              
   9999.00      3.00                                                            
          7.00000000    1    4    1    1    1    1                              
N #1  -0.000000000000000   0.000000000000000   1.029900953763872                
   10    4                                                                      
   11420.0000000000       5.230000000000000E-004 -1.150000000000000E-004        
  0.000000000000000E+000  0.000000000000000E+000                                
   1712.00000000000       4.045000000000000E-003 -8.950000000000000E-004        
  0.000000000000000E+000  0.000000000000000E+000                                
   389.300000000000       2.077500000000000E-002 -4.624000000000000E-003        
  0.000000000000000E+000  0.000000000000000E+000                                
   110.000000000000       8.072699999999999E-002 -1.852800000000000E-002        
  0.000000000000000E+000  0.000000000000000E+000                                
   35.5700000000000       0.233074000000000      -5.733900000000000E-002        
  0.000000000000000E+000  0.000000000000000E+000                                
   12.5400000000000       0.433501000000000      -0.132076000000000             
  0.000000000000000E+000  0.000000000000000E+000                                
   4.64400000000000       0.347472000000000      -0.172510000000000             
  0.000000000000000E+000  0.000000000000000E+000                                
   1.29300000000000       4.126200000000000E-002  0.151814000000000             
   1.00000000000000       0.000000000000000E+000                                
  0.511800000000000      -8.508000000000000E-003  0.599944000000000             
  0.000000000000000E+000  0.000000000000000E+000                                
  0.178700000000000       2.384000000000000E-003  0.387462000000000             
  0.000000000000000E+000   1.00000000000000                                     
    5    3                                                                      
   26.6300000000000       1.467000000000000E-002  0.000000000000000E+000        
  0.000000000000000E+000                                                        
   5.94800000000000       9.176400000000000E-002  0.000000000000000E+000        
  0.000000000000000E+000                                                        
   1.74200000000000       0.298683000000000       0.000000000000000E+000        
  0.000000000000000E+000                                                        
  0.555000000000000       0.498487000000000        1.00000000000000             
  0.000000000000000E+000                                                        
  0.172500000000000       0.337023000000000       0.000000000000000E+000        
   1.00000000000000                                                             
    2    2                                                                      
   1.65400000000000        1.00000000000000       0.000000000000000E+000        
  0.469000000000000       0.000000000000000E+000   1.00000000000000             
    1    1                                                                      
   1.09300000000000        1.00000000000000                                     
FINISH                                                                          
 
********************************************************************************
 ONE- AND TWO-ELECTRON INTEGRALS OVER SYMMETRY-ADAPTED AOS ARE CALCULATED.

  SPHERICAL HARMONICS ARE USED.
  
   1 TYPES OF ATOMS
   3 SYMMETRY OPERATIONS

   REFLECTION IN THE YZ-PLANE
   REFLECTION IN THE XZ-PLANE
   REFLECTION IN THE XY-PLANE
  
  INTEGRALS LESS THAN  0.10E-13 ARE NEGLECTED.

  ATOMIC TYPE NUMBER  1 :
  -----------------------

    NUCLEAR CHARGE:                        7
    NUMBER OF SYMMETRY INDEPENDENT ATOMS:  1
    HIGHEST ORBITAL TYPE:                  F

      1 GROUPS OF CGTOS OF S TYPE
      1 GROUPS OF CGTOS OF P TYPE
      1 GROUPS OF CGTOS OF D TYPE
      1 GROUPS OF CGTOS OF F TYPE

    NUCLEAR COORDINATES (IN A.U.) ARE :

    N #1        0.000000000000000        0.000000000000000        1.029900953763872
  
   INTERNUCLEAR DISTANCES (A) :

     FOR ATOM N #1 (COORDINATES :   0.00000   0.00000   1.02990)

     N #1   5     DISTANCE IS  1.090

   GROUP MULTIPLICATION TABLE :

         1   2   3   4   5   6   7   8
         2   1   4   3   6   5   8   7
         3   4   1   2   7   8   5   6
         4   3   2   1   8   7   6   5
         5   6   7   8   1   2   3   4
         6   5   8   7   2   1   4   3
         7   8   5   6   3   4   1   2
         8   7   6   5   4   3   2   1

   GAUSSIAN BASIS INFORMATION :

   ATOM                 EXPONENT      COEFFICIENTS

 N #1  1    S   
+                 1   11420.000000   0.0005230  -0.0001150   0.0000000   0.0000000
                  2    1712.000000   0.0040450  -0.0008950   0.0000000   0.0000000
                  3     389.300000   0.0207750  -0.0046240   0.0000000   0.0000000
                  4     110.000000   0.0807270  -0.0185280   0.0000000   0.0000000
                  5      35.570000   0.2330740  -0.0573390   0.0000000   0.0000000
                  6      12.540000   0.4335010  -0.1320760   0.0000000   0.0000000
                  7       4.644000   0.3474720  -0.1725100   0.0000000   0.0000000
                  8       1.293000   0.0412620   0.1518140   1.0000000   0.0000000
                  9       0.511800  -0.0085080   0.5999440   0.0000000   0.0000000
                 10       0.178700   0.0023840   0.3874620   0.0000000   1.0000000

 N #1  5    S   
+                11   11420.000000   0.0005230  -0.0001150   0.0000000   0.0000000
                 12    1712.000000   0.0040450  -0.0008950   0.0000000   0.0000000
                 13     389.300000   0.0207750  -0.0046240   0.0000000   0.0000000
                 14     110.000000   0.0807270  -0.0185280   0.0000000   0.0000000
                 15      35.570000   0.2330740  -0.0573390   0.0000000   0.0000000
                 16      12.540000   0.4335010  -0.1320760   0.0000000   0.0000000
                 17       4.644000   0.3474720  -0.1725100   0.0000000   0.0000000
                 18       1.293000   0.0412620   0.1518140   1.0000000   0.0000000
                 19       0.511800  -0.0085080   0.5999440   0.0000000   0.0000000
                 20       0.178700   0.0023840   0.3874620   0.0000000   1.0000000

 N #1  1    X   
+                21      26.630000   0.0146700   0.0000000   0.0000000
                 22       5.948000   0.0917640   0.0000000   0.0000000
                 23       1.742000   0.2986830   0.0000000   0.0000000
                 24       0.555000   0.4984870   1.0000000   0.0000000
                 25       0.172500   0.3370230   0.0000000   1.0000000

 N #1  5    X   
+                26      26.630000   0.0146700   0.0000000   0.0000000
                 27       5.948000   0.0917640   0.0000000   0.0000000
                 28       1.742000   0.2986830   0.0000000   0.0000000
                 29       0.555000   0.4984870   1.0000000   0.0000000
                 30       0.172500   0.3370230   0.0000000   1.0000000

 N #1  1    Y   
+                31      26.630000   0.0146700   0.0000000   0.0000000
                 32       5.948000   0.0917640   0.0000000   0.0000000
                 33       1.742000   0.2986830   0.0000000   0.0000000
                 34       0.555000   0.4984870   1.0000000   0.0000000
                 35       0.172500   0.3370230   0.0000000   1.0000000

 N #1  5    Y   
+                36      26.630000   0.0146700   0.0000000   0.0000000
                 37       5.948000   0.0917640   0.0000000   0.0000000
                 38       1.742000   0.2986830   0.0000000   0.0000000
                 39       0.555000   0.4984870   1.0000000   0.0000000
                 40       0.172500   0.3370230   0.0000000   1.0000000

 N #1  1    Z   
+                41      26.630000   0.0146700   0.0000000   0.0000000
                 42       5.948000   0.0917640   0.0000000   0.0000000
                 43       1.742000   0.2986830   0.0000000   0.0000000
                 44       0.555000   0.4984870   1.0000000   0.0000000
                 45       0.172500   0.3370230   0.0000000   1.0000000

 N #1  5    Z   
+                46      26.630000   0.0146700   0.0000000   0.0000000
                 47       5.948000   0.0917640   0.0000000   0.0000000
                 48       1.742000   0.2986830   0.0000000   0.0000000
                 49       0.555000   0.4984870   1.0000000   0.0000000
                 50       0.172500   0.3370230   0.0000000   1.0000000

 N #1  1    XX  
+                51       1.654000   1.0000000   0.0000000
                 52       0.469000   0.0000000   1.0000000

 N #1  5    XX  
+                53       1.654000   1.0000000   0.0000000
                 54       0.469000   0.0000000   1.0000000

 N #1  1    XY  
+                55       1.654000   1.0000000   0.0000000
                 56       0.469000   0.0000000   1.0000000

 N #1  5    XY  
+                57       1.654000   1.0000000   0.0000000
                 58       0.469000   0.0000000   1.0000000

 N #1  1    XZ  
+                59       1.654000   1.0000000   0.0000000
                 60       0.469000   0.0000000   1.0000000

 N #1  5    XZ  
+                61       1.654000   1.0000000   0.0000000
                 62       0.469000   0.0000000   1.0000000

 N #1  1    YY  
+                63       1.654000   1.0000000   0.0000000
                 64       0.469000   0.0000000   1.0000000

 N #1  5    YY  
+                65       1.654000   1.0000000   0.0000000
                 66       0.469000   0.0000000   1.0000000

 N #1  1    YZ  
+                67       1.654000   1.0000000   0.0000000
                 68       0.469000   0.0000000   1.0000000

 N #1  5    YZ  
+                69       1.654000   1.0000000   0.0000000
                 70       0.469000   0.0000000   1.0000000

 N #1  1    ZZ  
+                71       1.654000   1.0000000   0.0000000
                 72       0.469000   0.0000000   1.0000000

 N #1  5    ZZ  
+                73       1.654000   1.0000000   0.0000000
                 74       0.469000   0.0000000   1.0000000

 N #1  1    F300
+                75       1.093000   1.0000000

 N #1  5    F300
+                76       1.093000   1.0000000

 N #1  1    F210
+                77       1.093000   1.0000000

 N #1  5    F210
+                78       1.093000   1.0000000

 N #1  1    F201
+                79       1.093000   1.0000000

 N #1  5    F201
+                80       1.093000   1.0000000

 N #1  1    F120
+                81       1.093000   1.0000000

 N #1  5    F120
+                82       1.093000   1.0000000

 N #1  1    F111
+                83       1.093000   1.0000000

 N #1  5    F111
+                84       1.093000   1.0000000

 N #1  1    F102
+                85       1.093000   1.0000000

 N #1  5    F102
+                86       1.093000   1.0000000

 N #1  1    F030
+                87       1.093000   1.0000000

 N #1  5    F030
+                88       1.093000   1.0000000

 N #1  1    F021
+                89       1.093000   1.0000000

 N #1  5    F021
+                90       1.093000   1.0000000

 N #1  1    F012
+                91       1.093000   1.0000000

 N #1  5    F012
+                92       1.093000   1.0000000

 N #1  1    F003
+                93       1.093000   1.0000000

 N #1  5    F003
+                94       1.093000   1.0000000
 70 60
  1  2  3  4  5  6  7  8  9 10 11****** 12 13*** 14 15 16 17 18 19 20*** 21
 22 23 24 25 26 27*** 28 29 30 31 32 33 34 35 36 37 38 39 40 41****** 42 43
*** 44 45 46 47 48 49 50*** 51 52 53 54 55 56 57*** 58 59 60
1

             SYMMETRY TRANSFORMATION INFO
             60 SYMMETRY ADAPTED BASIS FUNCTIONS 


          IRREDUCIBLE REPRESENTATION NUMBER 1

    1    1  N #1     1S     2   1   1.0   2   1.0
    2    2  N #1     1S     2   3   1.0   4   1.0
    3    3  N #1     1S     2   5   1.0   6   1.0
    4    4  N #1     1S     2   7   1.0   8   1.0
    5    5  N #1     2PZ    2  21   1.0  22  -1.0
    6    6  N #1     2PZ    2  23   1.0  24  -1.0
    7    7  N #1     2PZ    2  25   1.0  26  -1.0
    8    8  N #1     3D2-   6  27  -1.0  39  -1.0  47   2.0  28  -1.0  40  -1.0  48   2.0
    9    9  N #1     3D2-   6  29  -1.0  41  -1.0  49   2.0  30  -1.0  42  -1.0  50   2.0
   10   10  N #1     3D1+   4  27   1.0  39  -1.0  28   1.0  40  -1.0
   11   11  N #1     3D1+   4  29   1.0  41  -1.0  30   1.0  42  -1.0
   12   12  N #1     4F1-   6  55  -3.0  65  -3.0  69   2.0  56   3.0  66   3.0  70  -2.0
   13   13  N #1     4F3+   4  55   1.0  65  -1.0  56  -1.0  66   1.0


          IRREDUCIBLE REPRESENTATION NUMBER 2

   14    1  N #1     2PX    2   9   1.0  10   1.0
   15    2  N #1     2PX    2  11   1.0  12   1.0
   16    3  N #1     2PX    2  13   1.0  14   1.0
   17    4  N #1     3D0    2  35   1.0  36  -1.0
   18    5  N #1     3D0    2  37   1.0  38  -1.0
   19    6  N #1     4F3-   6  51  -1.0  57  -1.0  61   4.0  52  -1.0  58  -1.0  62   4.0
   20    7  N #1     4F0    4  51   1.0  57  -3.0  52   1.0  58  -3.0


          IRREDUCIBLE REPRESENTATION NUMBER 3

   21    1  N #1     2PY    2  15   1.0  16   1.0
   22    2  N #1     2PY    2  17   1.0  18   1.0
   23    3  N #1     2PY    2  19   1.0  20   1.0
   24    4  N #1     3D2+   2  43   1.0  44  -1.0
   25    5  N #1     3D2+   2  45   1.0  46  -1.0
   26    6  N #1     4F2-   6  53  -1.0  63  -1.0  67   4.0  54  -1.0  64  -1.0  68   4.0
   27    7  N #1     4F2+   4  53   3.0  63  -1.0  54   3.0  64  -1.0


          IRREDUCIBLE REPRESENTATION NUMBER 4

   28    1  N #1     3D1-   2  31   1.0  32   1.0
   29    2  N #1     3D1-   2  33   1.0  34   1.0
   30    3  N #1     4F1+   2  59   1.0  60  -1.0


          IRREDUCIBLE REPRESENTATION NUMBER 5

   31    1  N #1     1S     2   1   1.0   2  -1.0
   32    2  N #1     1S     2   3   1.0   4  -1.0
   33    3  N #1     1S     2   5   1.0   6  -1.0
   34    4  N #1     1S     2   7   1.0   8  -1.0
   35    5  N #1     2PZ    2  21   1.0  22   1.0
   36    6  N #1     2PZ    2  23   1.0  24   1.0
   37    7  N #1     2PZ    2  25   1.0  26   1.0
   38    8  N #1     3D2-   6  27  -1.0  39  -1.0  47   2.0  28   1.0  40   1.0  48  -2.0
   39    9  N #1     3D2-   6  29  -1.0  41  -1.0  49   2.0  30   1.0  42   1.0  50  -2.0
   40   10  N #1     3D1+   4  27   1.0  39  -1.0  28  -1.0  40   1.0
   41   11  N #1     3D1+   4  29   1.0  41  -1.0  30  -1.0  42   1.0
   42   12  N #1     4F1-   6  55  -3.0  65  -3.0  69   2.0  56  -3.0  66  -3.0  70   2.0
   43   13  N #1     4F3+   4  55   1.0  65  -1.0  56   1.0  66  -1.0


          IRREDUCIBLE REPRESENTATION NUMBER 6

   44    1  N #1     2PX    2   9   1.0  10  -1.0
   45    2  N #1     2PX    2  11   1.0  12  -1.0
   46    3  N #1     2PX    2  13   1.0  14  -1.0
   47    4  N #1     3D0    2  35   1.0  36   1.0
   48    5  N #1     3D0    2  37   1.0  38   1.0
   49    6  N #1     4F3-   6  51  -1.0  57  -1.0  61   4.0  52   1.0  58   1.0  62  -4.0
   50    7  N #1     4F0    4  51   1.0  57  -3.0  52  -1.0  58   3.0


          IRREDUCIBLE REPRESENTATION NUMBER 7

   51    1  N #1     2PY    2  15   1.0  16  -1.0
   52    2  N #1     2PY    2  17   1.0  18  -1.0
   53    3  N #1     2PY    2  19   1.0  20  -1.0
   54    4  N #1     3D2+   2  43   1.0  44   1.0
   55    5  N #1     3D2+   2  45   1.0  46   1.0
   56    6  N #1     4F2-   6  53  -1.0  63  -1.0  67   4.0  54   1.0  64   1.0  68  -4.0
   57    7  N #1     4F2+   4  53   3.0  63  -1.0  54  -3.0  64   1.0


          IRREDUCIBLE REPRESENTATION NUMBER 8

   58    1  N #1     3D1-   2  31   1.0  32  -1.0
   59    2  N #1     3D1-   2  33   1.0  34  -1.0
   60    3  N #1     4F1+   2  59   1.0  60   1.0
  NUCLEAR REPULSION ENERGY :   23.7886953211 A.U.
  @MOLECU-I, ONE ELECTRON INTEGRALS (CPU/WALL):        0.00/       0.01 SECONDS.
  @TWOEL-I,       6414 INTEGRALS OF SYMMETRY TYPE  I I I I
  @TWOEL-I,      47573 INTEGRALS OF SYMMETRY TYPE  I J I J
  @TWOEL-I,      30138 INTEGRALS OF SYMMETRY TYPE  I I J J
  @TWOEL-I,      97656 INTEGRALS OF SYMMETRY TYPE  I J K L
  @TWOEL-I, TOTAL NUMBER OF 2-E INTEGRALS     181781.
  @MOLECU-I, TWO ELECTRON INTEGRALS (CPU/WALL):        0.09/       0.09 SECONDS.
 @CHECKOUT-I, Total execution time (CPU/WALL):        0.10/       0.10 seconds.

OMP_NUM_THREADS not specified; defaulting to 1
Running with 1 threads/proc

--executable xvmol finished with status     0 in        0.16 seconds (walltime).
 --invoking executable--
/ihome/kjordan/shu8/software/source/cfour/cfour-public/bin/xvmol2ja
 @GETMEM-I,  Allocated     762 MB of main memory.
 ZMAT order <=> comp order: mapping vector 
           1    1
           2    2
 @CHECKOUT-I, Total execution time (CPU/WALL):        0.00/       0.01 seconds.
--executable xvmol2ja finished with status     0 in        0.04 seconds (walltime).
 --invoking executable--
/ihome/kjordan/shu8/software/source/cfour/cfour-public/bin/xvscf
  There are   60 functions in the AO basis.

  There are 8 irreducible representations.

       Irrep        # of functions
         1                 13
         2                  7
         3                  7
         4                  3
         5                 13
         6                  7
         7                  7
         8                  3


  Parameters for SCF calculation: 
        SCF reference function:  UHF  
  Maximum number of iterations:  150
     Full symmetry point group: DXh 
     Computational point group: D2h 
        Initial density matrix: CORE                   
     SCF convergence tolerance: 10**(-10)
  DIIS convergence acceleration:  ON
          Latest start for DIIS:   8
                     DIIS order:   6

  Memory information:     198490 words required.
  Fock matrices are constructed from AO integral file.
 @GETMEM-I,  Allocated       1 MB of main memory.
  Initialization and symmetry analysis required      0.001 seconds.

 @INITGES-I, Routine entered. 
  @INITGES-I, Occupancies from core Hamiltonian:

          Alpha population by irrep:   2    1    1    0    2    0    1    0
           Beta population by irrep:   2    1    1    0    2    0    1    0


 total no. of electrons in initial guess :  0.000000000000000E+000
 total no. of electrons in initial guess :  0.000000000000000E+000
  --------------------------------------------------------------------
  Iteration         Total Energy            Largest Density Difference
  --------------------------------------------------------------------
       0            23.788695321100924              0.0000000000D+00
   current occupation vector 
     2  1  1  0  2  0  1  0
     2  1  1  0  2  0  1  0
  processed                   6414  ao basis integrals from 
                     2  buffers.
  processed                  30138  ao basis integrals from 
                     8  buffers.
  processed                  47573  ao basis integrals from 
                    12  buffers.
       1           -93.798452156751239              0.3656620177D+01
   current occupation vector 
     2  1  1  0  2  0  1  0
     2  1  1  0  2  0  1  0
  processed                   6414  ao basis integrals from 
                     2  buffers.
  processed                  30138  ao basis integrals from 
                     8  buffers.
  processed                  47573  ao basis integrals from 
                    12  buffers.
       2          -101.911652387379831              0.5421931536D+01
   current occupation vector 
     3  1  1  0  2  0  0  0
     3  1  1  0  2  0  0  0
  processed                   6414  ao basis integrals from 
                     2  buffers.
  processed                  30138  ao basis integrals from 
                     8  buffers.
  processed                  47573  ao basis integrals from 
                    12  buffers.
       3          -107.877182341414169              0.5308310720D+01
   current occupation vector 
     3  1  1  0  2  0  0  0
     3  1  1  0  2  0  0  0
  processed                   6414  ao basis integrals from 
                     2  buffers.
  processed                  30138  ao basis integrals from 
                     8  buffers.
  processed                  47573  ao basis integrals from 
                    12  buffers.
       4          -108.879520903887169              0.5776605944D+00
   current occupation vector 
     3  1  1  0  2  0  0  0
     3  1  1  0  2  0  0  0
 
 sum over diagonal and offdiagdiagonal of C(T)*S*C for irrep
                     1
  3.885780586188048E-014 -5.975947785300668E-014
 reorthoganalization of MOs is carried out
 sum over diagonal and offdiagdiagonal of C(T)*S*C for irrep
                     1
 -1.587618925213974E-014 -3.955555914020013E-014
 
 sum over diagonal and offdiagdiagonal of C(T)*S*C for irrep
                     2
  3.153033389935445E-014  3.092425648577519E-014
 reorthoganalization of MOs is carried out
 sum over diagonal and offdiagdiagonal of C(T)*S*C for irrep
                     2
  1.443289932012704E-015  3.253813035414857E-016
 
 sum over diagonal and offdiagdiagonal of C(T)*S*C for irrep
                     3
  3.430589146091734E-014  3.133435363314370E-014
 reorthoganalization of MOs is carried out
 sum over diagonal and offdiagdiagonal of C(T)*S*C for irrep
                     3
  3.330669073875470E-015 -3.186034659918439E-015
 
 sum over diagonal and offdiagdiagonal of C(T)*S*C for irrep
                     4
 -2.442490654175344E-015  2.066923021626366E-015
 reorthoganalization of MOs is carried out
 sum over diagonal and offdiagdiagonal of C(T)*S*C for irrep
                     4
 -1.110223024625157E-016 -1.621966450038315E-016
 
 sum over diagonal and offdiagdiagonal of C(T)*S*C for irrep
                     5
 -1.377786773559819E-013  5.618361712519406E-014
 reorthoganalization of MOs is carried out
 sum over diagonal and offdiagdiagonal of C(T)*S*C for irrep
                     5
  4.229949723821846E-014  2.790762900382265E-014
 
 sum over diagonal and offdiagdiagonal of C(T)*S*C for irrep
                     6
  6.994405055138486E-015 -1.633820451427850E-014
 reorthoganalization of MOs is carried out
 sum over diagonal and offdiagdiagonal of C(T)*S*C for irrep
                     6
  2.220446049250313E-016  2.940387171681803E-015
 
 sum over diagonal and offdiagdiagonal of C(T)*S*C for irrep
                     7
 -4.662936703425657E-015 -8.352881076756055E-015
 reorthoganalization of MOs is carried out
 sum over diagonal and offdiagdiagonal of C(T)*S*C for irrep
                     7
 -1.554312234475219E-015 -7.009182093129405E-015
 
 sum over diagonal and offdiagdiagonal of C(T)*S*C for irrep
                     8
  3.774758283725532E-015 -9.728546093712431E-016
 reorthoganalization of MOs is carried out
 sum over diagonal and offdiagdiagonal of C(T)*S*C for irrep
                     8
  5.551115123125783E-016 -2.591243192240356E-017
 
 sum over diagonal and offdiagdiagonal of C(T)*S*C for irrep
                     1
  3.885780586188048E-014 -5.975947785300668E-014
 reorthoganalization of MOs is carried out
 sum over diagonal and offdiagdiagonal of C(T)*S*C for irrep
                     1
 -1.587618925213974E-014 -3.955555914020013E-014
 
 sum over diagonal and offdiagdiagonal of C(T)*S*C for irrep
                     2
  3.153033389935445E-014  3.092425648577519E-014
 reorthoganalization of MOs is carried out
 sum over diagonal and offdiagdiagonal of C(T)*S*C for irrep
                     2
  1.443289932012704E-015  3.253813035414857E-016
 
 sum over diagonal and offdiagdiagonal of C(T)*S*C for irrep
                     3
  3.430589146091734E-014  3.133435363314370E-014
 reorthoganalization of MOs is carried out
 sum over diagonal and offdiagdiagonal of C(T)*S*C for irrep
                     3
  3.330669073875470E-015 -3.186034659918439E-015
 
 sum over diagonal and offdiagdiagonal of C(T)*S*C for irrep
                     4
 -2.442490654175344E-015  2.066923021626366E-015
 reorthoganalization of MOs is carried out
 sum over diagonal and offdiagdiagonal of C(T)*S*C for irrep
                     4
 -1.110223024625157E-016 -1.621966450038315E-016
 
 sum over diagonal and offdiagdiagonal of C(T)*S*C for irrep
                     5
 -1.377786773559819E-013  5.618361712519406E-014
 reorthoganalization of MOs is carried out
 sum over diagonal and offdiagdiagonal of C(T)*S*C for irrep
                     5
  4.229949723821846E-014  2.790762900382265E-014
 
 sum over diagonal and offdiagdiagonal of C(T)*S*C for irrep
                     6
  6.994405055138486E-015 -1.633820451427850E-014
 reorthoganalization of MOs is carried out
 sum over diagonal and offdiagdiagonal of C(T)*S*C for irrep
                     6
  2.220446049250313E-016  2.940387171681803E-015
 
 sum over diagonal and offdiagdiagonal of C(T)*S*C for irrep
                     7
 -4.662936703425657E-015 -8.352881076756055E-015
 reorthoganalization of MOs is carried out
 sum over diagonal and offdiagdiagonal of C(T)*S*C for irrep
                     7
 -1.554312234475219E-015 -7.009182093129405E-015
 
 sum over diagonal and offdiagdiagonal of C(T)*S*C for irrep
                     8
  3.774758283725532E-015 -9.728546093712431E-016
 reorthoganalization of MOs is carried out
 sum over diagonal and offdiagdiagonal of C(T)*S*C for irrep
                     8
  5.551115123125783E-016 -2.591243192240356E-017
  processed                   6414  ao basis integrals from 
                     2  buffers.
  processed                  30138  ao basis integrals from 
                     8  buffers.
  processed                  47573  ao basis integrals from 
                    12  buffers.
       5          -108.976752761419874              0.1405462796D+00
   current occupation vector 
     3  1  1  0  2  0  0  0
     3  1  1  0  2  0  0  0
  processed                   6414  ao basis integrals from 
                     2  buffers.
  processed                  30138  ao basis integrals from 
                     8  buffers.
  processed                  47573  ao basis integrals from 
                    12  buffers.
       6          -108.984782110717930              0.3267478426D-01
   current occupation vector 
     3  1  1  0  2  0  0  0
     3  1  1  0  2  0  0  0
  processed                   6414  ao basis integrals from 
                     2  buffers.
  processed                  30138  ao basis integrals from 
                     8  buffers.
  processed                  47573  ao basis integrals from 
                    12  buffers.
       7          -108.984799046316169              0.2475302576D-02
   current occupation vector 
     3  1  1  0  2  0  0  0
     3  1  1  0  2  0  0  0
  processed                   6414  ao basis integrals from 
                     2  buffers.
  processed                  30138  ao basis integrals from 
                     8  buffers.
  processed                  47573  ao basis integrals from 
                    12  buffers.
       8          -108.984799349381376              0.2063932693D-03
   current occupation vector 
     3  1  1  0  2  0  0  0
     3  1  1  0  2  0  0  0
  processed                   6414  ao basis integrals from 
                     2  buffers.
  processed                  30138  ao basis integrals from 
                     8  buffers.
  processed                  47573  ao basis integrals from 
                    12  buffers.
       9          -108.984799355283570              0.2269772982D-04
   current occupation vector 
     3  1  1  0  2  0  0  0
     3  1  1  0  2  0  0  0
 
 sum over diagonal and offdiagdiagonal of C(T)*S*C for irrep
                     1
 -8.770761894538737E-015 -9.345112339608923E-014
 reorthoganalization of MOs is carried out
 sum over diagonal and offdiagdiagonal of C(T)*S*C for irrep
                     1
 -9.880984919163893E-015  3.067992605280911E-015
 
 sum over diagonal and offdiagdiagonal of C(T)*S*C for irrep
                     2
  3.042011087472929E-014  2.961838046984060E-014
 reorthoganalization of MOs is carried out
 sum over diagonal and offdiagdiagonal of C(T)*S*C for irrep
                     2
  3.885780586188048E-015  1.125602929283059E-015
 
 sum over diagonal and offdiagdiagonal of C(T)*S*C for irrep
                     3
  3.674838211509268E-014  3.125767865200468E-014
 reorthoganalization of MOs is carried out
 sum over diagonal and offdiagdiagonal of C(T)*S*C for irrep
                     3
 -2.442490654175344E-015 -4.367416437368031E-015
 
 sum over diagonal and offdiagdiagonal of C(T)*S*C for irrep
                     4
 -1.665334536937735E-015 -1.664900856068741E-015
 reorthoganalization of MOs is carried out
 sum over diagonal and offdiagdiagonal of C(T)*S*C for irrep
                     4
 -4.440892098500626E-016  1.099381002900301E-016
 
 sum over diagonal and offdiagdiagonal of C(T)*S*C for irrep
                     5
 -1.375566327510569E-013  7.717533074649491E-014
 reorthoganalization of MOs is carried out
 sum over diagonal and offdiagdiagonal of C(T)*S*C for irrep
                     5
 -5.440092820663267E-015 -2.910887054281977E-014
 
 sum over diagonal and offdiagdiagonal of C(T)*S*C for irrep
                     6
  1.343369859796439E-014 -2.003731811725575E-014
 reorthoganalization of MOs is carried out
 sum over diagonal and offdiagdiagonal of C(T)*S*C for irrep
                     6
  2.886579864025407E-015 -1.510560863798344E-015
 
 sum over diagonal and offdiagdiagonal of C(T)*S*C for irrep
                     7
  4.218847493575595E-015 -2.053318934468627E-014
 reorthoganalization of MOs is carried out
 sum over diagonal and offdiagdiagonal of C(T)*S*C for irrep
                     7
 -2.220446049250313E-016  8.579502721818499E-015
 
 sum over diagonal and offdiagdiagonal of C(T)*S*C for irrep
                     8
  4.218847493575595E-015 -1.155325835000554E-015
 reorthoganalization of MOs is carried out
 sum over diagonal and offdiagdiagonal of C(T)*S*C for irrep
                     8
 -3.330669073875470E-016 -1.118896642005041E-016
 
 sum over diagonal and offdiagdiagonal of C(T)*S*C for irrep
                     1
 -8.770761894538737E-015 -9.345112339608923E-014
 reorthoganalization of MOs is carried out
 sum over diagonal and offdiagdiagonal of C(T)*S*C for irrep
                     1
 -9.880984919163893E-015  3.067992605280911E-015
 
 sum over diagonal and offdiagdiagonal of C(T)*S*C for irrep
                     2
  3.042011087472929E-014  2.961838046984060E-014
 reorthoganalization of MOs is carried out
 sum over diagonal and offdiagdiagonal of C(T)*S*C for irrep
                     2
  3.885780586188048E-015  1.125602929283059E-015
 
 sum over diagonal and offdiagdiagonal of C(T)*S*C for irrep
                     3
  3.674838211509268E-014  3.125767865200468E-014
 reorthoganalization of MOs is carried out
 sum over diagonal and offdiagdiagonal of C(T)*S*C for irrep
                     3
 -2.442490654175344E-015 -4.367416437368031E-015
 
 sum over diagonal and offdiagdiagonal of C(T)*S*C for irrep
                     4
 -1.665334536937735E-015 -1.664900856068741E-015
 reorthoganalization of MOs is carried out
 sum over diagonal and offdiagdiagonal of C(T)*S*C for irrep
                     4
 -4.440892098500626E-016  1.099381002900301E-016
 
 sum over diagonal and offdiagdiagonal of C(T)*S*C for irrep
                     5
 -1.375566327510569E-013  7.717533074649491E-014
 reorthoganalization of MOs is carried out
 sum over diagonal and offdiagdiagonal of C(T)*S*C for irrep
                     5
 -5.440092820663267E-015 -2.910887054281977E-014
 
 sum over diagonal and offdiagdiagonal of C(T)*S*C for irrep
                     6
  1.343369859796439E-014 -2.003731811725575E-014
 reorthoganalization of MOs is carried out
 sum over diagonal and offdiagdiagonal of C(T)*S*C for irrep
                     6
  2.886579864025407E-015 -1.510560863798344E-015
 
 sum over diagonal and offdiagdiagonal of C(T)*S*C for irrep
                     7
  4.218847493575595E-015 -2.053318934468627E-014
 reorthoganalization of MOs is carried out
 sum over diagonal and offdiagdiagonal of C(T)*S*C for irrep
                     7
 -2.220446049250313E-016  8.579502721818499E-015
 
 sum over diagonal and offdiagdiagonal of C(T)*S*C for irrep
                     8
  4.218847493575595E-015 -1.155325835000554E-015
 reorthoganalization of MOs is carried out
 sum over diagonal and offdiagdiagonal of C(T)*S*C for irrep
                     8
 -3.330669073875470E-016 -1.118896642005041E-016
  processed                   6414  ao basis integrals from 
                     2  buffers.
  processed                  30138  ao basis integrals from 
                     8  buffers.
  processed                  47573  ao basis integrals from 
                    12  buffers.
      10          -108.984799355485791              0.7060123396D-05
   current occupation vector 
     3  1  1  0  2  0  0  0
     3  1  1  0  2  0  0  0
  processed                   6414  ao basis integrals from 
                     2  buffers.
  processed                  30138  ao basis integrals from 
                     8  buffers.
  processed                  47573  ao basis integrals from 
                    12  buffers.
      11          -108.984799355490679              0.1340741379D-05
   current occupation vector 
     3  1  1  0  2  0  0  0
     3  1  1  0  2  0  0  0
  processed                   6414  ao basis integrals from 
                     2  buffers.
  processed                  30138  ao basis integrals from 
                     8  buffers.
  processed                  47573  ao basis integrals from 
                    12  buffers.
      12          -108.984799355490367              0.5446976301D-07
   current occupation vector 
     3  1  1  0  2  0  0  0
     3  1  1  0  2  0  0  0
  processed                   6414  ao basis integrals from 
                     2  buffers.
  processed                  30138  ao basis integrals from 
                     8  buffers.
  processed                  47573  ao basis integrals from 
                    12  buffers.
      13          -108.984799355490480              0.9018095964D-08
   current occupation vector 
     3  1  1  0  2  0  0  0
     3  1  1  0  2  0  0  0
  processed                   6414  ao basis integrals from 
                     2  buffers.
  processed                  30138  ao basis integrals from 
                     8  buffers.
  processed                  47573  ao basis integrals from 
                    12  buffers.
      14          -108.984799355490367              0.1292041467D-08
   current occupation vector 
     3  1  1  0  2  0  0  0
     3  1  1  0  2  0  0  0
 
 sum over diagonal and offdiagdiagonal of C(T)*S*C for irrep
                     1
  1.421085471520200E-014 -9.986144418324197E-014
 reorthoganalization of MOs is carried out
 sum over diagonal and offdiagdiagonal of C(T)*S*C for irrep
                     1
  3.552713678800501E-015 -1.412348157272474E-014
 
 sum over diagonal and offdiagdiagonal of C(T)*S*C for irrep
                     2
  3.930189507173054E-014  2.338409956817230E-014
 reorthoganalization of MOs is carried out
 sum over diagonal and offdiagdiagonal of C(T)*S*C for irrep
                     2
 -1.887379141862766E-015 -5.792350112802690E-016
 
 sum over diagonal and offdiagdiagonal of C(T)*S*C for irrep
                     3
  3.441691376337985E-014  3.102561068698905E-014
 reorthoganalization of MOs is carried out
 sum over diagonal and offdiagdiagonal of C(T)*S*C for irrep
                     3
 -2.442490654175344E-015 -6.054876110657229E-015
 
 sum over diagonal and offdiagdiagonal of C(T)*S*C for irrep
                     4
 -1.110223024625157E-016 -1.825796458465589E-016
 reorthoganalization of MOs is carried out
 sum over diagonal and offdiagdiagonal of C(T)*S*C for irrep
                     4
 -3.330669073875470E-016 -1.370431546021678E-016
 
 sum over diagonal and offdiagdiagonal of C(T)*S*C for irrep
                     5
 -1.079136779935652E-013  1.315445139298464E-013
 reorthoganalization of MOs is carried out
 sum over diagonal and offdiagdiagonal of C(T)*S*C for irrep
                     5
 -3.197442310920451E-014 -8.097390881986670E-014
 
 sum over diagonal and offdiagdiagonal of C(T)*S*C for irrep
                     6
  5.995204332975845E-015 -1.702614878090248E-014
 reorthoganalization of MOs is carried out
 sum over diagonal and offdiagdiagonal of C(T)*S*C for irrep
                     6
  1.221245327087672E-015 -1.029260227386153E-015
 
 sum over diagonal and offdiagdiagonal of C(T)*S*C for irrep
                     7
  6.217248937900877E-015 -2.475211877759208E-014
 reorthoganalization of MOs is carried out
 sum over diagonal and offdiagdiagonal of C(T)*S*C for irrep
                     7
  5.551115123125783E-016  4.159541634758160E-015
 
 sum over diagonal and offdiagdiagonal of C(T)*S*C for irrep
                     8
  6.661338147750939E-015 -1.533929233632492E-015
 reorthoganalization of MOs is carried out
 sum over diagonal and offdiagdiagonal of C(T)*S*C for irrep
                     8
 -1.110223024625157E-016  8.304988641238964E-017
 
 sum over diagonal and offdiagdiagonal of C(T)*S*C for irrep
                     1
  1.421085471520200E-014 -9.986144418324197E-014
 reorthoganalization of MOs is carried out
 sum over diagonal and offdiagdiagonal of C(T)*S*C for irrep
                     1
  3.552713678800501E-015 -1.412348157272474E-014
 
 sum over diagonal and offdiagdiagonal of C(T)*S*C for irrep
                     2
  3.930189507173054E-014  2.338409956817230E-014
 reorthoganalization of MOs is carried out
 sum over diagonal and offdiagdiagonal of C(T)*S*C for irrep
                     2
 -1.887379141862766E-015 -5.792350112802690E-016
 
 sum over diagonal and offdiagdiagonal of C(T)*S*C for irrep
                     3
  3.441691376337985E-014  3.102561068698905E-014
 reorthoganalization of MOs is carried out
 sum over diagonal and offdiagdiagonal of C(T)*S*C for irrep
                     3
 -2.442490654175344E-015 -6.054876110657229E-015
 
 sum over diagonal and offdiagdiagonal of C(T)*S*C for irrep
                     4
 -1.110223024625157E-016 -1.825796458465589E-016
 reorthoganalization of MOs is carried out
 sum over diagonal and offdiagdiagonal of C(T)*S*C for irrep
                     4
 -3.330669073875470E-016 -1.370431546021678E-016
 
 sum over diagonal and offdiagdiagonal of C(T)*S*C for irrep
                     5
 -1.079136779935652E-013  1.315445139298464E-013
 reorthoganalization of MOs is carried out
 sum over diagonal and offdiagdiagonal of C(T)*S*C for irrep
                     5
 -3.197442310920451E-014 -8.097390881986670E-014
 
 sum over diagonal and offdiagdiagonal of C(T)*S*C for irrep
                     6
  5.995204332975845E-015 -1.702614878090248E-014
 reorthoganalization of MOs is carried out
 sum over diagonal and offdiagdiagonal of C(T)*S*C for irrep
                     6
  1.221245327087672E-015 -1.029260227386153E-015
 
 sum over diagonal and offdiagdiagonal of C(T)*S*C for irrep
                     7
  6.217248937900877E-015 -2.475211877759208E-014
 reorthoganalization of MOs is carried out
 sum over diagonal and offdiagdiagonal of C(T)*S*C for irrep
                     7
  5.551115123125783E-016  4.159541634758160E-015
 
 sum over diagonal and offdiagdiagonal of C(T)*S*C for irrep
                     8
  6.661338147750939E-015 -1.533929233632492E-015
 reorthoganalization of MOs is carried out
 sum over diagonal and offdiagdiagonal of C(T)*S*C for irrep
                     8
 -1.110223024625157E-016  8.304988641238964E-017

  SCF has converged.

 Density matrix saved to file den.dat
 total alpha spin electron number:   7.00000000000000     
 total  beta spin electron number:   7.00000000000000     
  processed                   6414  ao basis integrals from 
                     2  buffers.
  processed                  30138  ao basis integrals from 
                     8  buffers.
  processed                  47573  ao basis integrals from 
                    12  buffers.
     E(SCF)=      -108.984799355490509              0.9225721576D-10


  Final occupancies:

     Alpha population by irrep:   3    1    1    0    2    0    0    0
      Beta population by irrep:   3    1    1    0    2    0    0    0



  ORBITAL EIGENVECTORS

  SYMMETRY BLOCK 1 (ALPHA)

                          MO #  1       MO #  2       MO #  3       MO #  4

    BASIS/ORB E          -15.67890      -1.47524      -0.63306       0.56077
                        ----------    ----------    ----------    ----------
    1; N #1                0.70697       0.02482       0.00260       0.06368
    2; N #1                0.00134      -0.61094       0.23524       0.16596
    3; N #1                0.00062       0.00262       0.00132       0.03075
    4; N #1               -0.00096       0.14049       0.17960       0.19163
    5; N #1               -0.00506       0.34668       0.70020      -0.32424
    6; N #1                0.00281      -0.04305      -0.04930      -0.25916
    7; N #1                0.00167      -0.10041      -0.08700       1.35382
    8; N #1                0.00014      -0.00586      -0.00528       0.01293
    9; N #1               -0.00012      -0.00542      -0.00457      -0.03502
   10; N #1               -0.00000       0.00000       0.00000      -0.00000
   11; N #1               -0.00000       0.00000       0.00000      -0.00000
   12; N #1                0.00003       0.00097       0.00066       0.00318
   13; N #1                0.00000      -0.00000      -0.00000       0.00000


                          MO #  5       MO #  6       MO #  7       MO #  8

    BASIS/ORB E            0.67320       1.04791       1.93115       3.30751
                        ----------    ----------    ----------    ----------
    1; N #1                0.32262      -0.00000       0.48189       0.01673
    2; N #1                1.56011      -0.00000       1.82752       0.21502
    3; N #1               -0.09644       0.00000       0.10170       0.14516
    4; N #1               -1.52143       0.00000      -1.27556      -0.21077
    5; N #1                0.14156       0.00000       0.40814      -1.63872
    6; N #1                0.07643       0.00000      -0.67149       1.47149
    7; N #1               -0.01241      -0.00000       0.99069       0.36181
    8; N #1                0.00210      -0.00000       0.00654       0.02015
    9; N #1                0.03967      -0.00000      -0.35593      -0.09254
   10; N #1               -0.00000       0.00357      -0.00000       0.00000
   11; N #1               -0.00000      -0.30331      -0.00000      -0.00000
   12; N #1                0.00052      -0.00000       0.01032      -0.04593
   13; N #1                0.00000       0.00231       0.00000      -0.00000


                          MO #  9       MO # 10       MO # 11       MO # 12

    BASIS/ORB E            3.83150       4.40201       4.77379       5.54690
                        ----------    ----------    ----------    ----------
    1; N #1                0.00000       0.41032      -0.00000       1.47121
    2; N #1                0.00000       0.81077      -0.00000       3.69745
    3; N #1               -0.00000      -0.77129       0.00000      -1.31962
    4; N #1               -0.00000      -0.49880       0.00000      -2.41243
    5; N #1                0.00000      -0.81611      -0.00000      -1.47140
    6; N #1               -0.00000       0.68918       0.00000       1.14553
    7; N #1                0.00000      -0.03196      -0.00000       1.09590
    8; N #1                0.00000      -0.19732      -0.00000       0.14582
    9; N #1               -0.00000       0.15230       0.00000      -0.31473
   10; N #1                0.08778      -0.00000       0.40196       0.00000
   11; N #1               -0.09362       0.00000      -0.16867      -0.00000
   12; N #1                0.00000       0.00252       0.00000       0.06394
   13; N #1               -0.29843      -0.00000       0.07742       0.00000


                          MO # 13

    BASIS\ORB E            7.07392
                        ----------
    1; N #1                0.85528
    2; N #1                1.42550
    3; N #1               -1.93973
    4; N #1               -0.64245
    5; N #1                2.06471
    6; N #1               -1.57291
    7; N #1               -0.89130
    8; N #1               -0.04637
    9; N #1                0.20134
   10; N #1                0.00000
   11; N #1               -0.00000
   12; N #1               -0.09060
   13; N #1                0.00000


  SYMMETRY BLOCK 2 (ALPHA)

                          MO # 14       MO # 15       MO # 16       MO # 17

    BASIS/ORB E           -0.61534       0.56124       1.34818       3.16523
                        ----------    ----------    ----------    ----------
   14; N #1                0.62867       0.37454       0.18796       2.37634
   15; N #1               -0.00817       0.33146       0.25044      -2.16031
   16; N #1               -0.03490      -0.82893      -0.18015      -0.43540
   17; N #1               -0.02008      -0.01467       0.00347      -0.04109
   18; N #1               -0.03834      -0.07132       0.64677      -0.04723
   19; N #1                0.00130      -0.00030       0.00172       0.01711
   20; N #1                0.00000      -0.00000       0.00000       0.00000


                          MO # 18       MO # 19       MO # 20

    BASIS\ORB E            3.95434       3.99519       5.43151
                        ----------    ----------    ----------
   14; N #1                0.00000       0.49309       0.31258
   15; N #1               -0.00000      -0.33851      -0.01630
   16; N #1               -0.00000      -0.17730      -0.15116
   17; N #1                0.00000       0.52816      -0.67546
   18; N #1               -0.00000      -0.32478       0.39755
   19; N #1               -0.00000      -0.05926      -0.09134
   20; N #1                0.13772      -0.00000       0.00000


  SYMMETRY BLOCK 3 (ALPHA)

                          MO # 21       MO # 22       MO # 23       MO # 24

    BASIS/ORB E           -0.61534       0.56124       1.34818       3.16523
                        ----------    ----------    ----------    ----------
   21; N #1                0.62867       0.37454       0.18796       2.37634
   22; N #1               -0.00817       0.33146       0.25044      -2.16031
   23; N #1               -0.03490      -0.82893      -0.18015      -0.43540
   24; N #1               -0.02008      -0.01467       0.00347      -0.04109
   25; N #1               -0.03834      -0.07132       0.64677      -0.04723
   26; N #1                0.00130      -0.00030       0.00172       0.01711
   27; N #1                0.00000      -0.00000       0.00000       0.00000


                          MO # 25       MO # 26       MO # 27

    BASIS\ORB E            3.95434       3.99519       5.43151
                        ----------    ----------    ----------
   21; N #1                0.00000       0.49309       0.31258
   22; N #1               -0.00000      -0.33851      -0.01630
   23; N #1               -0.00000      -0.17730      -0.15116
   24; N #1                0.00000       0.52816      -0.67546
   25; N #1               -0.00000      -0.32478       0.39755
   26; N #1               -0.00000      -0.05926      -0.09134
   27; N #1                0.13772      -0.00000       0.00000


  SYMMETRY BLOCK 4 (ALPHA)

                          MO # 28       MO # 29       MO # 30

    BASIS\ORB E            1.04791       3.83150       4.77379
                        ----------    ----------    ----------
   28; N #1                0.00714       0.17556       0.80391
   29; N #1               -0.60663      -0.18724      -0.33734
   30; N #1                0.00462      -0.59687       0.15484


  SYMMETRY BLOCK 5 (ALPHA)

                          MO # 31       MO # 32       MO # 33       MO # 34

    BASIS/ORB E          -15.67519      -0.77493       0.42626       0.92935
                        ----------    ----------    ----------    ----------
   31; N #1                0.70676       0.00430       0.05909       0.08152
   32; N #1               -0.00090       0.65536       0.51092       0.39471
   33; N #1                0.00052       0.00041      -0.02697       0.03014
   34; N #1                0.00414       0.05303       6.57936      -7.30670
   35; N #1               -0.00347       0.32238       0.05342       0.44415
   36; N #1                0.00216      -0.01039      -0.32518       1.12244
   37; N #1               -0.00050      -0.03179      -3.69808       2.36747
   38; N #1                0.00018      -0.00099      -0.00539      -0.00642
   39; N #1                0.00007      -0.00233       0.08760      -0.08160
   40; N #1               -0.00000       0.00000      -0.00000      -0.00000
   41; N #1                0.00000       0.00000      -0.00000       0.00000
   42; N #1               -0.00005      -0.00003      -0.00281       0.00843
   43; N #1                0.00000       0.00000      -0.00000      -0.00000


                          MO # 35       MO # 36       MO # 37       MO # 38

    BASIS/ORB E            1.10053       1.51590       2.26717       3.75115
                        ----------    ----------    ----------    ----------
   31; N #1                0.00180      -0.00000       0.33827       0.22896
   32; N #1                0.55978       0.00000       1.62265       1.72224
   33; N #1                0.07198       0.00000       0.10188       0.59346
   34; N #1               -9.86940      -0.00000       5.21622       6.53404
   35; N #1               -0.71555       0.00000      -1.15629       2.05123
   36; N #1                1.24796       0.00000      -0.80439      -4.56176
   37; N #1                4.27348       0.00000      -2.12832      -3.19203
   38; N #1               -0.01814       0.00000      -0.02225       0.01923
   39; N #1               -0.28657       0.00000       0.39427       0.39722
   40; N #1               -0.00000       0.01051      -0.00000       0.00000
   41; N #1               -0.00000      -0.45315       0.00000      -0.00000
   42; N #1                0.01253       0.00000       0.00477      -0.02173
   43; N #1               -0.00000       0.00296      -0.00000       0.00000


                          MO # 39       MO # 40       MO # 41       MO # 42

    BASIS/ORB E            4.90947       5.04646       5.32705       6.20889
                        ----------    ----------    ----------    ----------
   31; N #1               -0.00000       0.26953       0.00000       0.46780
   32; N #1               -0.00000       1.20806       0.00000       0.73025
   33; N #1               -0.00000       0.25797      -0.00000      -0.76979
   34; N #1               -0.00000       1.79225       0.00000       0.61061
   35; N #1                0.00000      -0.68230       0.00000       0.75593
   36; N #1                0.00000      -0.64139      -0.00000      -0.30388
   37; N #1                0.00000      -0.72010      -0.00000      -0.77636
   38; N #1                0.00000      -0.04109      -0.00000      -0.28328
   39; N #1               -0.00000       0.22863       0.00000       0.11027
   40; N #1                0.41678       0.00000       0.06245      -0.00000
   41; N #1               -0.28805      -0.00000       0.13496      -0.00000
   42; N #1                0.00000      -0.11336      -0.00000       0.04832
   43; N #1                0.07540       0.00000      -0.46947       0.00000


                          MO # 43

    BASIS\ORB E           17.00261
                        ----------
   31; N #1                4.64501
   32; N #1               13.70896
   33; N #1               -3.98610
   34; N #1                0.96638
   35; N #1                1.08488
   36; N #1               -7.60334
   37; N #1               -2.90768
   38; N #1                0.25862
   39; N #1                0.79176
   40; N #1                0.00000
   41; N #1               -0.00000
   42; N #1               -0.10616
   43; N #1                0.00000


  SYMMETRY BLOCK 6 (ALPHA)

                          MO # 44       MO # 45       MO # 46       MO # 47

    BASIS/ORB E            0.16573       0.73334       1.94254       3.51711
                        ----------    ----------    ----------    ----------
   44; N #1                0.62662       0.58291       0.41728       2.39460
   45; N #1               -0.01278       0.24531       0.54056      -2.54870
   46; N #1                0.51441      -1.72881       0.90401      -0.44518
   47; N #1                0.01370      -0.01379       0.03010       0.00027
   48; N #1               -0.01011       0.26790      -1.77734       0.47963
   49; N #1                0.00011      -0.00623       0.01902       0.01973
   50; N #1                0.00000       0.00000       0.00000       0.00000


                          MO # 48       MO # 49       MO # 50

    BASIS\ORB E            4.45393       4.87554       6.89536
                        ----------    ----------    ----------
   44; N #1               -0.00000       0.61597       0.72660
   45; N #1                0.00000      -1.57292      -1.96662
   46; N #1               -0.00000      -0.78178      -0.44685
   47; N #1               -0.00000      -0.59596       0.73926
   48; N #1                0.00000       1.59931       1.16448
   49; N #1               -0.00000      -0.11645      -0.19241
   50; N #1                0.15201      -0.00000       0.00000


  SYMMETRY BLOCK 7 (ALPHA)

                          MO # 51       MO # 52       MO # 53       MO # 54

    BASIS/ORB E            0.16573       0.73334       1.94254       3.51711
                        ----------    ----------    ----------    ----------
   51; N #1                0.62662       0.58291       0.41728       2.39460
   52; N #1               -0.01278       0.24531       0.54056      -2.54870
   53; N #1                0.51441      -1.72881       0.90401      -0.44518
   54; N #1                0.01370      -0.01379       0.03010       0.00027
   55; N #1               -0.01011       0.26790      -1.77734       0.47963
   56; N #1                0.00011      -0.00623       0.01902       0.01973
   57; N #1                0.00000       0.00000       0.00000       0.00000


                          MO # 55       MO # 56       MO # 57

    BASIS\ORB E            4.45393       4.87554       6.89536
                        ----------    ----------    ----------
   51; N #1               -0.00000       0.61597       0.72660
   52; N #1                0.00000      -1.57292      -1.96662
   53; N #1                0.00000      -0.78178      -0.44685
   54; N #1               -0.00000      -0.59596       0.73926
   55; N #1                0.00000       1.59931       1.16448
   56; N #1               -0.00000      -0.11645      -0.19241
   57; N #1                0.15201      -0.00000       0.00000


  SYMMETRY BLOCK 8 (ALPHA)

                          MO # 58       MO # 59       MO # 60

    BASIS\ORB E            1.51590       4.90947       5.32705
                        ----------    ----------    ----------
   58; N #1                0.02102       0.83355       0.12490
   59; N #1               -0.90630      -0.57611       0.26993
   60; N #1                0.00593       0.15080      -0.93894



  ORBITAL EIGENVECTORS

  SYMMETRY BLOCK 1 ( BETA)

                          MO #  1       MO #  2       MO #  3       MO #  4

    BASIS/ORB E          -15.67890      -1.47524      -0.63306       0.56077
                        ----------    ----------    ----------    ----------
    1; N #1                0.70697       0.02482       0.00260       0.06368
    2; N #1                0.00134      -0.61094       0.23524       0.16596
    3; N #1                0.00062       0.00262       0.00132       0.03075
    4; N #1               -0.00096       0.14049       0.17960       0.19163
    5; N #1               -0.00506       0.34668       0.70020      -0.32424
    6; N #1                0.00281      -0.04305      -0.04930      -0.25916
    7; N #1                0.00167      -0.10041      -0.08700       1.35382
    8; N #1                0.00014      -0.00586      -0.00528       0.01293
    9; N #1               -0.00012      -0.00542      -0.00457      -0.03502
   10; N #1               -0.00000       0.00000       0.00000      -0.00000
   11; N #1               -0.00000       0.00000       0.00000      -0.00000
   12; N #1                0.00003       0.00097       0.00066       0.00318
   13; N #1                0.00000      -0.00000      -0.00000       0.00000


                          MO #  5       MO #  6       MO #  7       MO #  8

    BASIS/ORB E            0.67320       1.04791       1.93115       3.30751
                        ----------    ----------    ----------    ----------
    1; N #1                0.32262      -0.00000       0.48189       0.01673
[...]
         34             3.35139491434799       0.00000000000000
         35             4.49870202487854       0.00000000000000
231  35  0.8300724458D+00  0.2258741957D+02  0.1000000000D+01  0.8593617904D-07
   Eigenvalue        Real Part            Imaginary Part
          1             0.70378524143377       0.00000000000000
          2             0.74175060187201       0.00000000000000
          3             0.77014539377814       0.00000000000000
          4             0.77682813901822       0.00000000000000
          5             0.78762260647883       0.00000000000000
          6             0.80474102223986       0.00000000000000
          7             0.80934702331983       0.00000000000000
          8             0.81377003697255       0.00000000000000
          9             0.82691487916732       0.00000000000000
         10             0.83007244580504       0.00000000000000
         11             0.83523540946873       0.00000000000000
         12             0.84600948210222       0.00000000000000
         13             0.84935615022086       0.00000000000000
         14             0.86276758852521       0.00000000000000
         15             0.89067656385132       0.00000000000000
         16             0.98147457833808       0.00000000000000
         17             1.06257203322524       0.00000000000000
         18             1.32649344556689       0.00000000000000
         19             1.57454037168183       0.00000000000000
         20             1.62719531407081       0.00000000000000
         21             1.73155670648223       0.00000000000000
         22             1.76965222064796       0.00000000000000
         23             1.99052368206810       0.00000000000000
         24             2.12035405915857       0.00000000000000
         25             2.17075348587162       0.00000000000000
         26             2.35170306239606       0.00000000000000
         27             2.49410694320920       0.00000000000000
         28             2.51663461581695       0.00000000000000
         29             2.55835059384279       0.00000000000000
         30             2.74426313320271       0.00000000000000
         31             2.80193462517166       0.00000000000000
         32             2.87173427884308       0.00000000000000
         33             3.05875891708134       0.00000000000000
         34             3.10454530565640       0.00000000000000
         35             3.35139491434800       0.00000000000000
         36             4.49870202487853       0.00000000000000
232  36  0.8300724458D+00  0.2258741957D+02  0.1000000000D+01  0.2830735901D-07
   Eigenvalue        Real Part            Imaginary Part
          1             0.70378524143377       0.00000000000000
          2             0.74175060187201       0.00000000000000
          3             0.77014539377814       0.00000000000000
          4             0.77682813901822       0.00000000000000
          5             0.78762260647884       0.00000000000000
          6             0.80474102223986       0.00000000000000
          7             0.80934702331986       0.00000000000000
          8             0.81377003697255       0.00000000000000
          9             0.82691487916732       0.00000000000000
         10             0.83007244580504       0.00000000000000
         11             0.83523540946873       0.00000000000000
         12             0.84600948210228       0.00000000000000
         13             0.84935615022086       0.00000000000000
         14             0.86276758852521       0.00000000000000
         15             0.89067656385132       0.00000000000000
         16             0.98147457833808       0.00000000000000
         17             1.06257203322524       0.00000000000000
         18             1.32649344556689       0.00000000000000
         19             1.57454037168183       0.00000000000000
         20             1.62719531407082       0.00000000000000
         21             1.73155670648224       0.00000000000000
         22             1.76965222064795       0.00000000000000
         23             1.90952039975783       0.00000000000000
         24             1.99052368206811       0.00000000000000
         25             2.12035405915857       0.00000000000000
         26             2.17075348587164       0.00000000000000
         27             2.35170306239608       0.00000000000000
         28             2.49410694320921       0.00000000000000
         29             2.51663461581702       0.00000000000000
         30             2.62811636794559       0.00000000000000
         31             2.74426313320281       0.00000000000000
         32             2.87173427884308       0.00000000000000
         33             3.05875891708134       0.00000000000000
         34             3.10454530565639       0.00000000000000
         35             3.35139491434799       0.00000000000000
         36             3.48632995146123       0.00000000000000
         37             4.49870202487856       0.00000000000000
233  37  0.8300724458D+00  0.2258741957D+02  0.1000000000D+01  0.1190478286D-07
   Eigenvalue        Real Part            Imaginary Part
          1             0.70378524143377       0.00000000000000
          2             0.74175060187201       0.00000000000000
          3             0.77014539377814       0.00000000000000
          4             0.77682813901822       0.00000000000000
          5             0.78762260647886       0.00000000000000
          6             0.80474102223986       0.00000000000000
          7             0.80934702331986       0.00000000000000
          8             0.81377003697255       0.00000000000000
          9             0.82691487916732       0.00000000000000
         10             0.83007244580504       0.00000000000000
         11             0.83523540946873       0.00000000000000
         12             0.84600948210244       0.00000000000000
         13             0.84935615022086       0.00000000000000
         14             0.86276758852521       0.00000000000000
         15             0.89067656385132       0.00000000000000
         16             0.98147457833808       0.00000000000000
         17             1.06257203322523       0.00000000000000
         18             1.32649344556689       0.00000000000000
         19             1.52695868074026       0.00000000000000
         20             1.57454037168183       0.00000000000000
         21             1.62719531407082       0.00000000000000
         22             1.73155670648224       0.00000000000000
         23             1.76965222064797       0.00000000000000
         24             1.99052368206809       0.00000000000000
         25             2.12035405915857       0.00000000000000
         26             2.17075348587162       0.00000000000000
         27             2.35170306239605       0.00000000000000
         28             2.39858118274806       0.00000000000000
         29             2.49410694320921       0.00000000000000
         30             2.51663461581710       0.00000000000000
         31             2.74426313320272       0.00000000000000
         32             2.87173427884304       0.00000000000000
         33             3.05381058781071       0.00000000000000
         34             3.05875891708135       0.00000000000000
         35             3.10454530565640       0.00000000000000
         36             3.35139491434800       0.00000000000000
         37             3.64488786500555       0.00000000000000
         38             4.49870202487858       0.00000000000000
234  38  0.8300724458D+00  0.2258741957D+02  0.1000000000D+01  0.8219886049D-08
   Eigenvalue        Real Part            Imaginary Part
          1             0.70378524143377       0.00000000000000
          2             0.74175060187201       0.00000000000000
          3             0.77014539377814       0.00000000000000
          4             0.77682813901823       0.00000000000000
          5             0.78762260647886       0.00000000000000
          6             0.80474102223986       0.00000000000000
          7             0.80934702331986       0.00000000000000
          8             0.81377003697255       0.00000000000000
          9             0.82691487916732       0.00000000000000
         10             0.83007244580504       0.00000000000000
         11             0.83523540946873       0.00000000000000
         12             0.84600948210231       0.00000000000000
         13             0.84935615022086       0.00000000000000
         14             0.86276758852521       0.00000000000000
         15             0.89067656385132       0.00000000000000
         16             0.98147457833808       0.00000000000000
         17             1.06257203322523       0.00000000000000
         18             1.31541941331955       0.00000000000000
         19             1.32649344556689       0.00000000000000
         20             1.57454037168183       0.00000000000000
         21             1.62719531407081       0.00000000000000
         22             1.73155670648224       0.00000000000000
         23             1.76965222064797       0.00000000000000
         24             1.99052368206809       0.00000000000000
         25             2.12035405915857       0.00000000000000
         26             2.17075348587162       0.00000000000000
         27             2.27666649811021       0.00000000000000
         28             2.35170306239607       0.00000000000000
         29             2.44778163946104       0.00000000000000
         30             2.49410694320922       0.00000000000000
         31             2.51663461581714       0.00000000000000
         32             2.74426313320273       0.00000000000000
         33             2.87173427884304       0.00000000000000
         34             3.05875891708135       0.00000000000000
         35             3.10454530565639       0.00000000000000
         36             3.35139491434787       0.00000000000000
         37             3.35856638319054       0.00000000000000
         38             3.69207888540710       0.00000000000000
         39             4.49870202487859       0.00000000000000
235  39  0.8300724458D+00  0.2258741957D+02  0.1000000000D+01  0.2760058118D-08
   Eigenvalue        Real Part            Imaginary Part
          1             0.70378524143377       0.00000000000000
          2             0.74175060187201       0.00000000000000
          3             0.77014539377814       0.00000000000000
          4             0.77682813901822       0.00000000000000
          5             0.78762260647886       0.00000000000000
          6             0.80474102223986       0.00000000000000
          7             0.80934702331985       0.00000000000000
          8             0.81377003697255       0.00000000000000
          9             0.82691487916732       0.00000000000000
         10             0.83007244580504       0.00000000000000
         11             0.83523540946874       0.00000000000000
         12             0.84600948210224       0.00000000000000
         13             0.84935615022086       0.00000000000000
         14             0.86276758852520       0.00000000000000
         15             0.89067656385132       0.00000000000000
         16             0.98147457833808       0.00000000000000
         17             1.06257203322523       0.00000000000000
         18             1.18601712670653       0.00000000000000
         19             1.32649344556689       0.00000000000000
         20             1.57454037168182       0.00000000000000
         21             1.62719531407082       0.00000000000000
         22             1.73155670648223       0.00000000000000
         23             1.76965222064796       0.00000000000000
         24             1.91921849825617       0.00000000000000
         25             1.99052368206809       0.00000000000000
         26             2.12035405915856       0.00000000000000
         27             2.17075348587163       0.00000000000000
         28             2.27690628794200       0.00000000000000
         29             2.35170306239607       0.00000000000000
         30             2.49410694320922       0.00000000000000
         31             2.50889539055946       0.00000000000000
         32             2.51663461581769       0.00000000000000
         33             2.74426313320274       0.00000000000000
         34             2.87173427884309       0.00000000000000
         35             3.05875891708134       0.00000000000000
         36             3.10454530565640       0.00000000000000
         37             3.35139491434799       0.00000000000000
         38             3.38023083985424       0.00000000000000
         39             4.42308841054876       0.00000000000000
         40             4.49870202487860       0.00000000000000
236  40  0.8300724458D+00  0.2258741957D+02  0.1000000000D+01  0.1550107278D-08
   Expansion vector space truncated to dimension  12.
  @TRNSPACE-F, Using in-core truncation algorithm.
  @TRNSPACE-F, Using in-core truncation algorithm.
   Eigenvalue        Real Part            Imaginary Part
          1             0.70378524143377       0.00000000000000
          2             0.74175060187201       0.00000000000000
          3             0.77014539377814       0.00000000000000
          4             0.77682813901822       0.00000000000000
          5             0.78762260647882       0.00000000000000
          6             0.80474102223986       0.00000000000000
          7             0.80934702331985       0.00000000000000
          8             0.81377003697255       0.00000000000000
          9             0.82691487916732       0.00000000000000
         10             0.83007244580503       0.00000000000000
         11             0.83523540946869       0.00000000000000
         12             0.84600948210223       0.00000000000000
         13             2.40147184835325       0.00000000000000
237  13  0.8300724458D+00  0.2258741957D+02  0.1000000000D+01  0.9730568161D-09
   Eigenvalue        Real Part            Imaginary Part
          1             0.70378524143377       0.00000000000000
          2             0.74175060187201       0.00000000000000
          3             0.77014539377814       0.00000000000000
          4             0.77682813901822       0.00000000000000
          5             0.78762260647881       0.00000000000000
          6             0.80474102223986       0.00000000000000
          7             0.80934702331985       0.00000000000000
          8             0.81377003697255       0.00000000000000
          9             0.82691487916732       0.00000000000000
         10             0.83007244580503       0.00000000000000
         11             0.83523540946869       0.00000000000000
         12             0.84600948210216       0.00000000000000
         13             1.40813959828082       0.00000000000000
         14             2.46630711809159       0.00000000000000
238  14  0.8300724458D+00  0.2258741957D+02  0.1000000000D+01  0.1096518262D-08
   Eigenvalue        Real Part            Imaginary Part
          1             0.70378524143377       0.00000000000000
          2             0.74175060187201       0.00000000000000
          3             0.77014539377814       0.00000000000000
          4             0.77682813901822       0.00000000000000
          5             0.78762260647880       0.00000000000000
          6             0.80474102223986       0.00000000000000
          7             0.80934702331985       0.00000000000000
          8             0.81377003697255       0.00000000000000
          9             0.82691487916732       0.00000000000000
         10             0.83007244580503       0.00000000000000
         11             0.83523540946870       0.00000000000000
         12             0.84600948210220       0.00000000000000
         13             1.15180252772778       0.00000000000000
         14             1.88703751053248       0.00000000000000
         15             2.95378620787721       0.00000000000000
239  15  0.8300724458D+00  0.2258741957D+02  0.1000000000D+01  0.2912454445D-09
   Eigenvalue        Real Part            Imaginary Part
          1             0.70378524143377       0.00000000000000
          2             0.74175060187202       0.00000000000000
          3             0.77014539377814       0.00000000000000
          4             0.77682813901822       0.00000000000000
          5             0.78762260647885       0.00000000000000
          6             0.80474102223986       0.00000000000000
          7             0.80934702331984       0.00000000000000
          8             0.81377003697255       0.00000000000000
          9             0.82691487916732       0.00000000000000
         10             0.83007244580503       0.00000000000000
         11             0.83523540946869       0.00000000000000
         12             0.84600948210221       0.00000000000000
         13             1.08578391907834       0.00000000000000
         14             1.84641645885555       0.00000000000000
         15             2.50788734941186       0.00000000000000
         16             2.97872629905168       0.00000000000000
240  16  0.8300724458D+00  0.2258741957D+02  0.1000000000D+01  0.9773481503D-10
  Converged eigenvalue:   0.830072445805035       a.u.
   Total EOMEE-CCSD electronic energy     -108.550946342773614 a.u.
  Converged eigenvector 
  SCF eigenvalue ordering used in list below. 
--------------------------------------------------------------------------------
    I    j    A    b
--------------------------------------------------------------------------------
    4    0   10    0  -0.3980146155 AA  
    0    4    0   10  -0.3980146154 BB  
    5    5    8    8  -0.3632476544 ABAB
    5    5    9    9  -0.3632473484 ABAB
    5    0   11    0  -0.3383906948 AA  
    0    5    0   11  -0.3383906947 BB  
    4    4    8    8   0.1828582760 ABAB
    4    4    9    9   0.1828580047 ABAB
    5    5    8   15  -0.0725203951 ABAB
    5    5   15    8  -0.0725203951 ABAB
    5    5   16    9  -0.0725202986 ABAB
    5    5    9   16  -0.0725202986 ABAB
    5    6   10    8  -0.0704846081 ABAB
    6    5    8   10  -0.0704846081 ABAB
    5    7   10    9  -0.0704846019 ABAB
--------------------------------------------------------------------------------
  The state is a singlet (overlap =   1.000000).
  Converged eigenvector, normalized to one 
  SCF eigenvalue ordering used in list below. 
--------------------------------------------------------------------------------
    I    j    A    b
--------------------------------------------------------------------------------
    4    0   10    0  -0.3980146155 AA  
    0    4    0   10  -0.3980146154 BB  
    5    5    8    8  -0.3632476544 ABAB
    5    5    9    9  -0.3632473484 ABAB
    5    0   11    0  -0.3383906948 AA  
    0    5    0   11  -0.3383906947 BB  
    4    4    8    8   0.1828582760 ABAB
    4    4    9    9   0.1828580047 ABAB
    5    5    8   15  -0.0725203951 ABAB
    5    5   15    8  -0.0725203951 ABAB
    5    5   16    9  -0.0725202986 ABAB
    5    5    9   16  -0.0725202986 ABAB
    5    6   10    8  -0.0704846081 ABAB
    6    5    8   10  -0.0704846081 ABAB
    5    7   10    9  -0.0704846019 ABAB
--------------------------------------------------------------------------------

  Eigenvector is saved on CCRE_110  

  Solution of  10 roots required  240 iterations.
 @CHECKOUT-I, Total execution time (CPU/WALL):        7.64/       7.66 seconds.
--executable xvee finished with status     0 in        7.73 seconds (walltime).
  The final electronic energy is      -108.550946342773614 a.u. 
  This computation required                            9.09 seconds (walltime).
