Intel(R) Parallel Studio XE 2019 Update 4 for Linux*
Copyright (C) 2009-2019 Intel Corporation. All rights reserved.
 --invoking executable--
/ihome/kjordan/shu8/software/source/cfour/cfour-public/bin/xjoda


   *************************************************************************
         <<<     CCCCCC     CCCCCC   |||     CCCCCC     CCCCCC   >>>
       <<<      CCC        CCC       |||    CCC        CCC         >>>
      <<<      CCC        CCC        |||   CCC        CCC            >>>
    <<<        CCC        CCC        |||   CCC        CCC              >>>
      <<<      CCC        CCC        |||   CCC        CCC            >>>
       <<<      CCC        CCC       |||    CCC        CCC         >>>
         <<<     CCCCCC     CCCCCC   |||     CCCCCC     CCCCCC   >>>
   *************************************************************************

     ****************************************************************
     * CFOUR Coupled-Cluster techniques for Computational Chemistry *
     ****************************************************************
 

   Department of Chemistry                Institut fuer Physikalische Chemie
   University of Florida                  Universitaet Mainz
   Gainesville, FL 32611, USA             D-55099 Mainz, Germany

   Department of Chemistry                Fakultaet fuer Chemie und Biowiss.
   Johns Hopkins University               Karlsruher Institut fuer Technologie
   Baltimore, MD 21218, USA               D-76131 Karlsruhe, Germany

   Department of Chemistry                Department of Physical Chemistry
   Southern Methodist University          Eotvos Lorand University
   Dallas, TX 75275, USA                  H-1053 Budapest, Hungary

 
                       Version 2.1
 
                     smp-n214.crc.pitt.edu                             
                     Sun Feb  2 14:43:43 EST 2025                      
                     integer*8 version is running
 
********************************************************************************
*                          Input from ZMAT file                                *
********************************************************************************
H2O EOMEE-CCSD/CC-PVDZ                                                          
O                                                                               
H 1 R1                                                                          
H 1 R1 2 A1                                                                     
                                                                                
R1=0.99                                                                         
A1=106.0                                                                        
                                                                                
*ACES2(CALC=CCSD                                                                
COORDINATES=INTERNAL                                                            
EXCITE=EOMEE                                                                    
BASIS=PVDZ                                                                      
REF=UHF                                                                         
PRINT=1                                                                         
ESTATE_PROP=EXPECTATION                                                         
ESTATE_TRANS=EXPECTATION                                                        
CHARGE=0                                                                        
MULTIPLICITY=1)                                                                 
                                                                                
%excite*                                                                        
10                                                                              
2                                                                               
1 5 0 6 0  1.0                                                                  
2 5 0 6 0 -1.0                                                                  
2                                                                               
1 5 0 6 0  1.0                                                                  
2 5 0 6 0  1.0                                                                  
2                                                                               
1 5 0 7 0  1.0                                                                  
2 5 0 7 0 -1.0                                                                  
2                                                                               
1 5 0 7 0  1.0                                                                  
2 5 0 7 0  1.0                                                                  
2                                                                               
1 5 0 8 0  1.0                                                                  
2 5 0 8 0 -1.0                                                                  
2                                                                               
1 5 0 8 0  1.0                                                                  
2 5 0 8 0  1.0                                                                  
2                                                                               
1 4 0 6 0  1.0                                                                  
2 4 0 6 0 -1.0                                                                  
2                                                                               
1 4 0 6 0  1.0                                                                  
2 4 0 6 0  1.0                                                                  
2                                                                               
1 5 0 9 0  1.0                                                                  
2 5 0 9 0 -1.0                                                                  
2                                                                               
1 5 0 9 0  1.0                                                                  
2 5 0 9 0  1.0                                                                  
                                                                                
********************************************************************************
  @GTFLGS-W, Keyword ESTATE_TRANS not known and is ignored.
    -------------------------------------------------------------------
                    CFOUR Control Parameters 
    -------------------------------------------------------------------
        External           Internal           Value            Units
          Name               Name
    -------------------------------------------------------------------
       ABCDTYPE             IABCDT         STANDARD    [  0]    ***   
       ANHARMONIC           IANHAR         OFF         [  0]    ***   
       ANH_ALGORIT          IANALG         STANDARD    [  0]    ***   
       ANH_DERIVAT          IANDER         SECOND      [  1]    ***   
       ANH_MODE             ANHMOD         VIBRATION   [  0]    ***   
       ANH_STEPSIZ          ICUBST             50000          x 10-6  
       ANH_SYMMETR          IANHSM         ABELIAN     [  0]    ***   
       AO_LADDERS           IAOLAD         SINGLEPASS  [  1]    ***   
       AV_SCF               IAVSCF         OFF         [  0]    ***   
       BASIS                IBASIS         PVDZ        [ 13]    ***   
       BOTHVECTORS          BOTHVC         OFF         [  0]    ***   
       BOX_POTENT           IPIAB          OFF         [  0]    ***   
       BREIT                IBREIT         OFF         [  0]    ***   
       BRUCK_CONV           IBRTOL          10D-  4             ***   
       BRUECKNER            IBRKNR         OFF         [  0]    ***   
       BUFFERSIZE           IBUFFS              4096            ***   
       CACHE_RECS           ICHREC             10               ***   
       CALCLEVEL            ICLLVL         CCSD        [ 10]    ***   
       CCORBOPT             ICCORB         OFF         [  0]  x 0.01  
       CC_CONV              ICCCNV          10D-  7             ***   
       CC_EXPORDER          ICCEOR              5               ***   
       CC_EXTRAPOL          ICCEXT         DIIS        [  1]    ***   
       CC_GUESS             ICCGES         MP2         [  0]    ***   
       CC_MAXCYC            ICCCYC            100              cycles 
       CC_PROGRAM           ICCPRO         VCC         [  0]    ***   
       CHARGE               ICHRGE              0               ***   
       CHOLESKY             ICHOLE         OFF         [  0]    ***   
       CIS_CONV             ICISTL              5               ***   
       COMM_SIZE            IPSIZE            ***               ***   
       CONSTANT             ICONST         OLD         [  1]    ***   
       CONTINUUM            ICONTU         NONE        [  0]    ***   
       CONTRACTION          ICNTYP         GENERAL     [  1]    ***   
       COORDINATES          ICOORD         INTERNAL    [  0]    ***   
       CPHF_CONVER          ICPHFT          10D- 16             ***   
       CPHF_MAXCYC          ICPHFC             64              cycles 
       CUBIC                ICUBIC         OFF         [  0]    ***   
       CURVILINEAR          ICURVY         OFF         [  0]    ***   
       DBOC                 IDBOC          OFF         [  0]    ***   
       DCT                  IDCT           OFF         [  0]    ***   
       DERIV_LEV            IDRLVL         ZERO        [  0]    ***   
       DEVMEM_SIZE          IDVMEM          50000000           MByte  
       DIAG_MRCC            IEOMST          10D-  0             ***   
       DIFF_TYPE            IDIFTY         RELAXED     [  0]    ***   
       DIRECT               IDIRCT         OFF         [  0]    ***   
       DROPMO               IDRPMO      NONE         
       ECP                  IECP           OFF         [  0]    ***   
       EIGENVECTOR          IVEC                1               ***   
       EL_ANHARM            IELANH         OFF         [  0]    ***   
       EOMFOLLOW            IEOMSR         ENERGY      [  0]    ***   
       EOMIP                IEOMIP         OFF         [  0]    ***   
       EOMLEVEL             HBARFM         SAME        [  0]    ***   
       EOM_MRCC             IMRCCE         NEW         [  1]    ***   
       EOM_NONIT            EOMNON         OFF         [  0]    ***   
       EOM_NSING            IEOMSI          10D-  0             ***   
       EOM_NSTATES          IMRCCD         DAVIDSON    [  0]    ***   
       EOM_NTRIP            IEOMTR          10D-  0             ***   
       EOM_ORDER            IEXORD         ENERGY      [  0]    ***   
       EOM_PROPSTA          IEOMST              0               ***   
       ESTATE_CONV          IEXTOL          10D-  5             ***   
       ESTATE_DIAG          IEXDIG         ITERATIVE   [  0]    ***   
       ESTATE_LOCK          IESLOC         ON          [  1]    ***   
       ESTATE_MAXC          IEXMXC             40               ***   
       ESTATE_PROP          IEXPRP         EXPECTATION [  1]    ***   
       EVAL_HESS            IRECAL              0            # of cyc.
       EXCITATION           IEXCIT              0               ***   
       EXCITE               IEXCIT         EOMEE       [  3]    ***   
       EXTERN_POT           IEXPOT         OFF         [  0]    ***   
       FCGRADNEW            IFCGNW         OFF         [  0]    ***   
       FC_FIELD             IFINFC              0             x 10-6  
       FD_CALTYPE           IFDCAL         GRADONLY    [  0]    ***   
       FD_PROJECT           IFDPRJ         OFF         [  1]    ***   
       FD_STEPSIZE          IDISFD              0            10-4 bohr
       FD_USEGROUP          IFDGRP         FULL        [  0]    ***   
       FILE_RECSIZ          IFLREC              4096           words  
       FINITE_PERT          IFIPER              0             x 10-6  
       FIXGEOM              IFIXGM         OFF         [  0]    ***   
       FOCK                 IFOCK          AO          [  1]    ***   
       FREQ_ALGORI          IVIALG         STANDARD    [  0]    ***   
       FROZEN_CORE          IFROCO         OFF         [  0]    ***   
       GAMMA_ABCD           IGABCD         STORE       [  0]    ***   
       GAMMA_ABCI           IGABCI         STORE       [  0]    ***   
       GENBAS_1             IGNBS1              0               ***   
       GENBAS_2             IGNBS2              0               ***   
       GENBAS_3             IGNBS3              0               ***   
       GENBAS_4             IGNBS4              0               ***   
       GEO_CONV             ICONTL              5              H/bohr 
       GEO_MAXCYC           IOPTCY             50               ***   
       GEO_MAXSTEP          IMXSTP            300            millibohr
       GEO_METHOD           INR            SINGLE_POINT[  5]    ***   
       GIAO                 IGIAO          OFF         [  1]    ***   
       GIMIC                IGIMIC         OFF         [  0]    ***   
       GRID                 IGRID          OFF         [  0]    ***   
       GRID_ALGO            IGALGO         SERIAL      [  0]    ***   
       GUESS                IGUESS         MOREAD      [  0]    ***   
       HBAR                 IHBAR          ON          [  1]    ***   
       HESS_TYPE            IHESTP         SCF         [  0]    ***   
       HF2_FILE             IHF2Fl         USE         [  1]    ***   
       HFSTABILITY          ISTABL         OFF         [  0]    ***   
       INCORE               INCORE         OFF         [  0]    ***   
       INPUT_MRCC           IMRCC          ON          [  1]    ***   
       INTEGRALS            INTTYP         VMOL        [  1]    ***   
       JODA_PRINT           IJPRNT              0               ***   
       KEYWORD_OUT          IDMPKW         NO          [  0]    ***   
       LINDEP_TOL           ILINDP              8               ***   
       LINEQ_CONV           IZTACN          10D-  7           cycles  
       LINEQ_EXPOR          ILMAXD              5               ***   
       LINEQ_MAXCY          ILMAXC            100               ***   
       LINEQ_TYPE           ILTYPE         DIIS        [  1]    ***   
       LOCK_ORBOCC          ILOCOC         OFF         [  0]    ***   
       MEMORY_SIZE          IMEMSZ         100000000           words  
       MEM_UNIT             IMEMU          INTEGERWORDS[  0]    ***   
       MRCC                 IMRCCC         OFF         [  0]    ***   
       MULTIPLICTY          IMULTP              1               ***   
       NACOUPLING           IVCOUP         OFF         [  0]    ***   
       NEGEVAL              IDIE           ABORT       [  0]    ***   
       NEWNORM              INEWNO         OFF         [  0]    ***   
       NON-HF               INONHF         OFF         [  0]    ***   
       NTOP_TAMP            ITOPT2             15               ***   
       NUC_MODEL            INUCMO         POINT       [  0]    ***   
       OCCUPATION           IOCCU   ESTIMATED BY SCF 
       OPEN-SHELL           IOPEN          SPIN-ORBITAL[  0]    ***   
       OPTVIB               IOPTVB         OFF         [  0]    ***   
       ORBITALS             IORBTP         STANDARD    [  0]    ***   
       PARALLEL             IPARAL         ON          [  1]    ***   
       PARA_INT             IPINTS         ON          [  1]    ***   
       PARA_PRINT           IPPRIN              0               ***   
       PERT_ORB             IPTORB         STANDARD    [  0]    ***   
       POINTS               IGRDFD              0               ***   
       PRINT                IPRNT               1               ***   
       PROPS                IPROPS         OFF         [  0]    ***   
       PROP_INTEGR          IINTYP         INTERNAL    [  0]    ***   
       PSI                  IPSI           OFF         [  0]    ***   
       QC_ALG               IQCALG         FLM         [  0]    ***   
       QC_LINALG            IQCLIN         TRIDIAG     [  2]    ***   
       QC_MAXCYC            IQCMAX          10D-100           cycles  
       QC_MAXSCFCY          IQCMSC          10D- 15           cycles  
       QC_RTRUST            IQCRTR          10D-  0           x 10-3  
       QC_SKIPSCF           IQCSKI         OFF         [  0]    ***   
       QC_START             IQCSTA          10D-  1             ***   
       QRHFGUESS            IQGUES         OFF         [  0]    ***   
       QUARTIC              IQUART         OFF         [  0]    ***   
       RAMAN_INT            IRAMIN         OFF         [  0]    ***   
       RAMAN_ORB            IRAMRE         UNRELAXED   [  0]    ***   
       RDO                  IRDOFM         OFF         [  0]    ***   
       REDUCE_REPR          REDREP         Ir          [  0]    ***   
       REFERENCE            IREFNC         UHF         [  1]    ***   
       RELATIVIST           IRELAT         OFF         [  0]    ***   
       RELAX_DENS           IRDENS         OFF         [  0]    ***   
       RESET_FLAGS          IRESET         OFF         [  0]    ***   
       RESTART_CC           ICCRES         OFF         [  0]    ***   
       ROT_EVEC             ROTVEC              0               ***   
       SAVE_INTS            ISVINT         OFF         [  0]    ***   
       SCALE_ON             ISTCRT              0               ***   
       SCF_CONV             ISCFCV          10D-  7             ***   
       SCF_DAMPING          IDAMP               0             x 10-3  
       SCF_EXPORDE          IRPPOR              6               ***   
       SCF_EXPSTAR          IRPPLS              8               ***   
       SCF_EXTRAPO          IRPP           ON          [  1]    ***   
       SCF_MAXCYC           ISCFCY            150              cycles 
       SCF_NOSTOP           ISCFST         OFF         [  0]    ***   
       SCF_PRINT            ISCFPR              0               ***   
       SCF_PROG             ISCFPR         SCF         [  0]    ***   
       SD_FIELD             IFINSD              0             x 10-6  
       SOPERT               IPERSO         OFF         [  0]    ***   
       SPHERICAL            IDFGHI         ON          [  1]    ***   
       SPINORBIT            ISOCAL         OFF         [  0]    ***   
       SPINROTATIO          ISRCON         OFF         [  0]    ***   
       SPIN_FLIP            ISPFLP         OFF         [  0]    ***   
       SPIN_ORBIT           ISPORB         OFF         [  0]    ***   
       SPIN_SCAL            ISCSMP         OFF         [  0]    ***   
       STEEPSCALE           ISTPSC              1000          x 10-3  
       SUBGROUP             ISUBGP         DEFAULT     [  0]    ***   
       SUBGRPAXIS           ISBXYZ         X           [  0]    ***   
       SYMMETRY             ISYM           ON          [  0]    ***   
       SYM_CHECK            ISYMCK         OVERRIDE    [  1]    ***   
       T3_EXTRAPOL          IT3EXT         OFF         [  0]    ***   
       T4_EXTRAPOL          IT4EXP         OFF         [  0]    ***   
       TAMP_SUM             IEVERY              5               ***   
       TESTSUITE            ITESTS         OFF         [  0]    ***   
       THERMOCH             ITHERM         OFF         [  0]    ***   
       TOL_CHOLESK          ITOLCH          10D-  4             ***   
       TRANGRAD             IRESRM         OFF         [  0]    ***   
       TRANS_INV            ITRAIN         USE         [  0]    ***   
       TREAT_PERT           ITREAT         SIMULTANEOUS[  0]    ***   
       TRIP_ALGORI          ITRALG         NORMAL      [  0]    ***   
       UIJ_THRESHO          IUIJTH              1               ***   
       UNITS                IUNITS         ANGSTROM    [  0]    ***   
       UNOS                 IUNOS          OFF         [  0]    ***   
       UPDATE_HESS          IHUPDT         ON          [  1]    ***   
       VIBPHASE             ISETPH         STANDARD    [  0]    ***   
       VIBRATION            IVIB           NO          [  0]    ***   
       VIB_ALGORIT          IGEALG         STANDARD    [  0]    ***   
       VNATORB              IVNORB         OFF         [  0]    ***   
       VTRAN                IVTRAN         FULL/PARTIAL[  0]    ***   
       XFIELD               IXEFLD              0             x 10-6  
       XFORM_TOL            IXFTOL          10D- 11             ***   
       YFIELD               IYEFLD              0             x 10-6  
       ZFIELD               IZEFLD              0             x 10-6  
       ZSCALE_EXP           IZEXPS         OFF         [  0]    ***   
    -------------------------------------------------------------------
   3 entries found in Z-matrix 
   Job Title : H2O EOMEE-CCSD/CC-PVDZ                                                          
   There are  2 unique internal coordinates.
   Of these,  0 will be optimized.
   User supplied Z-matrix: 
--------------------------------------------------------------------------------
       SYMBOL    BOND      LENGTH    ANGLE     ANGLE     DIHED     ANGLE
                  TO      (ANGST)    WRT      (DEG)      WRT      (DEG)
--------------------------------------------------------------------------------
        O    
        H          1         R1   
        H          1         R1         2        A1   
                  *Initial values for internal coordinates* 
                      Name             Value
                        R1              0.9900000000
                        A1            106.0000000000
--------------------------------------------------------------------------------
   Rotational constants (in cm-1): 
          8.8936739070            13.3786962928            26.5295804332
   Rotational constants (in MHz): 
     266625.6734768453        401083.2808371959        795336.9242018401
********************************************************************************
   The full molecular point group is C2v .
   The largest Abelian subgroup of the full molecular point group is C2v .
   The computational point group is C2v .
********************************************************************************
--------------------------------------------------------------------------------
   Analysis of internal coordinates specified by Z-matrix 
--------------------------------------------------------------------------------
   *The nuclear repulsion energy is    8.887004402217023 a.u.
   *There are   2 degrees of freedom within the tot. symm. molecular subspace.
   *Z-matrix requests optimization of   0 coordinates.
   *The optimization is constrained.
   *The following   2 parameters can have non-zero 
    derivatives within the totally symmetric subspace:
             A1   [ 3]  R1   [ 2]
   *The following   0 parameters are to be optimized:

   *The following coordinates must be varied in an  unconstrained optimization.
             A1   [ 3]  R1   [ 2]
--------------------------------------------------------------------------------


 ----------------------------------------------------------------
         Coordinates used in calculation (QCOMP) 
 ----------------------------------------------------------------
 Z-matrix   Atomic            Coordinates (in bohr)
  Symbol    Number           X              Y              Z
 ----------------------------------------------------------------
     O         8         0.00000000    -0.00000000     0.12600419
     H         1         0.00000000    -1.49411068    -0.99988896
     H         1         0.00000000     1.49411068    -0.99988896
 ----------------------------------------------------------------
 
  Original Center of Mass Coordinates (QCOM) 
        -0.10063142026264         0.00000000000000        -0.07583121430651
        -0.10063142026264         0.00000000000000         1.79499804115447
         1.69772508265280         0.00000000000000        -0.59150164346686
 
  Transformation matrix between QCOM and QCOMP (OMAT) 
  (QCOM = OMAT * QCOMP, where Q is stored 3 x NATOMS)
        -0.00000000000000         1.00000000000000        -0.00000000000000
         0.60181502315205        -0.00000000000000        -0.79863551004729
        -0.79863551004729        -0.00000000000000        -0.60181502315205
  test:  OMAT * QCOMP = 
        -0.10063142026264        -0.00000000000000        -0.07583121430651
        -0.10063142026264         0.00000000000000         1.79499804115447
         1.69772508265280        -0.00000000000000        -0.59150164346686
 
   Interatomic distance matrix (Angstroms) 
 
                 O             H             H    
                [ 1]        [ 2]        [ 3]
  O    [ 1]     0.00000
  H    [ 2]     0.99000     0.00000
  H    [ 3]     0.99000     1.58130     0.00000
 rotcon2
   Rotational constants (in cm-1): 
          8.8936739070            26.5295804332            13.3786962928
   Rotational constants (in MHz): 
     266625.6734768454        795336.9242018407        401083.2808371961
  GENBAS file not present.   Using default GENBAS. 
 --invoking executable--
/ihome/kjordan/shu8/software/source/cfour/cfour-public/bin/set_genbas
--executable set_genbas finished with status     0 in        0.02 seconds (walltime).
  ECPDATA file not present.   Using default ECPDATA. 
  @GTFLGS-W, Keyword ESTATE_TRANS not known and is ignored.
  There are   24 basis functions.
 @GEOPT-W, Archive file not created for single-point calculation.
 @CHECKOUT-I, Total execution time (CPU/WALL):        0.08/       0.12 seconds.
--executable xjoda finished with status     0 in        0.15 seconds (walltime).
 --invoking executable--
/ihome/kjordan/shu8/software/source/cfour/cfour-public/bin/xvmol
 SERIAL VERSION OF MOLECULE STARTED
********************************************************************************
                    INPUT FROM MOL FILE
********************************************************************************
INTGRL        1    0    1    0    0    0    0    0    0                         
         *** CFOUR Program System (Release V0.1) ***                            
H2O EOMEE-CCSD/CC-PVDZ                                                          
    2    2 X  Y       0.10E-08              0    0                              
   9999.00      3.00                                                            
          8.00000000    1    3    1    1    1                                   
O #1   0.000000000000000  -0.000000000000000   0.126004189641761                
    9    3                                                                      
   11720.0000000000       7.100000000000000E-004 -1.600000000000000E-004        
  0.000000000000000E+000                                                        
   1759.00000000000       5.470000000000000E-003 -1.263000000000000E-003        
  0.000000000000000E+000                                                        
   400.800000000000       2.783700000000000E-002 -6.267000000000000E-003        
  0.000000000000000E+000                                                        
   113.700000000000       0.104800000000000      -2.571600000000000E-002        
  0.000000000000000E+000                                                        
   37.0300000000000       0.283062000000000      -7.092400000000000E-002        
  0.000000000000000E+000                                                        
   13.2700000000000       0.448719000000000      -0.165411000000000             
  0.000000000000000E+000                                                        
   5.02500000000000       0.270952000000000      -0.116955000000000             
  0.000000000000000E+000                                                        
   1.01300000000000       1.545800000000000E-002  0.557368000000000             
  0.000000000000000E+000                                                        
  0.302300000000000      -2.585000000000000E-003  0.572759000000000             
   1.00000000000000                                                             
    4    2                                                                      
   17.7000000000000       4.301800000000000E-002  0.000000000000000E+000        
   3.85400000000000       0.228913000000000       0.000000000000000E+000        
   1.04600000000000       0.508728000000000       0.000000000000000E+000        
  0.275300000000000       0.460531000000000        1.00000000000000             
    1    1                                                                      
   1.18500000000000        1.00000000000000                                     
          1.00000000    1    2    1    1                                        
H #2   0.000000000000000  -1.494110676646476  -0.999888962047017                
    4    2                                                                      
   13.0100000000000       1.968500000000000E-002  0.000000000000000E+000        
   1.96200000000000       0.137977000000000       0.000000000000000E+000        
  0.444600000000000       0.478148000000000       0.000000000000000E+000        
  0.122000000000000       0.501240000000000        1.00000000000000             
    1    1                                                                      
  0.727000000000000        1.00000000000000                                     
FINISH                                                                          
 
********************************************************************************
 ONE- AND TWO-ELECTRON INTEGRALS OVER SYMMETRY-ADAPTED AOS ARE CALCULATED.

  SPHERICAL HARMONICS ARE USED.
  
   2 TYPES OF ATOMS
   2 SYMMETRY OPERATIONS

   REFLECTION IN THE YZ-PLANE
   REFLECTION IN THE XZ-PLANE
  
  INTEGRALS LESS THAN  0.10E-13 ARE NEGLECTED.

  ATOMIC TYPE NUMBER  1 :
  -----------------------

    NUCLEAR CHARGE:                        8
    NUMBER OF SYMMETRY INDEPENDENT ATOMS:  1
    HIGHEST ORBITAL TYPE:                  D

      1 GROUPS OF CGTOS OF S TYPE
      1 GROUPS OF CGTOS OF P TYPE
      1 GROUPS OF CGTOS OF D TYPE

    NUCLEAR COORDINATES (IN A.U.) ARE :

    O #1        0.000000000000000        0.000000000000000        0.126004189641761
  
  ATOMIC TYPE NUMBER  2 :
  -----------------------

    NUCLEAR CHARGE:                        1
    NUMBER OF SYMMETRY INDEPENDENT ATOMS:  1
    HIGHEST ORBITAL TYPE:                  P

      1 GROUPS OF CGTOS OF S TYPE
      1 GROUPS OF CGTOS OF P TYPE

    NUCLEAR COORDINATES (IN A.U.) ARE :

    H #2        0.000000000000000       -1.494110676646476       -0.999888962047017
  
   INTERNUCLEAR DISTANCES (A) :

     FOR ATOM O #1 (COORDINATES :   0.00000   0.00000   0.12600)

     H #2   1     DISTANCE IS  0.990

     FOR ATOM H #2 (COORDINATES :   0.00000  -1.49411  -0.99989)

     H #2   3     DISTANCE IS  1.581

   GROUP MULTIPLICATION TABLE :

         1   2   3   4
         2   1   4   3
         3   4   1   2
         4   3   2   1

   GAUSSIAN BASIS INFORMATION :

   ATOM                 EXPONENT      COEFFICIENTS

 O #1  1    S   
+                 1   11720.000000   0.0007100  -0.0001600   0.0000000
                  2    1759.000000   0.0054700  -0.0012630   0.0000000
                  3     400.800000   0.0278370  -0.0062670   0.0000000
                  4     113.700000   0.1048000  -0.0257160   0.0000000
                  5      37.030000   0.2830620  -0.0709240   0.0000000
                  6      13.270000   0.4487190  -0.1654110   0.0000000
                  7       5.025000   0.2709520  -0.1169550   0.0000000
                  8       1.013000   0.0154580   0.5573680   0.0000000
                  9       0.302300  -0.0025850   0.5727590   1.0000000

 O #1  1    X   
+                10      17.700000   0.0430180   0.0000000
                 11       3.854000   0.2289130   0.0000000
                 12       1.046000   0.5087280   0.0000000
                 13       0.275300   0.4605310   1.0000000

 O #1  1    Y   
+                14      17.700000   0.0430180   0.0000000
                 15       3.854000   0.2289130   0.0000000
                 16       1.046000   0.5087280   0.0000000
                 17       0.275300   0.4605310   1.0000000

 O #1  1    Z   
+                18      17.700000   0.0430180   0.0000000
                 19       3.854000   0.2289130   0.0000000
                 20       1.046000   0.5087280   0.0000000
                 21       0.275300   0.4605310   1.0000000

 O #1  1    XX  
+                22       1.185000   1.0000000

 O #1  1    XY  
+                23       1.185000   1.0000000

 O #1  1    XZ  
+                24       1.185000   1.0000000

 O #1  1    YY  
+                25       1.185000   1.0000000

 O #1  1    YZ  
+                26       1.185000   1.0000000

 O #1  1    ZZ  
+                27       1.185000   1.0000000

 H #2  1    S   
+                28      13.010000   0.0196850   0.0000000
                 29       1.962000   0.1379770   0.0000000
                 30       0.444600   0.4781480   0.0000000
                 31       0.122000   0.5012400   1.0000000

 H #2  3    S   
+                32      13.010000   0.0196850   0.0000000
                 33       1.962000   0.1379770   0.0000000
                 34       0.444600   0.4781480   0.0000000
                 35       0.122000   0.5012400   1.0000000

 H #2  1    X   
+                36       0.727000   1.0000000

 H #2  3    X   
+                37       0.727000   1.0000000

 H #2  1    Y   
+                38       0.727000   1.0000000

 H #2  3    Y   
+                39       0.727000   1.0000000

 H #2  1    Z   
+                40       0.727000   1.0000000

 H #2  3    Z   
+                41       0.727000   1.0000000
 25 24
  1  2  3  4  5  6  7***  8  9 10 11 12 13 14 15 16 17 18 19 20 21 22 23 24
1

             SYMMETRY TRANSFORMATION INFO
             24 SYMMETRY ADAPTED BASIS FUNCTIONS 


          IRREDUCIBLE REPRESENTATION NUMBER 1

    1    1  O #1     1S     1   1   1.0
    2    2  O #1     1S     1   2   1.0
    3    3  O #1     1S     1   3   1.0
    4    4  O #1     2PZ    1   8   1.0
    5    5  O #1     2PZ    1   9   1.0
    6    6  O #1     3D2-   3  10  -1.0  13  -1.0  15   2.0
    7    7  O #1     3D1+   2  10   1.0  13  -1.0
    8    8  H #2     1S     2  16   1.0  17   1.0
    9    9  H #2     1S     2  18   1.0  19   1.0
   10   10  H #2     2PY    2  22   1.0  23  -1.0
   11   11  H #2     2PZ    2  24   1.0  25   1.0


          IRREDUCIBLE REPRESENTATION NUMBER 2

   12    1  O #1     2PX    1   4   1.0
   13    2  O #1     2PX    1   5   1.0
   14    3  O #1     3D0    1  12   1.0
   15    4  H #2     2PX    2  20   1.0  21   1.0


          IRREDUCIBLE REPRESENTATION NUMBER 3

   16    1  O #1     2PY    1   6   1.0
   17    2  O #1     2PY    1   7   1.0
   18    3  O #1     3D2+   1  14   1.0
   19    4  H #2     1S     2  16   1.0  17  -1.0
   20    5  H #2     1S     2  18   1.0  19  -1.0
   21    6  H #2     2PY    2  22   1.0  23   1.0
   22    7  H #2     2PZ    2  24   1.0  25  -1.0


          IRREDUCIBLE REPRESENTATION NUMBER 4

   23    1  O #1     3D1-   1  11   1.0
   24    2  H #2     2PX    2  20   1.0  21  -1.0
  NUCLEAR REPULSION ENERGY :    8.8870044022 A.U.
  @MOLECU-I, ONE ELECTRON INTEGRALS (CPU/WALL):        0.00/       0.00 SECONDS.
  @TWOEL-I,       2350 INTEGRALS OF SYMMETRY TYPE  I I I I
  @TWOEL-I,       4467 INTEGRALS OF SYMMETRY TYPE  I J I J
  @TWOEL-I,       2860 INTEGRALS OF SYMMETRY TYPE  I I J J
  @TWOEL-I,       1735 INTEGRALS OF SYMMETRY TYPE  I J K L
  @TWOEL-I, TOTAL NUMBER OF 2-E INTEGRALS      11412.
  @MOLECU-I, TWO ELECTRON INTEGRALS (CPU/WALL):        0.01/       0.01 SECONDS.
 @CHECKOUT-I, Total execution time (CPU/WALL):        0.01/       0.01 seconds.

OMP_NUM_THREADS not specified; defaulting to 1
Running with 1 threads/proc

--executable xvmol finished with status     0 in        0.03 seconds (walltime).
 --invoking executable--
/ihome/kjordan/shu8/software/source/cfour/cfour-public/bin/xvmol2ja
 @GETMEM-I,  Allocated     762 MB of main memory.
 ZMAT order <=> comp order: mapping vector 
           1    1
           2    2
           3    3
 @CHECKOUT-I, Total execution time (CPU/WALL):        0.00/       0.01 seconds.
--executable xvmol2ja finished with status     0 in        0.02 seconds (walltime).
 --invoking executable--
/ihome/kjordan/shu8/software/source/cfour/cfour-public/bin/xvscf
  There are   24 functions in the AO basis.

  There are 4 irreducible representations.

       Irrep        # of functions
         1                 11
         2                  4
         3                  7
         4                  2


  Parameters for SCF calculation: 
        SCF reference function:  UHF  
  Maximum number of iterations:  150
     Full symmetry point group: C2v 
     Computational point group: C2v 
        Initial density matrix: CORE                   
     SCF convergence tolerance: 10**(- 7)
  DIIS convergence acceleration:  ON
          Latest start for DIIS:   8
                     DIIS order:   6

  Memory information:      63296 words required.
  Fock matrices are constructed from AO integral file.
 @GETMEM-I,  Allocated       0 MB of main memory.
  Initialization and symmetry analysis required      0.001 seconds.

 @INITGES-I, Routine entered. 
  @INITGES-I, Occupancies from core Hamiltonian:

          Alpha population by irrep:   3    1    1    0
           Beta population by irrep:   3    1    1    0


 total no. of electrons in initial guess :  0.000000000000000E+000
 total no. of electrons in initial guess :  0.000000000000000E+000
  --------------------------------------------------------------------
  Iteration         Total Energy            Largest Density Difference
  --------------------------------------------------------------------
       0             8.887004402217023              0.0000000000D+00
   current occupation vector 
     3  1  1  0
     3  1  1  0
  processed                   2350  ao basis integrals from 
                     1  buffers.
  processed                   2860  ao basis integrals from 
                     1  buffers.
  processed                   4467  ao basis integrals from 
                     2  buffers.
       1           -68.916697000437040              0.4837789387D+01
   current occupation vector 
     3  1  1  0
     3  1  1  0
  processed                   2350  ao basis integrals from 
                     1  buffers.
  processed                   2860  ao basis integrals from 
                     1  buffers.
  processed                   4467  ao basis integrals from 
                     2  buffers.
       2           -69.923742801287261              0.4683483543D+01
   current occupation vector 
     3  0  2  0
     3  0  2  0
  processed                   2350  ao basis integrals from 
                     1  buffers.
  processed                   2860  ao basis integrals from 
                     1  buffers.
  processed                   4467  ao basis integrals from 
                     2  buffers.
       3           -73.216614649713676              0.3464542168D+01
   current occupation vector 
     3  1  1  0
     3  1  1  0
  processed                   2350  ao basis integrals from 
                     1  buffers.
  processed                   2860  ao basis integrals from 
                     1  buffers.
  processed                   4467  ao basis integrals from 
                     2  buffers.
       4           -73.339069994377695              0.1887497926D+01
   current occupation vector 
     4  0  1  0
     4  0  1  0
 
 sum over diagonal and offdiagdiagonal of C(T)*S*C for irrep
                     1
 -4.740652315149418E-014 -1.029196987914959E-013
 reorthoganalization of MOs is carried out
 sum over diagonal and offdiagdiagonal of C(T)*S*C for irrep
                     1
  2.220446049250313E-016  5.854751023728032E-015
 
 sum over diagonal and offdiagdiagonal of C(T)*S*C for irrep
                     2
 -7.216449660063518E-015  2.718311686855657E-015
 reorthoganalization of MOs is carried out
 sum over diagonal and offdiagdiagonal of C(T)*S*C for irrep
                     2
  2.220446049250313E-016  1.257674520083185E-016
 
 sum over diagonal and offdiagdiagonal of C(T)*S*C for irrep
                     3
 -1.332267629550188E-015  6.323067069935462E-016
 reorthoganalization of MOs is carried out
 sum over diagonal and offdiagdiagonal of C(T)*S*C for irrep
                     3
 -1.332267629550188E-015 -1.629339024811216E-015
 
 sum over diagonal and offdiagdiagonal of C(T)*S*C for irrep
                     4
  0.000000000000000E+000  2.220446049250313E-016
 reorthoganalization of MOs is carried out
 sum over diagonal and offdiagdiagonal of C(T)*S*C for irrep
                     4
 -5.551115123125783E-016  1.110223024625157E-016
 
 sum over diagonal and offdiagdiagonal of C(T)*S*C for irrep
                     1
 -4.740652315149418E-014 -1.029196987914959E-013
 reorthoganalization of MOs is carried out
 sum over diagonal and offdiagdiagonal of C(T)*S*C for irrep
                     1
  2.220446049250313E-016  5.854751023728032E-015
 
 sum over diagonal and offdiagdiagonal of C(T)*S*C for irrep
                     2
 -7.216449660063518E-015  2.718311686855657E-015
 reorthoganalization of MOs is carried out
 sum over diagonal and offdiagdiagonal of C(T)*S*C for irrep
                     2
  2.220446049250313E-016  1.257674520083185E-016
 
 sum over diagonal and offdiagdiagonal of C(T)*S*C for irrep
                     3
 -1.332267629550188E-015  6.323067069935462E-016
 reorthoganalization of MOs is carried out
 sum over diagonal and offdiagdiagonal of C(T)*S*C for irrep
                     3
 -1.332267629550188E-015 -1.629339024811216E-015
 
 sum over diagonal and offdiagdiagonal of C(T)*S*C for irrep
                     4
  0.000000000000000E+000  2.220446049250313E-016
 reorthoganalization of MOs is carried out
 sum over diagonal and offdiagdiagonal of C(T)*S*C for irrep
                     4
 -5.551115123125783E-016  1.110223024625157E-016
  processed                   2350  ao basis integrals from 
                     1  buffers.
  processed                   2860  ao basis integrals from 
                     1  buffers.
  processed                   4467  ao basis integrals from 
                     2  buffers.
       5           -74.593065515802607              0.1631974222D+01
   current occupation vector 
     3  1  1  0
     3  1  1  0
  processed                   2350  ao basis integrals from 
                     1  buffers.
  processed                   2860  ao basis integrals from 
                     1  buffers.
  processed                   4467  ao basis integrals from 
                     2  buffers.
       6           -75.433273633716766              0.1334428448D+01
   current occupation vector 
     3  1  1  0
     3  1  1  0
  processed                   2350  ao basis integrals from 
                     1  buffers.
  processed                   2860  ao basis integrals from 
                     1  buffers.
  processed                   4467  ao basis integrals from 
                     2  buffers.
       7           -75.801412242126275              0.7793164224D+00
   current occupation vector 
     3  1  1  0
     3  1  1  0
  processed                   2350  ao basis integrals from 
                     1  buffers.
  processed                   2860  ao basis integrals from 
                     1  buffers.
  processed                   4467  ao basis integrals from 
                     2  buffers.
       8           -75.941621852062440              0.5284193096D+00
   current occupation vector 
     3  1  1  0
     3  1  1  0
  processed                   2350  ao basis integrals from 
                     1  buffers.
  processed                   2860  ao basis integrals from 
                     1  buffers.
  processed                   4467  ao basis integrals from 
                     2  buffers.
       9           -76.023043109866279              0.1788662308D+00
   current occupation vector 
     3  1  1  0
     3  1  1  0
 
 sum over diagonal and offdiagdiagonal of C(T)*S*C for irrep
                     1
 -2.742250870824137E-014 -1.539889296262552E-014
 reorthoganalization of MOs is carried out
 sum over diagonal and offdiagdiagonal of C(T)*S*C for irrep
                     1
  4.773959005888173E-015  8.054056824680772E-015
 
 sum over diagonal and offdiagdiagonal of C(T)*S*C for irrep
                     2
 -2.331468351712829E-015  2.837140244960068E-015
 reorthoganalization of MOs is carried out
 sum over diagonal and offdiagdiagonal of C(T)*S*C for irrep
                     2
  2.220446049250313E-016 -2.671474153004283E-016
 
 sum over diagonal and offdiagdiagonal of C(T)*S*C for irrep
                     3
  6.439293542825908E-015 -6.213887911166172E-015
 reorthoganalization of MOs is carried out
 sum over diagonal and offdiagdiagonal of C(T)*S*C for irrep
                     3
 -1.110223024625157E-016 -1.101549407245273E-015
 
 sum over diagonal and offdiagdiagonal of C(T)*S*C for irrep
                     4
  2.220446049250313E-016  1.942890293094024E-016
 reorthoganalization of MOs is carried out
 sum over diagonal and offdiagdiagonal of C(T)*S*C for irrep
                     4
 -4.440892098500626E-016  9.714451465470120E-017
 
 sum over diagonal and offdiagdiagonal of C(T)*S*C for irrep
                     1
 -2.742250870824137E-014 -1.539889296262552E-014
 reorthoganalization of MOs is carried out
 sum over diagonal and offdiagdiagonal of C(T)*S*C for irrep
                     1
  4.773959005888173E-015  8.054056824680772E-015
 
 sum over diagonal and offdiagdiagonal of C(T)*S*C for irrep
                     2
 -2.331468351712829E-015  2.837140244960068E-015
 reorthoganalization of MOs is carried out
 sum over diagonal and offdiagdiagonal of C(T)*S*C for irrep
                     2
  2.220446049250313E-016 -2.671474153004283E-016
 
 sum over diagonal and offdiagdiagonal of C(T)*S*C for irrep
                     3
  6.439293542825908E-015 -6.213887911166172E-015
 reorthoganalization of MOs is carried out
 sum over diagonal and offdiagdiagonal of C(T)*S*C for irrep
                     3
 -1.110223024625157E-016 -1.101549407245273E-015
 
 sum over diagonal and offdiagdiagonal of C(T)*S*C for irrep
                     4
  2.220446049250313E-016  1.942890293094024E-016
 reorthoganalization of MOs is carried out
 sum over diagonal and offdiagdiagonal of C(T)*S*C for irrep
                     4
 -4.440892098500626E-016  9.714451465470120E-017
  processed                   2350  ao basis integrals from 
                     1  buffers.
  processed                   2860  ao basis integrals from 
                     1  buffers.
  processed                   4467  ao basis integrals from 
                     2  buffers.
      10           -76.023064329976648              0.2950824697D-02
   current occupation vector 
     3  1  1  0
     3  1  1  0
  processed                   2350  ao basis integrals from 
                     1  buffers.
  processed                   2860  ao basis integrals from 
                     1  buffers.
  processed                   4467  ao basis integrals from 
                     2  buffers.
      11           -76.023066876367665              0.1352440068D-02
   current occupation vector 
     3  1  1  0
     3  1  1  0
  processed                   2350  ao basis integrals from 
                     1  buffers.
  processed                   2860  ao basis integrals from 
                     1  buffers.
  processed                   4467  ao basis integrals from 
                     2  buffers.
      12           -76.023066956109147              0.2496334081D-03
   current occupation vector 
     3  1  1  0
     3  1  1  0
  processed                   2350  ao basis integrals from 
                     1  buffers.
  processed                   2860  ao basis integrals from 
                     1  buffers.
  processed                   4467  ao basis integrals from 
                     2  buffers.
      13           -76.023066957033905              0.3008550267D-04
   current occupation vector 
     3  1  1  0
     3  1  1  0
  processed                   2350  ao basis integrals from 
                     1  buffers.
  processed                   2860  ao basis integrals from 
                     1  buffers.
  processed                   4467  ao basis integrals from 
                     2  buffers.
      14           -76.023066957079664              0.5522667283D-05
   current occupation vector 
     3  1  1  0
     3  1  1  0
 
 sum over diagonal and offdiagdiagonal of C(T)*S*C for irrep
                     1
 -3.208544541166702E-014 -5.298441806828036E-015
 reorthoganalization of MOs is carried out
 sum over diagonal and offdiagdiagonal of C(T)*S*C for irrep
                     1
 -6.994405055138486E-015 -7.661307975829687E-015
 
 sum over diagonal and offdiagdiagonal of C(T)*S*C for irrep
                     2
 -6.994405055138486E-015  5.318662177344891E-015
 reorthoganalization of MOs is carried out
 sum over diagonal and offdiagdiagonal of C(T)*S*C for irrep
                     2
  1.110223024625157E-015  7.806255641895632E-018
 
 sum over diagonal and offdiagdiagonal of C(T)*S*C for irrep
                     3
 -2.553512956637860E-015 -2.582135893991477E-015
 reorthoganalization of MOs is carried out
 sum over diagonal and offdiagdiagonal of C(T)*S*C for irrep
                     3
  3.330669073875470E-016  1.143941712189456E-015
 
 sum over diagonal and offdiagdiagonal of C(T)*S*C for irrep
                     4
 -4.440892098500626E-016  3.191891195797325E-016
 reorthoganalization of MOs is carried out
 sum over diagonal and offdiagdiagonal of C(T)*S*C for irrep
                     4
 -5.551115123125783E-016  6.938893903907228E-017
 
 sum over diagonal and offdiagdiagonal of C(T)*S*C for irrep
                     1
 -3.208544541166702E-014 -5.298441806828036E-015
 reorthoganalization of MOs is carried out
 sum over diagonal and offdiagdiagonal of C(T)*S*C for irrep
                     1
 -6.994405055138486E-015 -7.661307975829687E-015
 
 sum over diagonal and offdiagdiagonal of C(T)*S*C for irrep
                     2
 -6.994405055138486E-015  5.318662177344891E-015
 reorthoganalization of MOs is carried out
 sum over diagonal and offdiagdiagonal of C(T)*S*C for irrep
                     2
  1.110223024625157E-015  7.806255641895632E-018
 
 sum over diagonal and offdiagdiagonal of C(T)*S*C for irrep
                     3
 -2.553512956637860E-015 -2.582135893991477E-015
 reorthoganalization of MOs is carried out
 sum over diagonal and offdiagdiagonal of C(T)*S*C for irrep
                     3
  3.330669073875470E-016  1.143941712189456E-015
 
 sum over diagonal and offdiagdiagonal of C(T)*S*C for irrep
                     4
 -4.440892098500626E-016  3.191891195797325E-016
 reorthoganalization of MOs is carried out
 sum over diagonal and offdiagdiagonal of C(T)*S*C for irrep
                     4
 -5.551115123125783E-016  6.938893903907228E-017
  processed                   2350  ao basis integrals from 
                     1  buffers.
  processed                   2860  ao basis integrals from 
                     1  buffers.
  processed                   4467  ao basis integrals from 
                     2  buffers.
      15           -76.023066957082278              0.1595014589D-05
   current occupation vector 
     3  1  1  0
     3  1  1  0
  processed                   2350  ao basis integrals from 
                     1  buffers.
  processed                   2860  ao basis integrals from 
                     1  buffers.
  processed                   4467  ao basis integrals from 
                     2  buffers.
      16           -76.023066957082619              0.3741269535D-06
   current occupation vector 
     3  1  1  0
     3  1  1  0

  SCF has converged.

 Density matrix saved to file den.dat
 total alpha spin electron number:   5.00000000000001     
 total  beta spin electron number:   5.00000000000001     
  processed                   2350  ao basis integrals from 
                     1  buffers.
  processed                   2860  ao basis integrals from 
                     1  buffers.
  processed                   4467  ao basis integrals from 
                     2  buffers.
     E(SCF)=       -76.023066957082676              0.6402083907D-07


  ORBITAL EIGENVECTORS

  SYMMETRY BLOCK 1 (ALPHA)

                          MO #  1       MO #  2       MO #  3       MO #  4

    BASIS/ORB E          -20.55524      -1.31963      -0.55753       0.18004
                        ----------    ----------    ----------    ----------
    1; O #1                1.00034       0.00720       0.00207       0.05166
    2; O #1                0.00196      -0.87770      -0.28679      -0.14613
    3; O #1               -0.00141       0.10352      -0.16998      -0.88882
    4; O #1               -0.00241       0.10431      -0.79287       0.29277
    5; O #1                0.00169      -0.05579      -0.00766       0.21189
    6; O #1               -0.00000      -0.00030       0.00499      -0.00206
    7; O #1               -0.00004       0.00144      -0.00234       0.00414
    8; H #2               -0.00012      -0.30548       0.34756       0.11605
    9; H #2                0.00050       0.14200      -0.12678       0.75750
   10; H #2               -0.00047      -0.03536       0.03101       0.01461
   11; H #2               -0.00041      -0.01901      -0.00701       0.01467


                          MO #  5       MO #  6       MO #  7       MO #  8

    BASIS/ORB E            0.81814       1.16477       1.46379       1.87801
                        ----------    ----------    ----------    ----------
    1; O #1                0.06886       0.00056       0.22253       0.73324
    2; O #1                0.50340      -0.19947       1.12606       3.17742
    3; O #1               -0.58896      -0.55577      -1.20856      -4.73467
    4; O #1               -0.45739      -1.12502       0.25391       0.06207
    5; O #1                0.18144       1.73922      -0.85101       0.93126
    6; O #1                0.00100      -0.00462      -0.03633       0.03463
    7; O #1                0.05119      -0.00299      -0.00705      -0.05400
    8; H #2               -1.40178       0.80399      -0.53050       1.30845
    9; H #2                1.27105      -0.28352       0.47460      -0.28227
   10; H #2                0.26603       0.08254      -0.32943       0.37238
   11; H #2                0.04616       0.26761       0.53521      -0.05172


                          MO #  9       MO # 10       MO # 11

    BASIS\ORB E            2.40898       3.45947       3.84307
                        ----------    ----------    ----------
    1; O #1                0.20399       0.08570       0.18495
    2; O #1                1.15389       0.30705       0.51793
    3; O #1                0.21726      -0.72820      -2.43770
    4; O #1               -0.92179       0.01180       0.50136
    5; O #1                0.20878       0.51080       0.63190
    6; O #1               -0.01596      -0.30847      -0.02644
    7; O #1                0.10000      -0.06530       0.58071
    8; H #2               -0.78052       0.50167       1.90504
    9; H #2                0.21522      -0.21080      -0.76557
   10; H #2               -0.75896       0.35125       0.60889
   11; H #2               -0.51366      -0.29238       0.47269


  SYMMETRY BLOCK 2 (ALPHA)

                          MO # 12       MO # 13       MO # 14       MO # 15

    BASIS/ORB E           -0.49038       1.19973       1.67693       3.24994
                        ----------    ----------    ----------    ----------
   12; O #1                0.92109       1.40837       0.05850       0.03674
   13; O #1                0.07313      -1.64809      -0.68010      -0.30281
   14; O #1               -0.01760      -0.00106      -0.16274       1.03214
   15; H #2                0.02965      -0.03947       0.76195       0.37012


  SYMMETRY BLOCK 3 (ALPHA)

                          MO # 16       MO # 17       MO # 18       MO # 19

    BASIS/ORB E           -0.68476       0.25108       0.77176       1.25393
                        ----------    ----------    ----------    ----------
   16; O #1                0.70647       0.42594       0.41015       1.08117
   17; O #1               -0.09630       0.47523       0.21259      -2.22930
   18; O #1               -0.02537      -0.01885       0.10837       0.03316
   19; H #2               -0.54826       0.05563       1.59925      -0.62280
   20; H #2                0.17978       1.34797      -1.53021      -0.45719
   21; H #2               -0.02415       0.01868      -0.06556      -0.31805
   22; H #2               -0.03177       0.01402      -0.14680      -0.15864


                          MO # 20       MO # 21       MO # 22

    BASIS\ORB E            1.89190       2.38107       4.10214
                        ----------    ----------    ----------
   16; O #1                0.09177       1.17130       0.58214
   17; O #1               -0.97197      -0.36418       0.84259
   18; O #1               -0.02539       0.12590      -1.30545
   19; H #2               -0.67432       0.42932       1.67391
   20; H #2                0.24145       0.11797      -0.56085
   21; H #2                0.44096       0.70055       0.58486
   22; H #2               -0.68753       0.54835       0.46691


  SYMMETRY BLOCK 4 (ALPHA)

                          MO # 23       MO # 24

    BASIS\ORB E            1.46374       3.31267
                        ----------    ----------
   23; O #1                0.13535       1.05568
   24; H #2               -0.68201       0.35242



  ORBITAL EIGENVECTORS

  SYMMETRY BLOCK 1 ( BETA)

                          MO #  1       MO #  2       MO #  3       MO #  4

    BASIS/ORB E          -20.55524      -1.31963      -0.55753       0.18004
                        ----------    ----------    ----------    ----------
    1; O #1                1.00034       0.00720       0.00207       0.05166
    2; O #1                0.00196      -0.87770      -0.28679      -0.14613
    3; O #1               -0.00141       0.10352      -0.16998      -0.88882
    4; O #1               -0.00241       0.10431      -0.79287       0.29277
    5; O #1                0.00169      -0.05579      -0.00766       0.21189
    6; O #1               -0.00000      -0.00030       0.00499      -0.00206
    7; O #1               -0.00004       0.00144      -0.00234       0.00414
    8; H #2               -0.00012      -0.30548       0.34756       0.11605
    9; H #2                0.00050       0.14200      -0.12678       0.75750
   10; H #2               -0.00047      -0.03536       0.03101       0.01461
   11; H #2               -0.00041      -0.01901      -0.00701       0.01467


                          MO #  5       MO #  6       MO #  7       MO #  8

    BASIS/ORB E            0.81814       1.16477       1.46379       1.87801
                        ----------    ----------    ----------    ----------
    1; O #1                0.06886       0.00056       0.22253       0.73324
    2; O #1                0.50340      -0.19947       1.12606       3.17742
    3; O #1               -0.58896      -0.55577      -1.20856      -4.73467
    4; O #1               -0.45739      -1.12502       0.25391       0.06207
    5; O #1                0.18144       1.73922      -0.85101       0.93126
    6; O #1                0.00100      -0.00462      -0.03633       0.03463
    7; O #1                0.05119      -0.00299      -0.00705      -0.05400
    8; H #2               -1.40178       0.80399      -0.53050       1.30845
    9; H #2                1.27105      -0.28352       0.47460      -0.28227
   10; H #2                0.26603       0.08254      -0.32943       0.37238
   11; H #2                0.04616       0.26761       0.53521      -0.05172


                          MO #  9       MO # 10       MO # 11

    BASIS\ORB E            2.40898       3.45947       3.84307
                        ----------    ----------    ----------
    1; O #1                0.20399       0.08570       0.18495
    2; O #1                1.15389       0.30705       0.51793
    3; O #1                0.21726      -0.72820      -2.43770
    4; O #1               -0.92179       0.01180       0.50136
    5; O #1                0.20878       0.51080       0.63190
    6; O #1               -0.01596      -0.30847      -0.02644
    7; O #1                0.10000      -0.06530       0.58071
    8; H #2               -0.78052       0.50167       1.90504
    9; H #2                0.21522      -0.21080      -0.76557
   10; H #2               -0.75896       0.35125       0.60889
   11; H #2               -0.51366      -0.29238       0.47269


  SYMMETRY BLOCK 2 ( BETA)

                          MO # 12       MO # 13       MO # 14       MO # 15

    BASIS/ORB E           -0.49038       1.19973       1.67693       3.24994
                        ----------    ----------    ----------    ----------
   12; O #1                0.92109       1.40837       0.05850       0.03674
   13; O #1                0.07313      -1.64809      -0.68010      -0.30281
   14; O #1               -0.01760      -0.00106      -0.16274       1.03214
   15; H #2                0.02965      -0.03947       0.76195       0.37012


  SYMMETRY BLOCK 3 ( BETA)

                          MO # 16       MO # 17       MO # 18       MO # 19

    BASIS/ORB E           -0.68476       0.25108       0.77176       1.25393
                        ----------    ----------    ----------    ----------
   16; O #1                0.70647       0.42594       0.41015       1.08117
   17; O #1               -0.09630       0.47523       0.21259      -2.22930
   18; O #1               -0.02537      -0.01885       0.10837       0.03316
   19; H #2               -0.54826       0.05563       1.59925      -0.62280
   20; H #2                0.17978       1.34797      -1.53021      -0.45719
   21; H #2               -0.02415       0.01868      -0.06556      -0.31805
   22; H #2               -0.03177       0.01402      -0.14680      -0.15864


                          MO # 20       MO # 21       MO # 22

    BASIS\ORB E            1.89190       2.38107       4.10214
                        ----------    ----------    ----------
   16; O #1                0.09177       1.17130       0.58214
   17; O #1               -0.97197      -0.36418       0.84259
   18; O #1               -0.02539       0.12590      -1.30545
   19; H #2               -0.67432       0.42932       1.67391
   20; H #2                0.24145       0.11797      -0.56085
   21; H #2                0.44096       0.70055       0.58486
   22; H #2               -0.68753       0.54835       0.46691


  SYMMETRY BLOCK 4 ( BETA)

                          MO # 23       MO # 24

    BASIS\ORB E            1.46374       3.31267
                        ----------    ----------
   23; O #1                0.13535       1.05568
   24; H #2               -0.68201       0.35242



       The average multiplicity is    1.0000000
  The expectation value of S**2 is   -0.0000000

 @PUTMOS-I, Writing converged MOs to NEWMOS. 
 @PUTMOS-I, Symmetry   1 Full Blocks  2 Partial Blocksize   3
 @PUTMOS-I, Symmetry   2 Full Blocks  1 Partial Blocksize   0
 @PUTMOS-I, Symmetry   3 Full Blocks  1 Partial Blocksize   3
 @PUTMOS-I, Symmetry   4 Full Blocks  0 Partial Blocksize   2
 @PUTFOCK-I, Writing converged Fock matrix to NEWFOCK. 
 @PUTFOCK-I, Symmetry   1 Full Blocks  2 Partial Blocksize   3
 @PUTFOCK-I, Symmetry   2 Full Blocks  1 Partial Blocksize   0
 @PUTFOCK-I, Symmetry   3 Full Blocks  1 Partial Blocksize   3
 @PUTFOCK-I, Symmetry   4 Full Blocks  0 Partial Blocksize   2
--------------------------------------------------------------------------------
Eigenvalue    -20.555244     -1.319626     -0.684759     -0.557532     -0.490384
 Symmetry          A1            A1            B2            A1            B1    
--------------------------------------------------------------------------------
   1 S         1.0003399     0.0071976     0.0000000     0.0020664     0.0000000
   1 S         0.0019642    -0.8776985     0.0000000    -0.2867926     0.0000000
   1 S        -0.0014061     0.1035190     0.0000000    -0.1699830     0.0000000
   1 PX        0.0000000     0.0000000     0.0000000     0.0000000     0.9210917
   1 PY        0.0000000     0.0000000     0.7064732     0.0000000     0.0000000
   1 PZ       -0.0024094     0.1043068     0.0000000    -0.7928662     0.0000000
   1 PX        0.0000000     0.0000000     0.0000000     0.0000000     0.0731259
   1 PY        0.0000000     0.0000000    -0.0962982     0.0000000     0.0000000
   1 PZ        0.0016931    -0.0557946     0.0000000    -0.0076590     0.0000000
   1 DX2      -0.0000329     0.0017430     0.0000000    -0.0073298     0.0000000
   1 DXY       0.0000000     0.0000000     0.0000000     0.0000000     0.0000000
   1 DXZ       0.0000000     0.0000000     0.0000000     0.0000000    -0.0175955
   1 DY2       0.0000390    -0.0011388     0.0000000    -0.0026571     0.0000000
   1 DYZ       0.0000000     0.0000000    -0.0253709     0.0000000     0.0000000
   1 DZZ      -0.0000061    -0.0006042     0.0000000     0.0099869     0.0000000
   2 S        -0.0001241    -0.3054840    -0.5482595     0.3475571     0.0000000
   2 S         0.0004958     0.1419971     0.1797789    -0.1267774     0.0000000
   2 PX        0.0000000     0.0000000     0.0000000     0.0000000     0.0296531
   2 PY       -0.0004712    -0.0353599    -0.0241518     0.0310149     0.0000000
   2 PZ       -0.0004069    -0.0190114    -0.0317724    -0.0070060     0.0000000
   3 S        -0.0001241    -0.3054840     0.5482595     0.3475571     0.0000000
   3 S         0.0004958     0.1419971    -0.1797789    -0.1267774     0.0000000
   3 PX        0.0000000     0.0000000     0.0000000     0.0000000     0.0296531
   3 PY        0.0004712     0.0353599    -0.0241518    -0.0310149     0.0000000
   3 PZ       -0.0004069    -0.0190114     0.0317724    -0.0070060     0.0000000
--------------------------------------------------------------------------------
Eigenvalue      0.180043      0.251077      0.771757      0.818138      1.164766
 Symmetry          A1            B2            B2            A1            A1    
--------------------------------------------------------------------------------
   1 S         0.0516604     0.0000000     0.0000000     0.0688636     0.0005574
   1 S        -0.1461342     0.0000000     0.0000000     0.5033950    -0.1994720
   1 S        -0.8888204     0.0000000     0.0000000    -0.5889629    -0.5557744
   1 PX        0.0000000     0.0000000     0.0000000     0.0000000     0.0000000
   1 PY        0.0000000     0.4259442     0.4101475     0.0000000     0.0000000
   1 PZ        0.2927675     0.0000000     0.0000000    -0.4573948    -1.1250189
   1 PX        0.0000000     0.0000000     0.0000000     0.0000000     0.0000000
   1 PY        0.0000000     0.4752335     0.2125921     0.0000000     0.0000000
   1 PZ        0.2118896     0.0000000     0.0000000     0.1814425     1.7392178
   1 DX2       0.0061972     0.0000000     0.0000000     0.0501872     0.0016306
   1 DXY       0.0000000     0.0000000     0.0000000     0.0000000     0.0000000
   1 DXZ       0.0000000     0.0000000     0.0000000     0.0000000     0.0000000
   1 DY2      -0.0020848     0.0000000     0.0000000    -0.0521900     0.0076043
   1 DYZ       0.0000000    -0.0188463     0.1083747     0.0000000     0.0000000
   1 DZZ      -0.0041125     0.0000000     0.0000000     0.0020027    -0.0092349
   2 S         0.1160530     0.0556256     1.5992478    -1.4017817     0.8039896
   2 S         0.7575024     1.3479689    -1.5302087     1.2710537    -0.2835210
   2 PX        0.0000000     0.0000000     0.0000000     0.0000000     0.0000000
   2 PY        0.0146140     0.0186791    -0.0655624     0.2660341     0.0825415
   2 PZ        0.0146679     0.0140195    -0.1468039     0.0461584     0.2676061
   3 S         0.1160530    -0.0556256    -1.5992478    -1.4017817     0.8039896
   3 S         0.7575024    -1.3479689     1.5302087     1.2710537    -0.2835210
   3 PX        0.0000000     0.0000000     0.0000000     0.0000000     0.0000000
   3 PY       -0.0146140     0.0186791    -0.0655624    -0.2660341    -0.0825415
   3 PZ        0.0146679    -0.0140195     0.1468039     0.0461584     0.2676061
--------------------------------------------------------------------------------
Eigenvalue      1.199726      1.253926      1.463739      1.463787      1.676927
 Symmetry          B1            B2            A2            A1            B1    
--------------------------------------------------------------------------------
   1 S         0.0000000     0.0000000     0.0000000     0.2225262     0.0000000
   1 S         0.0000000     0.0000000     0.0000000     1.1260609     0.0000000
   1 S         0.0000000     0.0000000     0.0000000    -1.2085590     0.0000000
   1 PX        1.4083727     0.0000000     0.0000000     0.0000000     0.0585020
   1 PY        0.0000000     1.0811724     0.0000000     0.0000000     0.0000000
   1 PZ        0.0000000     0.0000000     0.0000000     0.2539120     0.0000000
   1 PX       -1.6480912     0.0000000     0.0000000     0.0000000    -0.6800978
   1 PY        0.0000000    -2.2293013     0.0000000     0.0000000     0.0000000
   1 PZ        0.0000000     0.0000000     0.0000000    -0.8510127     0.0000000
   1 DX2       0.0000000     0.0000000     0.0000000     0.0292791     0.0000000
   1 DXY       0.0000000     0.0000000     0.1353521     0.0000000     0.0000000
   1 DXZ      -0.0010643     0.0000000     0.0000000     0.0000000    -0.1627409
   1 DY2       0.0000000     0.0000000     0.0000000     0.0433719     0.0000000
   1 DYZ       0.0000000     0.0331597     0.0000000     0.0000000     0.0000000
   1 DZZ       0.0000000     0.0000000     0.0000000    -0.0726510     0.0000000
   2 S         0.0000000    -0.6228048     0.0000000    -0.5305005     0.0000000
   2 S         0.0000000    -0.4571933     0.0000000     0.4746015     0.0000000
   2 PX       -0.0394720     0.0000000    -0.6820068     0.0000000     0.7619543
   2 PY        0.0000000    -0.3180486     0.0000000    -0.3294301     0.0000000
   2 PZ        0.0000000    -0.1586427     0.0000000     0.5352065     0.0000000
   3 S         0.0000000     0.6228048     0.0000000    -0.5305005     0.0000000
   3 S         0.0000000     0.4571933     0.0000000     0.4746015     0.0000000
   3 PX       -0.0394720     0.0000000     0.6820068     0.0000000     0.7619543
   3 PY        0.0000000    -0.3180486     0.0000000     0.3294301     0.0000000
   3 PZ        0.0000000     0.1586427     0.0000000     0.5352065     0.0000000
--------------------------------------------------------------------------------
Eigenvalue      1.878007      1.891897      2.381073      2.408983      3.249944
 Symmetry          A1            B2            B2            A1            B1    
--------------------------------------------------------------------------------
   1 S         0.7332359     0.0000000     0.0000000     0.2039919     0.0000000
   1 S         3.1774193     0.0000000     0.0000000     1.1538911     0.0000000
   1 S        -4.7346741     0.0000000     0.0000000     0.2172646     0.0000000
   1 PX        0.0000000     0.0000000     0.0000000     0.0000000     0.0367388
   1 PY        0.0000000     0.0917690     1.1713034     0.0000000     0.0000000
   1 PZ        0.0620700     0.0000000     0.0000000    -0.9217947     0.0000000
   1 PX        0.0000000     0.0000000     0.0000000     0.0000000    -0.3028099
   1 PY        0.0000000    -0.9719739    -0.3641823     0.0000000     0.0000000
   1 PZ        0.9312623     0.0000000     0.0000000     0.2087782     0.0000000
   1 DX2      -0.0886332     0.0000000     0.0000000     0.1159583     0.0000000
   1 DXY       0.0000000     0.0000000     0.0000000     0.0000000     0.0000000
   1 DXZ       0.0000000     0.0000000     0.0000000     0.0000000     1.0321432
   1 DY2       0.0193747     0.0000000     0.0000000    -0.0840370     0.0000000
   1 DYZ       0.0000000    -0.0253917     0.1259041     0.0000000     0.0000000
   1 DZZ       0.0692585     0.0000000     0.0000000    -0.0319213     0.0000000
   2 S         1.3084478    -0.6743152     0.4293235    -0.7805225     0.0000000
   2 S        -0.2822714     0.2414482     0.1179741     0.2152206     0.0000000
   2 PX        0.0000000     0.0000000     0.0000000     0.0000000     0.3701156
   2 PY        0.3723805     0.4409650     0.7005452    -0.7589637     0.0000000
   2 PZ       -0.0517190    -0.6875342     0.5483469    -0.5136639     0.0000000
   3 S         1.3084478     0.6743152    -0.4293235    -0.7805225     0.0000000
   3 S        -0.2822714    -0.2414482    -0.1179741     0.2152206     0.0000000
   3 PX        0.0000000     0.0000000     0.0000000     0.0000000     0.3701156
   3 PY       -0.3723805     0.4409650     0.7005452     0.7589637     0.0000000
   3 PZ       -0.0517190     0.6875342    -0.5483469    -0.5136639     0.0000000
--------------------------------------------------------------------------------
Eigenvalue      3.312668      3.459470      3.843074      4.102144
 Symmetry          A2            A1            A1            B2    
--------------------------------------------------------------------------------
   1 S         0.0000000     0.0856962     0.1849535     0.0000000
   1 S         0.0000000     0.3070540     0.5179328     0.0000000
   1 S         0.0000000    -0.7282035    -2.4376959     0.0000000
   1 PX        0.0000000     0.0000000     0.0000000     0.0000000
   1 PY        0.0000000     0.0000000     0.0000000     0.5821425
   1 PZ        0.0000000     0.0117973     0.5013598     0.0000000
   1 PX        0.0000000     0.0000000     0.0000000     0.0000000
   1 PY        0.0000000     0.0000000     0.0000000     0.8425914
   1 PZ        0.0000000     0.5108041     0.6318984     0.0000000
   1 DX2       0.0000000     0.2431647     0.6071465     0.0000000
   1 DXY       1.0556798     0.0000000     0.0000000     0.0000000
   1 DXZ       0.0000000     0.0000000     0.0000000     0.0000000
   1 DY2       0.0000000     0.3737732    -0.5542692     0.0000000
   1 DYZ       0.0000000     0.0000000     0.0000000    -1.3054525
   1 DZZ       0.0000000    -0.6169379    -0.0528774     0.0000000
   2 S         0.0000000     0.5016729     1.9050380     1.6739148
   2 S         0.0000000    -0.2108022    -0.7655708    -0.5608529
   2 PX        0.3524238     0.0000000     0.0000000     0.0000000
   2 PY        0.0000000     0.3512524     0.6088948     0.5848571
   2 PZ        0.0000000    -0.2923796     0.4726945     0.4669148
   3 S         0.0000000     0.5016729     1.9050380    -1.6739148
   3 S         0.0000000    -0.2108022    -0.7655708     0.5608529
   3 PX       -0.3524238     0.0000000     0.0000000     0.0000000
   3 PY        0.0000000    -0.3512524    -0.6088948     0.5848571
   3 PZ        0.0000000    -0.2923796     0.4726945    -0.4669148
--------------------------------------------------------------------------------
--------------------------------------------------------------------------------
Eigenvalue    -20.555244     -1.319626     -0.684759     -0.557532     -0.490384
 Symmetry          A1            A1            B2            A1            B1    
--------------------------------------------------------------------------------
   1 S         1.0003399     0.0071976     0.0000000     0.0020664     0.0000000
   1 S         0.0019642    -0.8776985     0.0000000    -0.2867926     0.0000000
   1 S        -0.0014061     0.1035190     0.0000000    -0.1699830     0.0000000
   1 PX        0.0000000     0.0000000     0.0000000     0.0000000     0.9210917
   1 PY        0.0000000     0.0000000     0.7064732     0.0000000     0.0000000
   1 PZ       -0.0024094     0.1043068     0.0000000    -0.7928662     0.0000000
   1 PX        0.0000000     0.0000000     0.0000000     0.0000000     0.0731259
   1 PY        0.0000000     0.0000000    -0.0962982     0.0000000     0.0000000
   1 PZ        0.0016931    -0.0557946     0.0000000    -0.0076590     0.0000000
   1 DX2      -0.0000329     0.0017430     0.0000000    -0.0073298     0.0000000
   1 DXY       0.0000000     0.0000000     0.0000000     0.0000000     0.0000000
   1 DXZ       0.0000000     0.0000000     0.0000000     0.0000000    -0.0175955
   1 DY2       0.0000390    -0.0011388     0.0000000    -0.0026571     0.0000000
   1 DYZ       0.0000000     0.0000000    -0.0253709     0.0000000     0.0000000
   1 DZZ      -0.0000061    -0.0006042     0.0000000     0.0099869     0.0000000
   2 S        -0.0001241    -0.3054840    -0.5482595     0.3475571     0.0000000
   2 S         0.0004958     0.1419971     0.1797789    -0.1267774     0.0000000
   2 PX        0.0000000     0.0000000     0.0000000     0.0000000     0.0296531
   2 PY       -0.0004712    -0.0353599    -0.0241518     0.0310149     0.0000000
   2 PZ       -0.0004069    -0.0190114    -0.0317724    -0.0070060     0.0000000
   3 S        -0.0001241    -0.3054840     0.5482595     0.3475571     0.0000000
   3 S         0.0004958     0.1419971    -0.1797789    -0.1267774     0.0000000
   3 PX        0.0000000     0.0000000     0.0000000     0.0000000     0.0296531
   3 PY        0.0004712     0.0353599    -0.0241518    -0.0310149     0.0000000
   3 PZ       -0.0004069    -0.0190114     0.0317724    -0.0070060     0.0000000
--------------------------------------------------------------------------------
Eigenvalue      0.180043      0.251077      0.771757      0.818138      1.164766
 Symmetry          A1            B2            B2            A1            A1    
--------------------------------------------------------------------------------
   1 S         0.0516604     0.0000000     0.0000000     0.0688636     0.0005574
   1 S        -0.1461342     0.0000000     0.0000000     0.5033950    -0.1994720
   1 S        -0.8888204     0.0000000     0.0000000    -0.5889629    -0.5557744
   1 PX        0.0000000     0.0000000     0.0000000     0.0000000     0.0000000
   1 PY        0.0000000     0.4259442     0.4101475     0.0000000     0.0000000
   1 PZ        0.2927675     0.0000000     0.0000000    -0.4573948    -1.1250189
   1 PX        0.0000000     0.0000000     0.0000000     0.0000000     0.0000000
   1 PY        0.0000000     0.4752335     0.2125921     0.0000000     0.0000000
   1 PZ        0.2118896     0.0000000     0.0000000     0.1814425     1.7392178
   1 DX2       0.0061972     0.0000000     0.0000000     0.0501872     0.0016306
   1 DXY       0.0000000     0.0000000     0.0000000     0.0000000     0.0000000
   1 DXZ       0.0000000     0.0000000     0.0000000     0.0000000     0.0000000
   1 DY2      -0.0020848     0.0000000     0.0000000    -0.0521900     0.0076043
   1 DYZ       0.0000000    -0.0188463     0.1083747     0.0000000     0.0000000
   1 DZZ      -0.0041125     0.0000000     0.0000000     0.0020027    -0.0092349
   2 S         0.1160530     0.0556256     1.5992478    -1.4017817     0.8039896
   2 S         0.7575024     1.3479689    -1.5302087     1.2710537    -0.2835210
   2 PX        0.0000000     0.0000000     0.0000000     0.0000000     0.0000000
[...]
    3    5    8    8  -0.0640915709 ABAB
    5    3    8    8  -0.0640915709 ABAB
    5    5   11    8  -0.0530651442 ABAB
    5    5    8   11  -0.0530651442 ABAB
    3    5    7    8  -0.0521691010 ABAB
    5    3    8    7  -0.0521691010 ABAB
    5    3    7    8   0.0471769757 BBBB
    5    3    7    8   0.0471769757 AAAA
    4    5    6    8   0.0434693309 ABAB
    5    4    8    6   0.0434693309 ABAB
    3    5    9    9  -0.0382276071 ABAB
--------------------------------------------------------------------------------
  The state is a singlet (overlap =   1.000000).
  Converged eigenvector, normalized to one 
  SCF eigenvalue ordering used in list below. 
--------------------------------------------------------------------------------
    I    j    A    b
--------------------------------------------------------------------------------
    0    5    0    8  -0.6694327161 BB  
    5    0    8    0  -0.6694327161 AA  
    0    5    0    7   0.1065344293 BB  
    5    0    7    0   0.1065344293 AA  
    3    5    8    8  -0.0640915709 ABAB
    5    3    8    8  -0.0640915709 ABAB
    5    5   11    8  -0.0530651442 ABAB
    5    5    8   11  -0.0530651442 ABAB
    3    5    7    8  -0.0521691010 ABAB
    5    3    8    7  -0.0521691010 ABAB
    5    3    7    8   0.0471769757 BBBB
    5    3    7    8   0.0471769757 AAAA
    4    5    6    8   0.0434693309 ABAB
    5    4    8    6   0.0434693309 ABAB
    3    5    9    9  -0.0382276071 ABAB
--------------------------------------------------------------------------------

  Eigenvector is saved on CCLE_4_4  

 irrepx                     4
  normalization factor for lhs wavefunction    1.00100655287821     
  @TDENS-I, Largest elements of the LEFT  transition density
    ----------------------------------------
        I    J             Value
    ----------------------------------------
        4   18       -0.6694327161
        4   17        0.1065344293
        4   21       -0.0305134595
       14   18        0.0150694912
        4   19       -0.0104641005
       14   17       -0.0065591179
        4    5       -0.0063592849
        5   14        0.0058597152
        2   23       -0.0054941375
       23    3        0.0042892148
       15    5        0.0039687519
        5   15        0.0034069186
       15   18       -0.0032195912
       14    5       -0.0030995260
       16    5       -0.0029735184
    ----------------------------------------
  @TDENS-I, Largest elements of the LEFT  transition density
    ----------------------------------------
        I    J             Value
    ----------------------------------------
        4   18       -0.6694327161
        4   17        0.1065344293
        4   21       -0.0305134595
       14   18        0.0150694912
        4   19       -0.0104641005
       14   17       -0.0065591179
        4    5       -0.0063592849
        5   14        0.0058597152
        2   23       -0.0054941375
       23    3        0.0042892148
       15    5        0.0039687519
        5   15        0.0034069186
       15   18       -0.0032195912
       14    5       -0.0030995260
       16    5       -0.0029735184
    ----------------------------------------
----------------------------------------------------------------------
                                 X             Y             Z
----------------------------------------------------------------------
  Right Transition Moment    0.00000000    0.00000000    0.00000000
  Left Transition Moment     0.00000000    0.00000000    0.00000000
  Dipole Strength            0.00000000    0.00000000    0.00000000
  Oscillator Strength        0.00000000    0.00000000    0.00000000
----------------------------------------------------------------------
  Transition energy    21.1964 eV  (  58.4931 nm;  170960.297 cm-1)
  Total EOMEE-CCSD electronic energy     -75.459571652232 a.u.
  Norm of oscillator strength :   0.00000000
  Contribution to electric polarizability: 
    XX:     0.000000000 YY:     0.000000000 ZZ:     0.000000000
    XY:     0.000000000 XZ:     0.000000000 YZ:     0.000000000
  Cumulative electric polarizability: 
    XX:     1.148300332 YY:     0.000000000 ZZ:     1.957627284
    XY:     0.000000000 XZ:     0.000000000 YZ:     0.000000000
 lenc2ab                  2054
  <PSI|0><0|PSI> =  0.0000000
  <PSI|S><S|PSI> =  0.9310181
  <PSI|D><D|PSI> =  0.0689819
  0.999999999999999       should be one 
--------------------------------------------------------------------------------
  Analyzing symmetry of density matrix 
--------------------------------------------------------------------------------
 Block      Largest Asymmetry         Norm of antihermitian
                                          contribution
--------------------------------------------------------------------------------
  OO          0.0002979456                0.0008429276
  VV          0.0013050942                0.0082096323
  VO          0.0328776154                0.1754035336
--------------------------------------------------------------------------------
  One-density contributions           to E =    1.37091030362132     
  Sum of reference state and one-density contributions           to E = 
  -74.6521566534613     
  One-density contributions           to E =   4.123905704597462E-002
  Sum of reference state and one-density contributions           to E = 
  -75.9818279000367     
  current dipole   0.000000000000000E+000 -2.220446049250313E-016
 -0.991744406959947      T                   576
  Spin case alpha excited state natural orbitals:
------------------------------------------------------------------------
 Orbital  Occ. Major                      Second Moment
          Num. Cont.
                            xx      yy      zz      xy      xz      yz
------------------------------------------------------------------------
     1   0.496  18 [0.99]   1.285   4.594   2.176   0.000   0.000  -0.000
     2   0.068   3 [0.55]   0.304   0.572   0.672   0.000  -0.000  -0.000
     3   0.068  17 [0.68]   0.661   2.247   0.911   0.000   0.000  -0.000
     4   0.021   2 [0.56]   0.374   0.461   0.706   0.000   0.000   0.000
     5   0.006  14 [0.99]   1.882   0.909   0.764   0.000  -0.000  -0.000
     6   0.004   7 [0.77]   2.169   2.783   2.714   0.000   0.000   0.000
     7   0.001  13 [0.60]   1.049   1.187   0.916   0.000  -0.000   0.000
     8   0.001  23 [0.79]   0.747   1.145   0.477   0.000   0.000   0.000
     9   0.001  19 [0.76]   0.989   3.714   2.050  -0.000  -0.000   0.000
    10   0.001  16 [0.73]   0.790   0.448   0.772  -0.000   0.000   0.000
    11   0.001   9 [0.78]   0.559   2.238   1.540  -0.000  -0.000  -0.000
    12   0.000  21 [0.51]   0.785   3.495   2.423   0.000  -0.000   0.000
    13   0.000  20 [0.84]   0.621   3.253   1.685   0.000  -0.000  -0.000
    14   0.000  10 [0.48]   1.705   3.461   3.465   0.000   0.000  -0.000
    15   0.000  24 [0.79]   0.930   2.299   1.208   0.000   0.000   0.000
    16   0.000  15 [0.73]   1.548   2.190   1.334  -0.000  -0.000  -0.000
    17   0.000  11 [0.68]   0.599   2.953   1.941  -0.000   0.000   0.000
    18   0.000  22 [0.87]   0.419   2.623   1.626  -0.000  -0.000  -0.000
    19   0.000  12 [0.91]   0.350   2.170   1.110  -0.000   0.000   0.000
    20  -0.000   1 [0.90]   0.214   0.299   0.281  -0.000   0.000   0.000
    21  -0.023   2 [0.67]   1.026   1.392   1.643  -0.000   0.000   0.000
    22  -0.067   3 [0.67]   0.970   2.229   2.680  -0.000  -0.000  -0.000
    23  -0.073   5 [0.78]   1.118   4.589   1.674  -0.000   0.000   0.000
    24  -0.505   4 [1.00]   1.398   0.521   0.500   0.000   0.000  -0.000
------------------------------------------------------------------------
  Spin case alpha natural difference orbitals:
------------------------------------------------------------------------
 Orbital  Occ. Major                      Second Moment
          Num. Cont.
                            xx      yy      zz      xy      xz      yz
------------------------------------------------------------------------
     1   0.491  18 [0.98]   1.312   4.668   2.199   0.000   0.000  -0.000
     2   0.074   3 [0.65]   0.349   0.645   0.806  -0.000   0.000  -0.000
     3   0.072   5 [0.70]   0.632   2.225   0.935   0.000   0.000  -0.000
     4   0.024   2 [0.68]   0.328   0.322   0.532   0.000   0.000   0.000
     5   0.003   7 [0.77]   2.544   3.792   3.623  -0.000  -0.000   0.000
     6   0.000  15 [0.78]   1.098   2.573   1.391  -0.000  -0.000   0.000
     7   0.000   1 [0.91]   0.220   0.474   0.366   0.000   0.000   0.000
     8   0.000  22 [0.61]   0.736   4.214   2.185   0.000   0.000   0.000
     9  -0.000  20 [0.88]   0.606   2.913   2.341   0.000   0.000  -0.000
    10  -0.000  13 [0.53]   1.142   3.378   2.215   0.000   0.000   0.000
    11  -0.000  24 [0.72]   0.967   2.475   1.301   0.000   0.000   0.000
    12  -0.000  12 [0.64]   0.404   2.355   1.485  -0.000   0.000   0.000
    13  -0.000  21 [0.77]   0.734   2.948   1.618   0.000   0.000   0.000
    14  -0.001  11 [0.59]   1.177   3.165   2.567  -0.000   0.000  -0.000
    15  -0.001  19 [0.68]   0.627   2.273   1.254   0.000   0.000  -0.000
    16  -0.001  13 [0.53]   0.843   0.428   0.448   0.000  -0.000  -0.000
    17  -0.002  16 [0.81]   0.673   0.316   0.710  -0.000   0.000   0.000
    18  -0.002  23 [0.72]   0.710   0.968   0.385   0.000   0.000   0.000
    19  -0.002   9 [0.73]   0.310   0.957   1.024  -0.000   0.000   0.000
    20  -0.002  14 [0.96]   2.435   0.644   0.763   0.000   0.000   0.000
    21  -0.023   2 [0.58]   1.020   1.527   1.794  -0.000  -0.000   0.000
    22  -0.068   3 [0.61]   0.984   2.699   2.808  -0.000  -0.000   0.000
    23  -0.069   5 [0.71]   1.230   5.275   2.012   0.000   0.000   0.000
    24  -0.492   4 [1.00]   1.412   0.533   0.508   0.000   0.000   0.000
------------------------------------------------------------------------
                    Approximate excitation level (AEL) :    0.53449.
  @POPANAL2-I, Population analysis of alpha difference density.
            Population analysis by orbital
 -------------------------------------------------------
     Z-matrix
      Center          Function          Population
 -------------------------------------------------------
         1                S              0.00000682
         1                S              0.04839912
         1                S             -0.03214315
         1                P             -0.40336714
         1                P             -0.07447801
         1                P              0.13110485
         1                P             -0.00128536
         1                P              0.07021242
         1                P             -0.02894231
         1                D             -0.00085224
         1                D             -0.00137557
         1                D             -0.00161742
         1                D             -0.00091990
         1                D              0.01887000
         1                D             -0.00108092
         2                S              0.01047304
         3                S              0.01047304
         2                S              0.12013429
         3                S              0.12013429
         2                P             -0.00830004
         3                P             -0.00830004
         2                P              0.00104547
         3                P              0.00104547
         2                P              0.01538165
         3                P              0.01538165
 -------------------------------------------------------
            Atomic population analysis
 -------------------------------------------------------
     Z-matrix
      Center          Function          Population
 -------------------------------------------------------
         1                              -0.27746881
         2                               0.13873440
         3                               0.13873440
 -------------------------------------------------------
  current dipole   0.000000000000000E+000 -2.220446049250313E-016
 -0.991744406959947      T                   576
  Spin case beta  excited state natural orbitals:
------------------------------------------------------------------------
 Orbital  Occ. Major                      Second Moment
          Num. Cont.
                            xx      yy      zz      xy      xz      yz
------------------------------------------------------------------------
     1   0.496  18 [0.99]   1.285   4.594   2.176   0.000  -0.000  -0.000
     2   0.068   3 [0.55]   0.304   0.572   0.672   0.000   0.000  -0.000
     3   0.068  17 [0.68]   0.661   2.247   0.911   0.000   0.000  -0.000
     4   0.021   2 [0.56]   0.374   0.461   0.706   0.000   0.000   0.000
     5   0.006  14 [0.99]   1.882   0.909   0.764   0.000  -0.000   0.000
     6   0.004   7 [0.77]   2.169   2.783   2.714   0.000   0.000   0.000
     7   0.001  13 [0.60]   1.049   1.187   0.916   0.000  -0.000   0.000
     8   0.001  23 [0.79]   0.747   1.145   0.477   0.000   0.000   0.000
     9   0.001  19 [0.76]   0.989   3.714   2.050   0.000  -0.000   0.000
    10   0.001  16 [0.73]   0.790   0.448   0.772  -0.000   0.000   0.000
    11   0.001   9 [0.78]   0.559   2.238   1.540  -0.000  -0.000  -0.000
    12   0.000  21 [0.51]   0.785   3.495   2.423   0.000   0.000  -0.000
    13   0.000  20 [0.84]   0.621   3.253   1.685   0.000  -0.000   0.000
    14   0.000  10 [0.48]   1.705   3.461   3.465  -0.000  -0.000  -0.000
    15   0.000  24 [0.79]   0.930   2.299   1.208   0.000   0.000   0.000
    16   0.000  15 [0.73]   1.548   2.190   1.334  -0.000   0.000  -0.000
    17   0.000  11 [0.68]   0.599   2.953   1.941   0.000  -0.000   0.000
    18   0.000  22 [0.87]   0.419   2.623   1.626   0.000   0.000  -0.000
    19   0.000  12 [0.91]   0.350   2.170   1.110  -0.000   0.000   0.000
    20  -0.000   1 [0.90]   0.214   0.299   0.281  -0.000   0.000   0.000
    21  -0.023   2 [0.67]   1.026   1.392   1.643   0.000  -0.000   0.000
    22  -0.067   3 [0.67]   0.970   2.229   2.680  -0.000   0.000  -0.000
    23  -0.073   5 [0.78]   1.118   4.589   1.674  -0.000   0.000   0.000
    24  -0.505   4 [1.00]   1.398   0.521   0.500   0.000   0.000   0.000
------------------------------------------------------------------------
  Spin case beta  natural difference orbitals:
------------------------------------------------------------------------
 Orbital  Occ. Major                      Second Moment
          Num. Cont.
                            xx      yy      zz      xy      xz      yz
------------------------------------------------------------------------
     1   0.491  18 [0.98]   1.312   4.668   2.199   0.000  -0.000  -0.000
     2   0.074   3 [0.65]   0.349   0.645   0.806  -0.000   0.000  -0.000
     3   0.072   5 [0.70]   0.632   2.225   0.935   0.000  -0.000  -0.000
     4   0.024   2 [0.68]   0.328   0.322   0.532  -0.000  -0.000   0.000
     5   0.003   7 [0.77]   2.544   3.792   3.623  -0.000  -0.000   0.000
     6   0.000  15 [0.78]   1.098   2.573   1.391  -0.000  -0.000  -0.000
     7   0.000   1 [0.91]   0.220   0.474   0.366   0.000   0.000   0.000
     8   0.000  22 [0.61]   0.736   4.214   2.185   0.000  -0.000   0.000
     9  -0.000  20 [0.88]   0.606   2.913   2.341   0.000   0.000  -0.000
    10  -0.000  13 [0.53]   1.142   3.378   2.215   0.000  -0.000   0.000
    11  -0.000  24 [0.72]   0.967   2.475   1.301   0.000   0.000   0.000
    12  -0.000  12 [0.64]   0.404   2.355   1.485  -0.000   0.000   0.000
    13  -0.000  21 [0.77]   0.734   2.948   1.618  -0.000  -0.000   0.000
    14  -0.001  11 [0.59]   1.177   3.165   2.567  -0.000   0.000  -0.000
    15  -0.001  19 [0.68]   0.627   2.273   1.254   0.000   0.000  -0.000
    16  -0.001  13 [0.53]   0.843   0.428   0.448   0.000   0.000  -0.000
    17  -0.002  16 [0.81]   0.673   0.316   0.710  -0.000  -0.000  -0.000
    18  -0.002  23 [0.72]   0.710   0.968   0.385   0.000   0.000   0.000
    19  -0.002   9 [0.73]   0.310   0.957   1.024  -0.000  -0.000   0.000
    20  -0.002  14 [0.96]   2.435   0.644   0.763   0.000   0.000  -0.000
    21  -0.023   2 [0.58]   1.020   1.527   1.794  -0.000  -0.000   0.000
    22  -0.068   3 [0.61]   0.984   2.699   2.808  -0.000  -0.000   0.000
    23  -0.069   5 [0.71]   1.230   5.275   2.012  -0.000  -0.000   0.000
    24  -0.492   4 [1.00]   1.412   0.533   0.508  -0.000  -0.000   0.000
------------------------------------------------------------------------
                    Approximate excitation level (AEL) :    0.53449.
  @POPANAL2-I, Population analysis of beta  difference density.
            Population analysis by orbital
 -------------------------------------------------------
     Z-matrix
      Center          Function          Population
 -------------------------------------------------------
         1                S              0.00000682
         1                S              0.04839912
         1                S             -0.03214315
         1                P             -0.40336714
         1                P             -0.07447801
         1                P              0.13110485
         1                P             -0.00128536
         1                P              0.07021242
         1                P             -0.02894231
         1                D             -0.00085224
         1                D             -0.00137557
         1                D             -0.00161742
         1                D             -0.00091990
         1                D              0.01887000
         1                D             -0.00108092
         2                S              0.01047304
         3                S              0.01047304
         2                S              0.12013429
         3                S              0.12013429
         2                P             -0.00830004
         3                P             -0.00830004
         2                P              0.00104547
         3                P              0.00104547
         2                P              0.01538165
         3                P              0.01538165
 -------------------------------------------------------
            Atomic population analysis
 -------------------------------------------------------
     Z-matrix
      Center          Function          Population
 -------------------------------------------------------
         1                              -0.27746881
         2                               0.13873440
         3                               0.13873440
 -------------------------------------------------------
------------------------------------------------------------------------
                         Ground state properties 
------------------------------------------------------------------------
  Dipole moment   0.000000000000  -0.000000000000  -0.762228781558
  Second moment of charge distribution :
  XX :     5.305715 YY :     7.560835 ZZ :     6.452092
  XY :     0.000000 YZ :    -0.000000 YZ :     0.000000
  Spherical average :     6.439547
------------------------------------------------------------------------
                         Excited state properties 
------------------------------------------------------------------------
  Dipole moment   0.000000000000  -0.000000000000  -0.325821946976
  Second moment of charge distribution :
  XX :     5.003813 YY :    10.879306 ZZ :     7.646196
  XY :     0.000000 YZ :    -0.000000 YZ :     0.000000
  Spherical average :     7.843105
  Total one-electron energy    0.0412390570 a.u.
  Solution of   4 roots required   77 iterations.
 @CHECKOUT-I, Total execution time (CPU/WALL):        0.56/       0.57 seconds.
--executable xvee finished with status     0 in        0.59 seconds (walltime).
  The final electronic energy is       -75.459571652231602 a.u. 
  This computation required                            1.03 seconds (walltime).
