

(INPUT FILE)
Create H  file=/usr/local/adf2007.01/atomicdata/SZ/H
XC
 GGA Blyp
End
End Input

 *******************************************************************************
 *                                                                             *
 *  -------------------------------------                                      *
 *   Amsterdam Density Functional  (ADF)         2007.01   August 20, 2007     *
 *  -------------------------------------                                      *
 *                                               Build 200708191746            *
 *                                                                             *
 *                                                                             *
 *                              =================                              *
 *                              |               |                              *
 *                              |     A D F     |                              *
 *                              |               |                              *
 *                              =================                              *
 *                                                                             *
 *                                                                             *
 *   Online information and documentation:  http://www.scm.com                 *
 *   E-mail:  support@scm.com   info@scm.com                                   *
 *                                                                             *
 *   Scientific publications using ADF results must be properly referenced     *
 *   See the User Manuals (or the web site) for recommended citations          *
 *   The terms and conditions of the End User License Agreement apply to       *
 *   the use of ADF, http://www.scm.com/Sales/LicAgreement.html                *
 *                                                                             *
 ******************************  hp_itan2_linux  *******************************
 
 ADF 2007.01  RunTime: Oct30-2007 10:42:49
 Hydrogen (SZ)



 ===========================
 A T T A C H E D   F I L E S
 ===========================
  
 CREATE - Data File:    /usr/local/adf2007.01/atomicdata/SZ/H
                        Hydrogen (SZ)



 ===============================
 M O D E L   P A R A M E T E R S
 ===============================
  
 DENSITY FUNCTIONAL POTENTIAL (scf)
    LDA:                               Exchange only                           == Not Default ==
    Gradient Corrections:              Becke88 LYP                             == Not Default ==

 SPIN  (restricted / unrestr.)
    Molecule:                          Restricted                               

 OTHER ASPECTS
    Relativistic Corrections:          ---                                      
    Core Treatment:                    Frozen Orbital(s)                        

    Electric Field:                    ---                                      

    Hyperfine or Zeeman Interaction:   ---                                      



 =====================================
 S Y M M E T R Y ,   E L E C T R O N S
 =====================================
  
 Symmetry: ATOM

 Irreducible Representations, including subspecies
 -------------------------------------------------
 S
 P:x  P:y  P:z
 D:z2  D:x2-y2  D:xy  D:xz  D:yz
 F:z3  F:z  F:xyz  F:z2x  F:z2y  F:x  F:y


 Configuration of Valence Electrons
 ==================================

          Occupation Numbers
          -------------------------------------------------
 S        1
 P        0
 D        0
 F        0
          -------------------------------------------------

 Total:   1

 Net Charge: 0 (Nuclei minus Electrons)

 Preset values for MO occupations will be applied through SCF cycle no. 1000000
 Thereafter, the program will assign electrons to MOs that are spatially
 similar to the occupied MOs in a "reference" cycle ("KeepOrbitals").
 The reference cycle is always the PREVIOUS cycle: it will evolve with
 the SCF procedure.



 ================================
 (Slater-type)  F U N C T I O N S  ***  (Basis and Fit)  ***
 ================================
  

 Atom Type    1  (H)
 ==============

 Valence Basis Sets:   1
 -----------------------
   1 S    1.240000

 Charge Fitting Sets (for the computation of the Coulomb Potential):  11
 -----------------------------------------------------------------------
   1 S    3.160000
   1 S    2.090000
   1 S    1.380000
   2 S    1.500000
   2 P    4.000000
   2 P    2.650000
   2 P    1.750000
   3 D    4.000000
   3 D    2.500000
   4 F    3.000000
   5 G    4.000000


 BAS: List of all Elementary Cartesian Basis Functions
 =====================================================

 The numbering in the list below (to the right of the function characteristics) is referred
 to in print-outs of MO eigenvectors and Mulliken populations in the BAS representation
 (as contrasted to the SFO representation).

 Notes:
 1. The functions are characterized by a polynomial prefactor (powers of x,y,z and r) and
    an exponential decay factor alpha.
 2. Since the basis sets are specific for an atom TYPE, the individual functions occur on
    all atoms of that type.
 3. The word 'Core' in the left margin signals that it is a Core Function (CF) : not a
    degree of freedom in the valence set, but only used to ensure orthogonalization of
    the other valence basis functions on the frozen Core Orbitals.


 (power of) X  Y  Z  R     Alpha  on Atom
            ==========     =====     ==========

 H                                    1
                                  ---------------------------------------------------------------------------
            0  0  0  0     1.240      1


 BAS: List of all Elementary Cartesian Basis Functions
 =====================================================

 The numbering in the list below (to the right of the function characteristics) is referred
 to in print-outs of MO eigenvectors and Mulliken populations in the BAS representation
 (as contrasted to the SFO representation).

 Notes:
 1. The functions are characterized by a polynomial prefactor (powers of x,y,z and r) and
    an exponential decay factor alpha.
 2. Since the basis sets are specific for an atom TYPE, the individual functions occur on
    all atoms of that type.
 3. The word 'Core' in the left margin signals that it is a Core Function (CF) : not a
    degree of freedom in the valence set, but only used to ensure orthogonalization of
    the other valence basis functions on the frozen Core Orbitals.


 (power of) X  Y  Z  R     Alpha  on Atom
            ==========     =====     ==========

 H                                    1
                                  ---------------------------------------------------------------------------
            0  0  0  0     1.240      1
1
 ***************************************************************************************************



                                              ***********************
                                              *  T E C H N I C A L  *
                                              ***********************
  



 =============================================================
 P A R A L L E L I Z A T I O N  and  V E C T O R I Z A T I O N
 =============================================================
  
 Nr of parallel processes:                                1
 Internal max. (compile-time) nr of processes:          128
 Maximum vector length in NumInt loops:                 128



 ===============
 I O  vs.  C P U  ***  (store numerical data on disk or recalculate)  ***
 ===============
  
 Basis functions:   recalculate when needed
 Fit functions:     recalculate when needed

 IO buffersize (Mb):                                    512.000000



 =====================
 S C F   U P D A T E S
 =====================
  
 Max. nr. of cycles:                               100
 Convergence criterion:                              0.0000000100
   secondary criterion:                              0.0000000100

 Mix parameter (when DIIS does not apply):           0.2000000000
 Special mix parameter for the first cycle:          1.0000000000


 DIIS (Direct Inversion in Iteration Space)
    Replace damping when SCF Error is below:         0.5000000000
    Apply anyway after SCF cycle:
                                                     5
    (Max.) nr. of expansion vectors:                10

    Upperbound on expansion coefficients:            5.0000000000
    (when exceeded, IterationSpace is re-built)
    2nd Upperbound on coefficients:                 25.0000000000
    (when exceeded, simple damping will be used)
 Automatic ElectronSmearing (in case of problematic SCF convergence) disabled



 =================
 P R E C I S I O N  ***  (General: NumInt, NeglectFunctionTails, ...)  ***
 =================
  

 NumInt:           Target precision:                10.0000000000
 -------           Initial precision:               10.0000000000
                   Min. precision (optimization):   10.0000000000

 Neglect Functions:          Basis functions:        0.1000000000E-11
 ------------------          Fit functions:          0.1000000000E-11



 ===========================
 L I N E A R   S C A L I N G
 ===========================
  

 Cut-off radii density fit:                        0.1000000000E-13
 Overlap cut-off criterion AO matrix elements:     0.1000000000E-11
 Cut-offs for Coulomb potential and fitted density:0.1000000000E-13
 Cut-off criterion for Coulomb multipole terms:    0.1000000000E-13
1
 ***************************************************************************************************



                                            ***************************
                                            *  C O M P U T A T I O N  *
                                            ***************************
  

 Number of elements of the density matrix on this node (used, total):         1         1



 ====================================================
 Numerical Integration : Voronoi Polyhedra (Te Velde)  ***  (parameters, tests)  ***
 ====================================================
  
 General Accuracy Parameter :                         10.00

 Symmetry used in the points section:  ATOM  


 Summary of the Symmetry Unique Points:
 --------------------------------------
    Nr. of used Symmetry Operators                     1

    Points in the Atomic Spheres                      34
    Points in the Atomic Polyhedra                     0
    Points in the Outer Region                         0
    ----------------------------------------------------
    Total                                             34

    Sum of Weights                                 33854.777883

 Total nr. of points:         34
 Nr. of blocks:                1
 Block length:                34
 Nr. of dummy points:          0


 Test of Precision of the Numerical Integration Grid
 ===================================================

 Integral of the Total Core Density:                   0.00000000000000



 =====
 S C F
 =====
  

 CYCLE    1
 orbitals (Q,E):
 ---------------
 S :1...1            ( 1.00    -0.1216)

 CYCLE    2
 d-Pmat  mean:  0.00E+00
 imax=      1:  0.00E+00
 orbitals (Q,E):
 ---------------
 S :1...1            ( 1.00    -0.1216)

 SCF CONVERGED

 CYCLE    3
1
 ***************************************************************************************************



                                                *******************
                                                *  R E S U L T S  *
                                                *******************
  
 *** Setting up for NEW gradients in focky
 *** Using FIT density in focky

 Orbital Energies, per Irrep and Spin:
 ======================================
                        Occup              E (au)              E (eV)       Diff (eV) with prev. cycle
                        -----      --------------------        ------       --------------------------
 S
               1        1.000     -0.12163331707833E+00        -3.310               0.00E+00


 Partially Occupied:
               1 S                -0.12163331707833E+00
  


 Orbital Energies of the Core Orbitals:
 ======================================
 (Note that the atoms are grouped by atomtype, see the labels, and may hence NOT be in input order)

 AtomType  Orbital  Atom                   E (au)                        E (eV)
 --------  -------  ----           --------------------        ----------------



 =======================================
 M U L L I K E N   P O P U L A T I O N S
 =======================================
  
 The survey below gives for each atom:
 a) the total charge (Z minus electrons)
 b) the net spin polarization (nr of electrons spin-A minus spin-B)
 c) for each spin the atomic electron valence density (integrated) per L-value.

 Atom              Charge    Spin density          S         P         D         F
 ----              ------    ------------       ------    ------    ------    ------
 1 H               0.0000                       1.0000    0.0000    0.0000    0.0000

 Populations of individual BAS functions
 ----------------------------------------
 1 H            1.0000

 Gross Charges per Atom (Z minus electrons)
 ==========================================
             0.0000
 Net Total:  0.00000000


 Atom-Atom Population Matrix (off-diagonal elements not doubled)
 ===============================================================

     1 :     1.0000



 =============
 Dipole Moment  ***  (Debye)  ***
 =============
  
 Vector   :         0.00000000      0.00000000      0.00000000
 Magnitude:         0.00000000

 This molecular dipole moment is calculated with analytic integration



 =========================================
 Quadrupole Moment (Buckingham convention)  ***  (a.u.)  ***
 =========================================
  
      quad-xx        quad-xy        quad-xz        quad-yy        quad-yz        quad-zz
      0.00000000     0.00000000     0.00000000     0.00000000     0.00000000     0.00000000

 This molecular quadrupole moment is calculated with analytic integration



 ===============================================================================
 Electrostatic potential at the Nuclei due to valence electrons and other nuclei
 ===============================================================================
  
         Atom                  Potential
         ----                  ---------
     1)   H                   1.23926638
 
 
 ========================
 No memory problems found
 ========================
 
 Maximum number of active allocate calls:         255
 
 *******************************************************************************

                             A D F   E X I T
 NORMAL TERMINATION



 =================
 Timing Statistics
 =================
  
 Total Used :                     CPU=        0.25      System=        0.37     Elapsed=        0.68

 Calls  Section                     ( Mean, Percentage )
 ---------------------------------------------------------------------------------------------------
     3  ><      ................      0.00    0.78             0.00    0.00             0.00    1.14
     1  INIT    ................      0.01    3.11             0.00    0.80             0.02    2.62
     1  GEOMET  ................      0.05   18.68             0.35   94.92             0.40   58.67
     1  INPUTA  ................      0.01    2.33             0.00    0.27             0.02    2.48
     1  MAINSY  ................      0.02    6.61             0.00    1.34             0.03    4.46
     1  SYMFIT  ................      0.00    0.39             0.00    0.00             0.00    0.17
     1  CORORT  ................      0.00    0.00             0.00    0.27             0.00    0.12
     1  SYMORB  ................      0.00    0.78             0.00    0.00             0.00    0.24
     1  FITINT  ................      0.02    7.39             0.00    0.27             0.02    3.04
     1  CLSMAT  ................      0.00    0.39             0.00    0.00             0.00    0.16
     1  ORTHON  ................      0.00    1.17             0.00    0.00             0.00    0.35
     1  ETALOW  ................      0.00    0.39             0.00    0.00             0.00    0.19
     1  GENPT   ................      0.02    8.95             0.00    0.27             0.03    4.18
     1  PTBAS   ................      0.01    3.50             0.00    0.00             0.01    1.42
     3  FOCKY   ................      0.02   27.63             0.00    0.53             0.03   11.18
     3  FOCKTR  ................      0.00    1.17             0.00    0.27             0.00    0.58
     3  FOCKNM  ................      0.00    0.00             0.00    0.00             0.00    0.02
     3  SDIIS   ................      0.00    1.56             0.00    0.27             0.00    0.56
     3  EMERGE  ................      0.00    2.72             0.00    0.00             0.00    1.71
     1  COREPS  ................      0.01    3.89             0.00    0.00             0.01    1.65
     1  POPAN   ................      0.01    2.72             0.00    0.00             0.01    1.66
     1  DEBYE   ................      0.00    0.78             0.00    0.00             0.00    0.25
     1  QMPOT   ................      0.01    3.50             0.00    0.00             0.01    1.94
     1  EXIT PROCEDURE .........      0.00    1.56             0.00    0.80             0.01    1.20


 Currently Open Files (EXIT00)
 ====================

 Unit    Access Format  Status   Type       Ident (file)
 -------------------------------------------------------
   3      SEQ    FORM   TRANSP  NORMAL      LOGFILE
                                          ( logfile )


 Buffered I/O statistics
 =======================
 Memory available:                    536870912
 Number of records fitting in memory:    129055
 Input :   3.7% of                          813  *4k bytes
 Output:  15.2% of                          824  *4k bytes
 Records from serial files evicted:           0
                    others evicted:           0
 Hash table lookups:       4317 with          0 conflicts (  0.00%)

 ***************************************************************************************************
 (LOGFILE)
 <Oct30-2007> <10:42:49>  ADF 2007.01  RunTime: Oct30-2007 10:42:49
 <Oct30-2007> <10:42:49>  Hydrogen (SZ)
 <Oct30-2007> <10:42:49>  RunType   : CREATE
 <Oct30-2007> <10:42:49>  Net Charge: 0 (Nuclei minus Electrons)
 <Oct30-2007> <10:42:49>  Symmetry  : ATOM
 <Oct30-2007> <10:42:49>  >>>> CORORT
 <Oct30-2007> <10:42:49>  >>>> FITINT
 <Oct30-2007> <10:42:49>  >>>> CLSMAT
 <Oct30-2007> <10:42:49>  >>>> ORTHON
 <Oct30-2007> <10:42:49>  >>>> GENPT
 <Oct30-2007> <10:42:49>  Acc.Num.Int.=  10.000
 <Oct30-2007> <10:42:49>  Block Length=  34
 <Oct30-2007> <10:42:49>  >>>> PTBAS
 <Oct30-2007> <10:42:49>  >>>> CYCLE
 <Oct30-2007> <10:42:49>    1
 <Oct30-2007> <10:42:49>    2  ErrMat   0.00000000  MaxEl  0.00000000
 <Oct30-2007> <10:42:49>  SCF converged
 <Oct30-2007> <10:42:49>    3  ErrMat   0.00000000  MaxEl  0.00000000
 <Oct30-2007> <10:42:49>   Solutions with partially occupied orbitals may not be
 <Oct30-2007> <10:42:49>   lowest in energy. You might consider lowering the
 <Oct30-2007> <10:42:49>   symmetry in the input and explicitly specifying integer
 <Oct30-2007> <10:42:49>   occupations. In that case always check that you obtain
 <Oct30-2007> <10:42:49>   an aufbau solution.
 <Oct30-2007> <10:42:49>  >>>> COREPS
 <Oct30-2007> <10:42:49>  >>>> POPAN
 <Oct30-2007> <10:42:49>  >>>> DEBYE
 <Oct30-2007> <10:42:49>  NORMAL TERMINATION
 <Oct30-2007> <10:42:49>  END


(INPUT FILE)
Create C  file=/usr/local/adf2007.01/atomicdata/SZ/C
XC
 GGA Blyp
End
End Input

 *******************************************************************************
 *                                                                             *
 *  -------------------------------------                                      *
 *   Amsterdam Density Functional  (ADF)         2007.01   August 20, 2007     *
 *  -------------------------------------                                      *
 *                                               Build 200708191746            *
 *                                                                             *
 *                                                                             *
 *                              =================                              *
 *                              |               |                              *
 *                              |     A D F     |                              *
 *                              |               |                              *
 *                              =================                              *
 *                                                                             *
 *                                                                             *
 *   Online information and documentation:  http://www.scm.com                 *
 *   E-mail:  support@scm.com   info@scm.com                                   *
 *                                                                             *
 *   Scientific publications using ADF results must be properly referenced     *
 *   See the User Manuals (or the web site) for recommended citations          *
 *   The terms and conditions of the End User License Agreement apply to       *
 *   the use of ADF, http://www.scm.com/Sales/LicAgreement.html                *
 *                                                                             *
 ******************************  hp_itan2_linux  *******************************
 
 ADF 2007.01  RunTime: Oct30-2007 10:42:50
 Carbon (SZ)



 ===========================
 A T T A C H E D   F I L E S
 ===========================
  
 CREATE - Data File:    /usr/local/adf2007.01/atomicdata/SZ/C
                        Carbon (SZ)



 ===============================
 M O D E L   P A R A M E T E R S
 ===============================
  
 DENSITY FUNCTIONAL POTENTIAL (scf)
    LDA:                               Exchange only                           == Not Default ==
    Gradient Corrections:              Becke88 LYP                             == Not Default ==

 SPIN  (restricted / unrestr.)
    Molecule:                          Restricted                               

 OTHER ASPECTS
    Relativistic Corrections:          ---                                      
    Core Treatment:                    Frozen Orbital(s)                        

    Electric Field:                    ---                                      

    Hyperfine or Zeeman Interaction:   ---                                      



 =====================================
 S Y M M E T R Y ,   E L E C T R O N S
 =====================================
  
 Symmetry: ATOM

 Irreducible Representations, including subspecies
 -------------------------------------------------
 S
 P:x  P:y  P:z
 D:z2  D:x2-y2  D:xy  D:xz  D:yz
 F:z3  F:z  F:xyz  F:z2x  F:z2y  F:x  F:y


 Configuration of Valence Electrons
 ==================================

          Occupation Numbers
          -------------------------------------------------
 S        2*2
 P        2
 D        0
 F        0
          -------------------------------------------------

 Total:   6

 Net Charge: 0 (Nuclei minus Electrons)

 Preset values for MO occupations will be applied through SCF cycle no. 1000000
 Thereafter, the program will assign electrons to MOs that are spatially
 similar to the occupied MOs in a "reference" cycle ("KeepOrbitals").
 The reference cycle is always the PREVIOUS cycle: it will evolve with
 the SCF procedure.



 ================================
 (Slater-type)  F U N C T I O N S  ***  (Basis and Fit)  ***
 ================================
  

 Atom Type    1  (C)
 ==============

 Valence Basis Sets:   3
 -----------------------
   1 S    5.670000
   2 S    1.720000
   2 P    1.720000

 Charge Fitting Sets (for the computation of the Coulomb Potential):  22
 -----------------------------------------------------------------------
   1 S   11.340000
   2 S   13.540000
   2 S    9.660000
   2 S    6.890000
   2 S    4.920000
   3 S    5.130000
   3 S    3.860000
   3 S    2.900000
   3 S    2.180000
   3 S    1.640000
   2 P    7.390000
   2 P    4.710000
   3 P    4.410000
   3 P    3.020000
   3 P    2.060000
   3 D    3.440000
   3 D    2.690000
   3 D    2.100000
   3 D    1.640000
   4 F    5.400000
   4 F    3.550000
   5 G    4.500000


 BAS: List of all Elementary Cartesian Basis Functions
 =====================================================

 The numbering in the list below (to the right of the function characteristics) is referred
 to in print-outs of MO eigenvectors and Mulliken populations in the BAS representation
 (as contrasted to the SFO representation).

 Notes:
 1. The functions are characterized by a polynomial prefactor (powers of x,y,z and r) and
    an exponential decay factor alpha.
 2. Since the basis sets are specific for an atom TYPE, the individual functions occur on
    all atoms of that type.
 3. The word 'Core' in the left margin signals that it is a Core Function (CF) : not a
    degree of freedom in the valence set, but only used to ensure orthogonalization of
    the other valence basis functions on the frozen Core Orbitals.


 (power of) X  Y  Z  R     Alpha  on Atom
            ==========     =====     ==========

 C                                    1
                                  ---------------------------------------------------------------------------
            0  0  0  0     5.670      1
            0  0  0  1     1.720      2
            1  0  0  0     1.720      3
            0  1  0  0     1.720      4
            0  0  1  0     1.720      5


 BAS: List of all Elementary Cartesian Basis Functions
 =====================================================

 The numbering in the list below (to the right of the function characteristics) is referred
 to in print-outs of MO eigenvectors and Mulliken populations in the BAS representation
 (as contrasted to the SFO representation).

 Notes:
 1. The functions are characterized by a polynomial prefactor (powers of x,y,z and r) and
    an exponential decay factor alpha.
 2. Since the basis sets are specific for an atom TYPE, the individual functions occur on
    all atoms of that type.
 3. The word 'Core' in the left margin signals that it is a Core Function (CF) : not a
    degree of freedom in the valence set, but only used to ensure orthogonalization of
    the other valence basis functions on the frozen Core Orbitals.


 (power of) X  Y  Z  R     Alpha  on Atom
            ==========     =====     ==========

 C                                    1
                                  ---------------------------------------------------------------------------
            0  0  0  0     5.670      1
            0  0  0  1     1.720      2
            1  0  0  0     1.720      3
            0  1  0  0     1.720      4
            0  0  1  0     1.720      5
1
 ***************************************************************************************************



                                              ***********************
                                              *  T E C H N I C A L  *
                                              ***********************
  



 =============================================================
 P A R A L L E L I Z A T I O N  and  V E C T O R I Z A T I O N
 =============================================================
  
 Nr of parallel processes:                                1
 Internal max. (compile-time) nr of processes:          128
 Maximum vector length in NumInt loops:                 128



 ===============
 I O  vs.  C P U  ***  (store numerical data on disk or recalculate)  ***
 ===============
  
 Basis functions:   recalculate when needed
 Fit functions:     recalculate when needed

 IO buffersize (Mb):                                    512.000000



 =====================
 S C F   U P D A T E S
 =====================
  
 Max. nr. of cycles:                               100
 Convergence criterion:                              0.0000000100
   secondary criterion:                              0.0000000100

 Mix parameter (when DIIS does not apply):           0.2000000000
 Special mix parameter for the first cycle:          1.0000000000


 DIIS (Direct Inversion in Iteration Space)
    Replace damping when SCF Error is below:         0.5000000000
    Apply anyway after SCF cycle:
                                                     5
    (Max.) nr. of expansion vectors:                10

    Upperbound on expansion coefficients:            5.0000000000
    (when exceeded, IterationSpace is re-built)
    2nd Upperbound on coefficients:                 25.0000000000
    (when exceeded, simple damping will be used)
 Automatic ElectronSmearing (in case of problematic SCF convergence) disabled



 =================
 P R E C I S I O N  ***  (General: NumInt, NeglectFunctionTails, ...)  ***
 =================
  

 NumInt:           Target precision:                10.0000000000
 -------           Initial precision:               10.0000000000
                   Min. precision (optimization):   10.0000000000

 Neglect Functions:          Basis functions:        0.1000000000E-11
 ------------------          Fit functions:          0.1000000000E-11



 ===========================
 L I N E A R   S C A L I N G
 ===========================
  

 Cut-off radii density fit:                        0.1000000000E-13
 Overlap cut-off criterion AO matrix elements:     0.1000000000E-11
 Cut-offs for Coulomb potential and fitted density:0.1000000000E-13
 Cut-off criterion for Coulomb multipole terms:    0.1000000000E-13
1
 ***************************************************************************************************



                                            ***************************
                                            *  C O M P U T A T I O N  *
                                            ***************************
  

 Number of elements of the density matrix on this node (used, total):        15        15



 ====================================================
 Numerical Integration : Voronoi Polyhedra (Te Velde)  ***  (parameters, tests)  ***
 ====================================================
  
 General Accuracy Parameter :                         10.00

 Symmetry used in the points section:  ATOM  


 Summary of the Symmetry Unique Points:
 --------------------------------------
    Nr. of used Symmetry Operators                     1

    Points in the Atomic Spheres                      48
    Points in the Atomic Polyhedra                     0
    Points in the Outer Region                         0
    ----------------------------------------------------
    Total                                             48

    Sum of Weights                                 58501.056183

 Total nr. of points:         48
 Nr. of blocks:                1
 Block length:                48
 Nr. of dummy points:          0


 Test of Precision of the Numerical Integration Grid
 ===================================================

 Integral of the Total Core Density:                   0.00000000000000



 =====
 S C F
 =====
  

 CYCLE    1
 orbitals (Q,E):
 ---------------
 S :1...2            ( 2.00   -17.2281)  ( 2.00    -3.3737)
 P :1...1            ( 2.00    -3.0741)

 CYCLE    2
 d-Pmat  mean:  0.89E-16
 imax=      1: -0.44E-15
 orbitals (Q,E):
 ---------------
 S :1...2            ( 2.00    -9.7601)  ( 2.00    -0.3637)
 P :1...1            ( 2.00    -0.0244)

 SCF CONVERGED

 CYCLE    3
1
 ***************************************************************************************************



                                                *******************
                                                *  R E S U L T S  *
                                                *******************
  
 *** Setting up for NEW gradients in focky
 *** Using FIT density in focky

 Orbital Energies, per Irrep and Spin:
 ======================================
                        Occup              E (au)              E (eV)       Diff (eV) with prev. cycle
                        -----      --------------------        ------       --------------------------
 S
               1        2.000     -0.97601381783327E+01      -265.587               5.80E-13
               2        2.000     -0.36369143932961E+00        -9.897               5.72E-13
 P
               1        2.000     -0.24432272455335E-01        -0.665               5.58E-13


 Partially Occupied:
               1 P                -0.24432272455335E-01
  
 HOMO :        2 S                -0.36369143932961E+00
  


 Orbital Energies, all Irreps
 ========================================

 Irrep        no.  (spin)   Occup              E (au)                E (eV)
 ---------------------------------------------------------------------------
 S             1             2.00       -0.97601381783327E+01      -265.5869
 S             2             2.00       -0.36369143932961E+00        -9.8965
 P             1             2.00       -0.24432272455335E-01        -0.6648


 Orbital Energies of the Core Orbitals:
 ======================================
 (Note that the atoms are grouped by atomtype, see the labels, and may hence NOT be in input order)

 AtomType  Orbital  Atom                   E (au)                        E (eV)
 --------  -------  ----           --------------------        ----------------



 =======================================
 M U L L I K E N   P O P U L A T I O N S
 =======================================
  
 The survey below gives for each atom:
 a) the total charge (Z minus electrons)
 b) the net spin polarization (nr of electrons spin-A minus spin-B)
 c) for each spin the atomic electron valence density (integrated) per L-value.

 Atom              Charge    Spin density          S         P         D         F
 ----              ------    ------------       ------    ------    ------    ------
 1 C               0.0000                       4.0000    2.0000    0.0000    0.0000

 Populations of individual BAS functions
 ----------------------------------------
 1 C            2.0000  2.0000  0.6667  0.6667  0.6667

 Gross Charges per Atom (Z minus electrons)
 ==========================================
             0.0000
 Net Total:  0.00000000


 Atom-Atom Population Matrix (off-diagonal elements not doubled)
 ===============================================================

     1 :     6.0000



 =============
 Dipole Moment  ***  (Debye)  ***
 =============
  
 Vector   :         0.00000000      0.00000000      0.00000000
 Magnitude:         0.00000000

 This molecular dipole moment is calculated with analytic integration



 =========================================
 Quadrupole Moment (Buckingham convention)  ***  (a.u.)  ***
 =========================================
  
      quad-xx        quad-xy        quad-xz        quad-yy        quad-yz        quad-zz
      0.00000000     0.00000000     0.00000000     0.00000000     0.00000000     0.00000000

 This molecular quadrupole moment is calculated with analytic integration



 ===============================================================================
 Electrostatic potential at the Nuclei due to valence electrons and other nuclei
 ===============================================================================
  
         Atom                  Potential
         ----                  ---------
     1)   C                  14.98166635
 
 
 ========================
 No memory problems found
 ========================
 
 Maximum number of active allocate calls:         291
 
 *******************************************************************************

                             A D F   E X I T
 NORMAL TERMINATION



 =================
 Timing Statistics
 =================
  
 Total Used :                     CPU=        0.30      System=        0.36     Elapsed=        0.78

 Calls  Section                     ( Mean, Percentage )
 ---------------------------------------------------------------------------------------------------
     3  ><      ................      0.00    0.66             0.00    0.00             0.00    0.92
     1  INIT    ................      0.01    2.64             0.00    0.27             0.02    2.04
     1  GEOMET  ................      0.04   14.52             0.35   95.98             0.40   50.82
     1  INPUTA  ................      0.01    2.31             0.00    0.27             0.02    2.56
     1  MAINSY  ................      0.02    6.60             0.00    0.80             0.03    4.43
     1  SYMFIT  ................      0.00    0.33             0.00    0.00             0.00    0.15
     1  CORORT  ................      0.00    0.33             0.00    0.00             0.00    0.11
     1  SYMORB  ................      0.00    1.32             0.00    0.00             0.00    0.50
     1  FITINT  ................      0.02    7.26             0.00    0.27             0.02    2.89
     1  CLSMAT  ................      0.00    0.33             0.00    0.00             0.00    0.14
     1  ORTHON  ................      0.00    0.99             0.00    0.27             0.00    0.48
     1  ETALOW  ................      0.00    0.99             0.00    0.00             0.00    0.32
     1  GENPT   ................      0.03    9.24             0.00    0.27             0.03    3.96
     1  PTBAS   ................      0.01    2.97             0.00    0.00             0.01    1.27
     3  FOCKY   ................      0.03   29.04             0.00    0.00             0.03   11.32
     3  FOCKTR  ................      0.00    1.32             0.00    0.00             0.00    0.54
     3  FOCKNM  ................      0.00    0.00             0.00    0.00             0.00    0.02
     3  SDIIS   ................      0.00    1.32             0.00    0.00             0.00    0.51
     3  EMERGE  ................      0.01    5.61             0.00    0.54             0.02    7.21
     1  COREPS  ................      0.01    3.96             0.00    0.00             0.01    1.62
     1  POPAN   ................      0.01    2.97             0.00    0.27             0.01    1.75
     1  DEBYE   ................      0.00    0.33             0.00    0.00             0.00    0.23
     1  QMPOT   ................      0.01    3.30             0.00    0.27             0.04    5.05
     1  EXIT PROCEDURE .........      0.00    1.65             0.00    0.80             0.01    1.15


 Currently Open Files (EXIT00)
 ====================

 Unit    Access Format  Status   Type       Ident (file)
 -------------------------------------------------------
   3      SEQ    FORM   TRANSP  NORMAL      LOGFILE
                                          ( logfile )


 Buffered I/O statistics
 =======================
 Memory available:                    536870912
 Number of records fitting in memory:    129055
 Input :   2.8% of                         1057  *4k bytes
 Output:  14.5% of                          947  *4k bytes
 Records from serial files evicted:           0
                    others evicted:           0
 Hash table lookups:       5368 with          0 conflicts (  0.00%)

 ***************************************************************************************************
 (LOGFILE)
 <Oct30-2007> <10:42:49>  ADF 2007.01  RunTime: Oct30-2007 10:42:49
 <Oct30-2007> <10:42:49>  Hydrogen (SZ)
 <Oct30-2007> <10:42:49>  RunType   : CREATE
 <Oct30-2007> <10:42:49>  Net Charge: 0 (Nuclei minus Electrons)
 <Oct30-2007> <10:42:49>  Symmetry  : ATOM
 <Oct30-2007> <10:42:49>  >>>> CORORT
 <Oct30-2007> <10:42:49>  >>>> FITINT
 <Oct30-2007> <10:42:49>  >>>> CLSMAT
 <Oct30-2007> <10:42:49>  >>>> ORTHON
 <Oct30-2007> <10:42:49>  >>>> GENPT
 <Oct30-2007> <10:42:49>  Acc.Num.Int.=  10.000
 <Oct30-2007> <10:42:49>  Block Length=  34
 <Oct30-2007> <10:42:49>  >>>> PTBAS
 <Oct30-2007> <10:42:49>  >>>> CYCLE
 <Oct30-2007> <10:42:49>    1
 <Oct30-2007> <10:42:49>    2  ErrMat   0.00000000  MaxEl  0.00000000
 <Oct30-2007> <10:42:49>  SCF converged
 <Oct30-2007> <10:42:49>    3  ErrMat   0.00000000  MaxEl  0.00000000
 <Oct30-2007> <10:42:49>   Solutions with partially occupied orbitals may not be
 <Oct30-2007> <10:42:49>   lowest in energy. You might consider lowering the
 <Oct30-2007> <10:42:49>   symmetry in the input and explicitly specifying integer
 <Oct30-2007> <10:42:49>   occupations. In that case always check that you obtain
 <Oct30-2007> <10:42:49>   an aufbau solution.
 <Oct30-2007> <10:42:49>  >>>> COREPS
 <Oct30-2007> <10:42:49>  >>>> POPAN
 <Oct30-2007> <10:42:49>  >>>> DEBYE
 <Oct30-2007> <10:42:49>  NORMAL TERMINATION
 <Oct30-2007> <10:42:49>  END
 <Oct30-2007> <10:42:50>  ADF 2007.01  RunTime: Oct30-2007 10:42:50
 <Oct30-2007> <10:42:50>  Carbon (SZ)
 <Oct30-2007> <10:42:50>  RunType   : CREATE
 <Oct30-2007> <10:42:50>  Net Charge: 0 (Nuclei minus Electrons)
 <Oct30-2007> <10:42:50>  Symmetry  : ATOM
 <Oct30-2007> <10:42:50>  >>>> CORORT
 <Oct30-2007> <10:42:50>  >>>> FITINT
 <Oct30-2007> <10:42:50>  >>>> CLSMAT
 <Oct30-2007> <10:42:50>  >>>> ORTHON
 <Oct30-2007> <10:42:50>  >>>> GENPT
 <Oct30-2007> <10:42:50>  Acc.Num.Int.=  10.000
 <Oct30-2007> <10:42:50>  Block Length=  48
 <Oct30-2007> <10:42:50>  >>>> PTBAS
 <Oct30-2007> <10:42:50>  >>>> CYCLE
 <Oct30-2007> <10:42:50>    1
 <Oct30-2007> <10:42:50>    2  ErrMat   0.00000000  MaxEl  0.00000000
 <Oct30-2007> <10:42:50>  SCF converged
 <Oct30-2007> <10:42:50>    3  ErrMat   0.00000000  MaxEl  0.00000000
 <Oct30-2007> <10:42:50>   Solutions with partially occupied orbitals may not be
 <Oct30-2007> <10:42:50>   lowest in energy. You might consider lowering the
 <Oct30-2007> <10:42:50>   symmetry in the input and explicitly specifying integer
 <Oct30-2007> <10:42:50>   occupations. In that case always check that you obtain
 <Oct30-2007> <10:42:50>   an aufbau solution.
 <Oct30-2007> <10:42:50>  >>>> COREPS
 <Oct30-2007> <10:42:50>  >>>> POPAN
 <Oct30-2007> <10:42:50>  >>>> DEBYE
 <Oct30-2007> <10:42:50>  NORMAL TERMINATION
 <Oct30-2007> <10:42:50>  END


(INPUT FILE)
title 1,4-divinyl-benzene, SZ, BLYP

charge 1 1
unrestricted

atoms
 C     -1.275568      0.692949      0.000000
 C     -1.211011     -0.742036      0.000000
 C      0.032360     -1.415271      0.000000
 C      1.275568     -0.692949      0.000000
 C      1.211011      0.742036      0.000000
 H     -2.143529     -1.330976      0.000000
 H      0.053320     -2.519080      0.000000
 H      2.143529      1.330976      0.000000
 C      2.571440     -1.457016      0.000000
 C      3.824633     -0.930233      0.000000
 H      4.012223      0.154429      0.000000
 H      2.455501     -2.556634      0.000000
 H      4.714807     -1.577980      0.000000
 C     -2.571440      1.457016      0.000000
 H     -2.455501      2.556634      0.000000
 C     -3.824633      0.930233      0.000000
 H     -4.012223     -0.154429      0.000000
 H     -4.714807      1.577980      0.000000
 C     -0.032360      1.415271      0.000000
 H     -0.053320      2.519080      0.000000
end

XC
 GGA Blyp
end

Fragments
H t21.H
C t21.C
End
end input

 *******************************************************************************
 *                                                                             *
 *  -------------------------------------                                      *
 *   Amsterdam Density Functional  (ADF)         2007.01   August 20, 2007     *
 *  -------------------------------------                                      *
 *                                               Build 200708191746            *
 *                                                                             *
 *                                                                             *
 *                              =================                              *
 *                              |               |                              *
 *                              |     A D F     |                              *
 *                              |               |                              *
 *                              =================                              *
 *                                                                             *
 *                                                                             *
 *   Online information and documentation:  http://www.scm.com                 *
 *   E-mail:  support@scm.com   info@scm.com                                   *
 *                                                                             *
 *   Scientific publications using ADF results must be properly referenced     *
 *   See the User Manuals (or the web site) for recommended citations          *
 *   The terms and conditions of the End User License Agreement apply to       *
 *   the use of ADF, http://www.scm.com/Sales/LicAgreement.html                *
 *                                                                             *
 ******************************  hp_itan2_linux  *******************************
 
 ADF 2007.01  RunTime: Oct30-2007 10:42:51
 1,4-divinyl-benzene, SZ, BLYP



 ===========================
 A T T A C H E D   F I L E S
 ===========================
  



 ===============================
 M O D E L   P A R A M E T E R S
 ===============================
  
 DENSITY FUNCTIONAL POTENTIAL (scf)
    LDA:                               Exchange only                           == Not Default ==
    Gradient Corrections:              Becke88 LYP                             == Not Default ==

 SPIN  (restricted / unrestr.)
    Molecule:                          UNrestricted                            == Not Default ==
    Fragments:                         Restricted                               

 OTHER ASPECTS
    Relativistic Corrections:          ---                                      
    Core Treatment:                    Frozen Orbital(s)                        

    Electric Field:                    ---                                      

    Hyperfine or Zeeman Interaction:   ---                                      


 Fragment File(s)
 ----------------
 C:
         file : t21.C
         jobid: ADF 2007.01  RunTime: Oct30-2007 10:42:50
         title: Carbon (SZ)
 H:
         file : t21.H
         jobid: ADF 2007.01  RunTime: Oct30-2007 10:42:49
         title: Hydrogen (SZ)



                                        ************************************
                                        *  R U N   T Y P E : SINGLE POINT  *
                                        ************************************
  



 ===============
 G E O M E T R Y  ***  Planar Molecule  ***
 ===============
  

 ATOMS
 =====                            X Y Z                    CHARGE
                                (Angstrom)             Nucl     +Core       At.Mass
                       --------------------------    ----------------       -------
    1  C              -1.2756    0.6929    0.0000      6.00      6.00       12.0000
    2  C              -1.2110   -0.7420    0.0000      6.00      6.00       12.0000
    3  C               0.0324   -1.4153    0.0000      6.00      6.00       12.0000
    4  C               1.2756   -0.6929    0.0000      6.00      6.00       12.0000
    5  C               1.2110    0.7420    0.0000      6.00      6.00       12.0000
    6  H              -2.1435   -1.3310    0.0000      1.00      1.00        1.0078
    7  H               0.0533   -2.5191    0.0000      1.00      1.00        1.0078
    8  H               2.1435    1.3310    0.0000      1.00      1.00        1.0078
    9  C               2.5714   -1.4570    0.0000      6.00      6.00       12.0000
   10  C               3.8246   -0.9302    0.0000      6.00      6.00       12.0000
   11  H               4.0122    0.1544    0.0000      1.00      1.00        1.0078
   12  H               2.4555   -2.5566    0.0000      1.00      1.00        1.0078
   13  H               4.7148   -1.5780    0.0000      1.00      1.00        1.0078
   14  C              -2.5714    1.4570    0.0000      6.00      6.00       12.0000
   15  H              -2.4555    2.5566    0.0000      1.00      1.00        1.0078
   16  C              -3.8246    0.9302    0.0000      6.00      6.00       12.0000
   17  H              -4.0122   -0.1544    0.0000      1.00      1.00        1.0078
   18  H              -4.7148    1.5780    0.0000      1.00      1.00        1.0078
   19  C              -0.0324    1.4153    0.0000      6.00      6.00       12.0000
   20  H              -0.0533    2.5191    0.0000      1.00      1.00        1.0078


 FRAGMENTS
 =========                                     Atoms in this Fragment     Cart. coord.s (Angstrom)
                                               -------------------------------------------------------
    1  C                                                 1  C           -1.2756    0.6929    0.0000
    2  C                                                 2  C           -1.2110   -0.7420    0.0000
    3  C                                                 3  C            0.0324   -1.4153    0.0000
    4  C                                                 4  C            1.2756   -0.6929    0.0000
    5  C                                                 5  C            1.2110    0.7420    0.0000
    6  C                                                 9  C            2.5714   -1.4570    0.0000
    7  C                                                10  C            3.8246   -0.9302    0.0000
    8  C                                                14  C           -2.5714    1.4570    0.0000
    9  C                                                16  C           -3.8246    0.9302    0.0000
   10  C                                                19  C           -0.0324    1.4153    0.0000
   11  H                                                 6  H           -2.1435   -1.3310    0.0000
   12  H                                                 7  H            0.0533   -2.5191    0.0000
   13  H                                                 8  H            2.1435    1.3310    0.0000
   14  H                                                11  H            4.0122    0.1544    0.0000
   15  H                                                12  H            2.4555   -2.5566    0.0000
   16  H                                                13  H            4.7148   -1.5780    0.0000
   17  H                                                15  H           -2.4555    2.5566    0.0000
   18  H                                                17  H           -4.0122   -0.1544    0.0000
   19  H                                                18  H           -4.7148    1.5780    0.0000
   20  H                                                20  H           -0.0533    2.5191    0.0000


 Interatomic Distance Matrix (Angstrom)
 --------------------------------------

   1)     0.000
   2)     1.436   0.000
   3)     2.481   1.414   0.000
   4)     2.903   2.487   1.438   0.000
   5)     2.487   2.841   2.458   1.436   0.000
   6)     2.202   1.103   2.178   3.478   3.943   0.000
   7)     3.476   2.181   1.104   2.197   3.461   2.498   0.000
   8)     3.478   3.943   3.464   2.202   1.103   5.046   4.381   0.000
   9)     4.407   3.849   2.539   1.504   2.586   4.717   2.733   2.821   0.000
  10)     5.352   5.039   3.823   2.560   3.103   5.982   4.092   2.818   1.359   0.000
  11)     5.315   5.300   4.278   2.865   2.862   6.332   4.777   2.208   2.162   1.101
          0.000
  12)     4.948   4.091   2.678   2.206   3.526   4.760   2.402   3.900   1.106   2.126
          3.126   0.000
  13)     6.406   5.984   4.685   3.551   4.202   6.863   4.756   3.882   2.147   1.101
          1.869   2.462   0.000
  14)     1.504   2.586   3.877   4.407   3.849   2.821   4.764   4.717   5.911   6.827
          6.711   6.433   7.893   0.000
  15)     2.206   3.526   4.687   4.948   4.091   3.900   5.662   4.760   6.433   7.183
          6.899   7.090   8.277   1.106   0.000
  16)     2.560   3.103   4.514   5.352   5.039   2.818   5.190   5.982   6.827   7.872
          7.875   7.183   8.900   1.359   2.126   0.000
  17)     2.865   2.862   4.237   5.315   5.300   2.208   4.703   6.332   6.711   7.875
          8.030   6.899   8.842   2.162   3.126   1.101   0.000
  18)     3.551   4.202   5.612   6.406   5.984   3.882   6.287   6.863   7.893   8.900
          8.842   8.277   9.944   2.147   2.462   1.101   1.869   0.000
  19)     1.438   2.458   2.831   2.481   1.414   3.464   3.935   2.178   3.877   4.514
          4.237   4.687   5.612   2.539   2.678   3.823   4.278   4.685   0.000
  20)     2.197   3.461   3.935   3.476   2.181   4.381   5.039   2.498   4.764   5.190
          4.703   5.662   6.287   2.733   2.402   4.092   4.777   4.756   1.104   0.000

 Min. Distance =    1.1008
 Max. Distance =    9.9437



 =====================================
 S Y M M E T R Y ,   E L E C T R O N S
 =====================================
  
 Symmetry: C(2H)

 Irreducible Representations, including subspecies
 -------------------------------------------------
 A.g
 B.g
 A.u
 B.u


 Configuration of Valence Electrons
 ==================================
 ( determined in the SCF procedure )

 Total:   35 (Spin-A)  + 34 (Spin-B)

 Net Charge: 1 (Nuclei minus Electrons)
 Spin polar: 1 (Spin_A minus Spin_B electrons)

 Aufbau principle for MO occupations will be applied through SCF cycle no.      30
 Thereafter, the program will assign electrons to MOs that are spatially
 similar to the occupied MOs in a "reference" cycle ("KeepOrbitals").
 The reference cycle is always the PREVIOUS cycle: it will evolve with
 the SCF procedure.
1
 ***************************************************************************************************



                                      ****************************************
                                      *  B U I L D : (Fragments, Functions)  *
                                      ****************************************
  



 =======
 S F O s  ***  (Symmetrized Fragment Orbitals)  ***
 =======
  
 SFOs are linear combinations of (valence) Fragment Orbitals (FOs), such that the SFOs transform as the
 irreducible representations of the (molecular) symmetry group. Each SFO is therefore characterized by
 an irrep of the molecule and by a few (or only one) generating FOs.
 The SFOs constitute a symmetry-adapted basis for the Fock matrix. The MO eigenvector coefficients in
 this basis provide a direct interpretation of the MOs in terms of Frontier Orbital Theory.

 The SFOs are combined with auxiliary Core Functions (CFs) to ensure orthogonalization on the (frozen)
 Core Orbitals (COs). The Core-orthogonalized SFOs (CSFOs) constitute the true Fock basis.

 The FOs, and hence also the (C)SFOs are combinations of the elementary basis functions (BAS). The basis
 functions that participate in the description of the SFOs depend on the irrep. The indices of the
 involved functions are printed below for each irrep.
 (The complete list of primitive basis functions is printed in another section)

 Total nr. of (C)SFOs (summation over all irreps) :    60

 NOTE: a (C)SFO that is defined as a combination of more than one FO is usually NOT normalized.



                                       === A.g ===
 Nr. of SFOs :   25
 Cartesian basis functions that participate in this irrep (total number =    50) :
      1    16     2    17     3     4    18    19     6    21
      7    22     8     9    23    24    11    46    12    47
     13    14    48    49    26    36    27    37    28    29
     38    39    31    41    32    42    33    34    43    44
     51    53    52    60    54    58    55    57    56    59

    SFO  (index         Fragment          Generating    Expansion in Fragment Orbitals
  indx  incl.CFs)   Occup   Orb.Energy   FragmentType  Coeff.   Orbital     on Fragment
 --------------------------------------------------------------------------------------
     1       1      2.000      -9.760 au  C             0.71      1 S               1
                        (    -265.587 eV)               0.71      1 S               4
     2       2      2.000      -0.364 au  C             0.71      2 S               1
                        (      -9.897 eV)               0.71      2 S               4
     3       3      0.667      -0.024 au  C             0.71      1 P:x             1
                        (      -0.665 eV)              -0.71      1 P:x             4
     4       4      0.667      -0.024 au  C             0.71      1 P:y             1
                        (      -0.665 eV)              -0.71      1 P:y             4
     5       5      2.000      -9.760 au  C             0.71      1 S               2
                        (    -265.587 eV)               0.71      1 S               5
     6       6      2.000      -0.364 au  C             0.71      2 S               2
                        (      -9.897 eV)               0.71      2 S               5
     7       7      0.667      -0.024 au  C             0.71      1 P:x             2
                        (      -0.665 eV)              -0.71      1 P:x             5
     8       8      0.667      -0.024 au  C             0.71      1 P:y             2
                        (      -0.665 eV)              -0.71      1 P:y             5
     9       9      2.000      -9.760 au  C             0.71      1 S               3
                        (    -265.587 eV)               0.71      1 S              10
    10      10      2.000      -0.364 au  C             0.71      2 S               3
                        (      -9.897 eV)               0.71      2 S              10
    11      11      0.667      -0.024 au  C             0.71      1 P:x             3
                        (      -0.665 eV)              -0.71      1 P:x            10
    12      12      0.667      -0.024 au  C             0.71      1 P:y             3
                        (      -0.665 eV)              -0.71      1 P:y            10
    13      13      2.000      -9.760 au  C             0.71      1 S               6
                        (    -265.587 eV)               0.71      1 S               8
    14      14      2.000      -0.364 au  C             0.71      2 S               6
                        (      -9.897 eV)               0.71      2 S               8
    15      15      0.667      -0.024 au  C             0.71      1 P:x             6
                        (      -0.665 eV)              -0.71      1 P:x             8
    16      16      0.667      -0.024 au  C             0.71      1 P:y             6
                        (      -0.665 eV)              -0.71      1 P:y             8
    17      17      2.000      -9.760 au  C             0.71      1 S               7
                        (    -265.587 eV)               0.71      1 S               9
    18      18      2.000      -0.364 au  C             0.71      2 S               7
                        (      -9.897 eV)               0.71      2 S               9
    19      19      0.667      -0.024 au  C             0.71      1 P:x             7
                        (      -0.665 eV)              -0.71      1 P:x             9
    20      20      0.667      -0.024 au  C             0.71      1 P:y             7
                        (      -0.665 eV)              -0.71      1 P:y             9
    21      21      1.000      -0.122 au  H             0.71      1 S              11
                        (      -3.310 eV)               0.71      1 S              13
    22      22      1.000      -0.122 au  H             0.71      1 S              12
                        (      -3.310 eV)               0.71      1 S              20
    23      23      1.000      -0.122 au  H             0.71      1 S              14
                        (      -3.310 eV)               0.71      1 S              18
    24      24      1.000      -0.122 au  H             0.71      1 S              15
                        (      -3.310 eV)               0.71      1 S              17
    25      25      1.000      -0.122 au  H             0.71      1 S              16
                        (      -3.310 eV)               0.71      1 S              19



                                       === B.g ===
 Nr. of SFOs :    5
 Cartesian basis functions that participate in this irrep (total number =    10) :
      5    20    10    25    15    50    30    40    35    45

    SFO  (index         Fragment          Generating    Expansion in Fragment Orbitals
  indx  incl.CFs)   Occup   Orb.Energy   FragmentType  Coeff.   Orbital     on Fragment
 --------------------------------------------------------------------------------------
     1       1      0.667      -0.024 au  C             0.71      1 P:z             1
                        (      -0.665 eV)              -0.71      1 P:z             4
     2       2      0.667      -0.024 au  C             0.71      1 P:z             2
                        (      -0.665 eV)              -0.71      1 P:z             5
     3       3      0.667      -0.024 au  C             0.71      1 P:z             3
                        (      -0.665 eV)              -0.71      1 P:z            10
     4       4      0.667      -0.024 au  C             0.71      1 P:z             6
                        (      -0.665 eV)              -0.71      1 P:z             8
     5       5      0.667      -0.024 au  C             0.71      1 P:z             7
                        (      -0.665 eV)              -0.71      1 P:z             9



                                       === A.u ===
 Nr. of SFOs :    5
 Cartesian basis functions that participate in this irrep (total number =    10) :
      5    20    10    25    15    50    30    40    35    45

    SFO  (index         Fragment          Generating    Expansion in Fragment Orbitals
  indx  incl.CFs)   Occup   Orb.Energy   FragmentType  Coeff.   Orbital     on Fragment
 --------------------------------------------------------------------------------------
     1       1      0.667      -0.024 au  C             0.71      1 P:z             1
                        (      -0.665 eV)               0.71      1 P:z             4
     2       2      0.667      -0.024 au  C             0.71      1 P:z             2
                        (      -0.665 eV)               0.71      1 P:z             5
     3       3      0.667      -0.024 au  C             0.71      1 P:z             3
                        (      -0.665 eV)               0.71      1 P:z            10
     4       4      0.667      -0.024 au  C             0.71      1 P:z             6
                        (      -0.665 eV)               0.71      1 P:z             8
     5       5      0.667      -0.024 au  C             0.71      1 P:z             7
                        (      -0.665 eV)               0.71      1 P:z             9



                                       === B.u ===
 Nr. of SFOs :   25
 Cartesian basis functions that participate in this irrep (total number =    50) :
      1    16     2    17     3     4    18    19     6    21
      7    22     8     9    23    24    11    46    12    47
     13    14    48    49    26    36    27    37    28    29
     38    39    31    41    32    42    33    34    43    44
     51    53    52    60    54    58    55    57    56    59

    SFO  (index         Fragment          Generating    Expansion in Fragment Orbitals
  indx  incl.CFs)   Occup   Orb.Energy   FragmentType  Coeff.   Orbital     on Fragment
 --------------------------------------------------------------------------------------
     1       1      2.000      -9.760 au  C             0.71      1 S               1
                        (    -265.587 eV)              -0.71      1 S               4
     2       2      2.000      -0.364 au  C             0.71      2 S               1
                        (      -9.897 eV)              -0.71      2 S               4
     3       3      0.667      -0.024 au  C             0.71      1 P:x             1
                        (      -0.665 eV)               0.71      1 P:x             4
     4       4      0.667      -0.024 au  C             0.71      1 P:y             1
                        (      -0.665 eV)               0.71      1 P:y             4
     5       5      2.000      -9.760 au  C             0.71      1 S               2
                        (    -265.587 eV)              -0.71      1 S               5
     6       6      2.000      -0.364 au  C             0.71      2 S               2
                        (      -9.897 eV)              -0.71      2 S               5
     7       7      0.667      -0.024 au  C             0.71      1 P:x             2
                        (      -0.665 eV)               0.71      1 P:x             5
     8       8      0.667      -0.024 au  C             0.71      1 P:y             2
                        (      -0.665 eV)               0.71      1 P:y             5
     9       9      2.000      -9.760 au  C             0.71      1 S               3
                        (    -265.587 eV)              -0.71      1 S              10
    10      10      2.000      -0.364 au  C             0.71      2 S               3
                        (      -9.897 eV)              -0.71      2 S              10
    11      11      0.667      -0.024 au  C             0.71      1 P:x             3
                        (      -0.665 eV)               0.71      1 P:x            10
    12      12      0.667      -0.024 au  C             0.71      1 P:y             3
                        (      -0.665 eV)               0.71      1 P:y            10
    13      13      2.000      -9.760 au  C             0.71      1 S               6
                        (    -265.587 eV)              -0.71      1 S               8
    14      14      2.000      -0.364 au  C             0.71      2 S               6
                        (      -9.897 eV)              -0.71      2 S               8
    15      15      0.667      -0.024 au  C             0.71      1 P:x             6
                        (      -0.665 eV)               0.71      1 P:x             8
    16      16      0.667      -0.024 au  C             0.71      1 P:y             6
                        (      -0.665 eV)               0.71      1 P:y             8
    17      17      2.000      -9.760 au  C             0.71      1 S               7
                        (    -265.587 eV)              -0.71      1 S               9
    18      18      2.000      -0.364 au  C             0.71      2 S               7
                        (      -9.897 eV)              -0.71      2 S               9
    19      19      0.667      -0.024 au  C             0.71      1 P:x             7
                        (      -0.665 eV)               0.71      1 P:x             9
    20      20      0.667      -0.024 au  C             0.71      1 P:y             7
                        (      -0.665 eV)               0.71      1 P:y             9
    21      21      1.000      -0.122 au  H             0.71      1 S              11
                        (      -3.310 eV)              -0.71      1 S              13
    22      22      1.000      -0.122 au  H             0.71      1 S              12
                        (      -3.310 eV)              -0.71      1 S              20
    23      23      1.000      -0.122 au  H             0.71      1 S              14
                        (      -3.310 eV)              -0.71      1 S              18
    24      24      1.000      -0.122 au  H             0.71      1 S              15
                        (      -3.310 eV)              -0.71      1 S              17
    25      25      1.000      -0.122 au  H             0.71      1 S              16
                        (      -3.310 eV)              -0.71      1 S              19



 ================================
 (Slater-type)  F U N C T I O N S  ***  (Basis and Fit)  ***
 ================================
  

 Atom Type    1  (C)
 ==============

 Valence Basis Sets:   3
 -----------------------
   1 S    5.670000
   2 S    1.720000
   2 P    1.720000

 Charge Fitting Sets (for the computation of the Coulomb Potential):  22
 -----------------------------------------------------------------------
   1 S   11.340000
   2 S   13.540000
   2 S    9.660000
   2 S    6.890000
   2 S    4.920000
   3 S    5.130000
   3 S    3.860000
   3 S    2.900000
   3 S    2.180000
   3 S    1.640000
   2 P    7.390000
   2 P    4.710000
   3 P    4.410000
   3 P    3.020000
   3 P    2.060000
   3 D    3.440000
   3 D    2.690000
   3 D    2.100000
   3 D    1.640000
   4 F    5.400000
   4 F    3.550000
   5 G    4.500000

 Atom Type    2  (H)
 ==============

 Valence Basis Sets:   1
 -----------------------
   1 S    1.240000

 Charge Fitting Sets (for the computation of the Coulomb Potential):  11
 -----------------------------------------------------------------------
   1 S    3.160000
   1 S    2.090000
   1 S    1.380000
   2 S    1.500000
   2 P    4.000000
   2 P    2.650000
   2 P    1.750000
   3 D    4.000000
   3 D    2.500000
   4 F    3.000000
   5 G    4.000000


 BAS: List of all Elementary Cartesian Basis Functions
 =====================================================

 The numbering in the list below (to the right of the function characteristics) is referred
 to in print-outs of MO eigenvectors and Mulliken populations in the BAS representation
 (as contrasted to the SFO representation).

 Notes:
 1. The functions are characterized by a polynomial prefactor (powers of x,y,z and r) and
    an exponential decay factor alpha.
 2. Since the basis sets are specific for an atom TYPE, the individual functions occur on
    all atoms of that type.
 3. The word 'Core' in the left margin signals that it is a Core Function (CF) : not a
    degree of freedom in the valence set, but only used to ensure orthogonalization of
    the other valence basis functions on the frozen Core Orbitals.


 (power of) X  Y  Z  R     Alpha  on Atom
            ==========     =====     ==========

 C                                    1    2    3    4    5    6    7    8    9   10
                                  ---------------------------------------------------------------------------
            0  0  0  0     5.670      1    6   11   16   21   26   31   36   41   46
            0  0  0  1     1.720      2    7   12   17   22   27   32   37   42   47
            1  0  0  0     1.720      3    8   13   18   23   28   33   38   43   48
            0  1  0  0     1.720      4    9   14   19   24   29   34   39   44   49
            0  0  1  0     1.720      5   10   15   20   25   30   35   40   45   50

 H                                   11   12   13   14   15   16   17   18   19   20
                                  ---------------------------------------------------------------------------
            0  0  0  0     1.240     51   52   53   54   55   56   57   58   59   60
1
 ***************************************************************************************************



                                              ***********************
                                              *  T E C H N I C A L  *
                                              ***********************
  



 =============================================================
 P A R A L L E L I Z A T I O N  and  V E C T O R I Z A T I O N
 =============================================================
  
 Nr of parallel processes:                                1
 Internal max. (compile-time) nr of processes:          128
 Maximum vector length in NumInt loops:                 128



 ===============
 I O  vs.  C P U  ***  (store numerical data on disk or recalculate)  ***
 ===============
  
 Basis functions:   recalculate when needed
 Fit functions:     recalculate when needed

 IO buffersize (Mb):                                    512.000000



 =====================
 S C F   U P D A T E S
 =====================
  
 Max. nr. of cycles:                                50
 Convergence criterion:                              0.0000010000
   secondary criterion:                              0.0010000000

 Mix parameter (when DIIS does not apply):           0.2000000000


 DIIS (Direct Inversion in Iteration Space)
    Replace damping when SCF Error is below:         0.5000000000
    Apply anyway after SCF cycle:
                                                     5
    (Max.) nr. of expansion vectors:                10

    Upperbound on expansion coefficients:            5.0000000000
    (when exceeded, IterationSpace is re-built)
    2nd Upperbound on coefficients:                 25.0000000000
    (when exceeded, simple damping will be used)
 Automatic ElectronSmearing (in case of problematic SCF convergence) disabled



 =================
 P R E C I S I O N  ***  (General: NumInt, NeglectFunctionTails, ...)  ***
 =================
  

 NumInt:           Target precision:                 4.0000000000
 -------           Initial precision:                4.0000000000
                   Min. precision (optimization):    4.0000000000

 Neglect Functions:          Basis functions:        0.1000000000E-05
 ------------------          Fit functions:          0.1000000000E-05



 ===========================
 L I N E A R   S C A L I N G
 ===========================
  

 Cut-off radii density fit:                        0.1000000000E-07
 Overlap cut-off criterion AO matrix elements:     0.1000000000E-05
 Cut-offs for Coulomb potential and fitted density:0.1000000000E-07
 Cut-off criterion for Coulomb multipole terms:    0.1000000000E-07
1
 ***************************************************************************************************



                                            ***************************
                                            *  C O M P U T A T I O N  *
                                            ***************************
  

 Number of elements of the density matrix on this node (used, total):       980      1830



 ====================================================
 Numerical Integration : Voronoi Polyhedra (Te Velde)  ***  (parameters, tests)  ***
 ====================================================
  
 General Accuracy Parameter :                          4.00

 Symmetry used in the points section:  C(2H) 


 Summary of the Symmetry Unique Points:
 --------------------------------------
    Nr. of used Symmetry Operators                     4

    Points in the Atomic Spheres                    2010
    Points in the Atomic Polyhedra                 13148
    Points in the Outer Region                      3020
    ----------------------------------------------------
    Total                                          18178

    Sum of Weights                                 71933.260558

 Total nr. of points:      18178
 Nr. of blocks:              143
 Block length:               128
 Nr. of dummy points:        126


 Test of Precision of the Numerical Integration Grid
 ===================================================

 Integral of the Total Core Density:                   0.00000000000000



 =====
 S C F
 =====
  

 CYCLE    1
 ***** SPIN 1 *****
 orbitals (Q,E):
 ---------------
 A.g :6...25         ( 1.00    -0.7173)  ( 1.00    -0.6430)  ( 1.00    -0.5182)  ( 1.00    -0.4892)
                     ( 1.00    -0.4461)  ( 1.00    -0.3979)  ( 1.00    -0.3450)  ( 1.00    -0.2985)
                     ( 1.00    -0.2423)  ( 1.00    -0.2368)  ( 0.00     0.2791)  ( 0.00     0.3228)
                     ( 0.00     0.3460)  ( 0.00     0.3713)  ( 0.00     0.4059)  ( 0.00     0.4538)
                     ( 0.00     0.5009)  ( 0.00     0.5561)  ( 0.00     0.5930)  ( 0.00     0.6843)
 B.g :1...5          ( 1.00    -0.2201)  ( 1.00    -0.1604)  ( 1.00    -0.1245)  ( 0.00     0.0638)
                     ( 0.00     0.2144)
 A.u :1...5          ( 1.00    -0.2710)  ( 1.00    -0.1780)  ( 0.00     0.0052)  ( 0.00     0.0538)
                     ( 0.00     0.1342)
 B.u :6...25         ( 1.00    -0.6708)  ( 1.00    -0.6198)  ( 1.00    -0.5920)  ( 1.00    -0.4683)
                     ( 1.00    -0.3815)  ( 1.00    -0.3542)  ( 1.00    -0.3407)  ( 1.00    -0.3181)
                     ( 1.00    -0.2975)  ( 1.00    -0.2623)  ( 0.00     0.2869)  ( 0.00     0.3224)
                     ( 0.00     0.3485)  ( 0.00     0.3656)  ( 0.00     0.3835)  ( 0.00     0.4691)
                     ( 0.00     0.5174)  ( 0.00     0.5426)  ( 0.00     0.6213)  ( 0.00     0.7013)
 ***** SPIN 2 *****
 orbitals (Q,E):
 ---------------
 A.g :6...25         ( 1.00    -0.7173)  ( 1.00    -0.6430)  ( 1.00    -0.5182)  ( 1.00    -0.4892)
                     ( 1.00    -0.4461)  ( 1.00    -0.3979)  ( 1.00    -0.3450)  ( 1.00    -0.2985)
                     ( 1.00    -0.2423)  ( 1.00    -0.2368)  ( 0.00     0.2791)  ( 0.00     0.3228)
                     ( 0.00     0.3460)  ( 0.00     0.3713)  ( 0.00     0.4059)  ( 0.00     0.4538)
                     ( 0.00     0.5009)  ( 0.00     0.5561)  ( 0.00     0.5930)  ( 0.00     0.6843)
 B.g :1...5          ( 1.00    -0.2201)  ( 1.00    -0.1604)  ( 0.00    -0.1245)  ( 0.00     0.0638)
                     ( 0.00     0.2144)
 A.u :1...5          ( 1.00    -0.2710)  ( 1.00    -0.1780)  ( 0.00     0.0052)  ( 0.00     0.0538)
                     ( 0.00     0.1342)
 B.u :6...25         ( 1.00    -0.6708)  ( 1.00    -0.6198)  ( 1.00    -0.5920)  ( 1.00    -0.4683)
                     ( 1.00    -0.3815)  ( 1.00    -0.3542)  ( 1.00    -0.3407)  ( 1.00    -0.3181)
                     ( 1.00    -0.2975)  ( 1.00    -0.2623)  ( 0.00     0.2869)  ( 0.00     0.3224)
                     ( 0.00     0.3485)  ( 0.00     0.3656)  ( 0.00     0.3835)  ( 0.00     0.4691)
                     ( 0.00     0.5174)  ( 0.00     0.5426)  ( 0.00     0.6213)  ( 0.00     0.7013)
  
 Spin polar: 1 (Spin_A minus Spin_B electrons)

 CYCLE    2
 d-Pmat  mean:  0.62E-02
 imax=     20:  0.20E-01
 d-Pmat  mean:  0.60E-02
 imax=     20:  0.29E-01
 ***** SPIN 1 *****
 orbitals (Q,E):
 ---------------
 A.g :6...16         ( 1.00    -0.7689)  ( 1.00    -0.6853)  ( 1.00    -0.5632)  ( 1.00    -0.5360)
                     ( 1.00    -0.4891)  ( 1.00    -0.4398)  ( 1.00    -0.3835)  ( 1.00    -0.3375)
                     ( 1.00    -0.2898)  ( 1.00    -0.2832)  ( 0.00     0.2356)
 B.g :1...4          ( 1.00    -0.2686)  ( 1.00    -0.2066)  ( 1.00    -0.1729)  ( 0.00     0.0200)
 A.u :1...3          ( 1.00    -0.3212)  ( 1.00    -0.2205)  ( 0.00    -0.0433)
 B.u :6...16         ( 1.00    -0.7183)  ( 1.00    -0.6656)  ( 1.00    -0.6394)  ( 1.00    -0.5092)
                     ( 1.00    -0.4236)  ( 1.00    -0.3967)  ( 1.00    -0.3857)  ( 1.00    -0.3619)
                     ( 1.00    -0.3436)  ( 1.00    -0.3047)  ( 0.00     0.2451)
 ***** SPIN 2 *****
 orbitals (Q,E):
 ---------------
 A.g :6...16         ( 1.00    -0.7679)  ( 1.00    -0.6843)  ( 1.00    -0.5625)  ( 1.00    -0.5354)
                     ( 1.00    -0.4886)  ( 1.00    -0.4395)  ( 1.00    -0.3831)  ( 1.00    -0.3372)
                     ( 1.00    -0.2894)  ( 1.00    -0.2828)  ( 0.00     0.2362)
 B.g :1...3          ( 1.00    -0.2659)  ( 1.00    -0.2053)  ( 0.00    -0.1694)
[...]
                                    7.30%     1 S              -3.310  1.00    15 H
                                    5.83%     1 P:x            -0.665  0.67     6 C
                                    5.47%     1 P:x            -0.665  0.67     2 C
                                    4.11%     1 P:y            -0.665  0.67     7 C
                                    3.34%     1 S              -3.310  1.00    11 H
                                    1.37%     1 P:x            -0.665  0.67     3 C
     -13.916  1.00    13 B.u       37.67%     1 P:y            -0.665  0.67     3 C
                                   19.32%     1 S              -3.310  1.00    12 H
                                   18.07%     1 P:x            -0.665  0.67     2 C
                                   10.94%     1 S              -3.310  1.00    11 H
                                    4.36%     1 P:y            -0.665  0.67     2 C
                                    3.83%     1 P:x            -0.665  0.67     1 C
                                    1.50%     1 P:x            -0.665  0.67     6 C
                                    1.37%     1 P:y            -0.665  0.67     7 C
     -13.478  1.00    14 B.u       23.61%     1 P:x            -0.665  0.67     7 C
                                   14.37%     1 P:x            -0.665  0.67     3 C
                                   13.81%     1 P:x            -0.665  0.67     6 C
                                   11.21%     1 P:x            -0.665  0.67     1 C
                                    9.28%     1 S              -3.310  1.00    16 H
                                    9.22%     1 P:x            -0.665  0.67     2 C
                                    5.83%     1 P:y            -0.665  0.67     6 C
                                    5.39%     1 S              -3.310  1.00    15 H
                                    3.16%     1 P:y            -0.665  0.67     2 C
                                    1.91%     1 P:y            -0.665  0.67     1 C
                                    1.20%     1 S              -3.310  1.00    11 H
     -13.185  1.00    13 A.g       24.69%     1 P:y            -0.665  0.67     7 C
                                   16.43%     1 S              -3.310  1.00    14 H
                                    9.23%     1 P:y            -0.665  0.67     3 C
                                    7.99%     1 P:x            -0.665  0.67     6 C
                                    7.80%     1 S              -3.310  1.00    15 H
                                    7.23%     1 S              -3.310  1.00    12 H
                                    5.54%     1 P:y            -0.665  0.67     6 C
                                    4.92%     1 P:x            -0.665  0.67     2 C
                                    3.89%     1 S              -3.310  1.00    16 H
                                    3.41%     1 P:y            -0.665  0.67     2 C
                                    3.25%     1 P:x            -0.665  0.67     3 C
                                    2.36%     1 P:y            -0.665  0.67     1 C
                                    1.27%     2 S              -9.897  2.00     6 C
     -12.690  1.00     1 A.u       35.58%     1 P:z            -0.665  0.67     1 C
                                   26.43%     1 P:z            -0.665  0.67     2 C
                                   26.31%     1 P:z            -0.665  0.67     3 C
                                    9.53%     1 P:z            -0.665  0.67     6 C
                                    2.15%     1 P:z            -0.665  0.67     7 C
     -12.317  1.00    15 B.u       18.65%     1 P:y            -0.665  0.67     7 C
                                   18.25%     1 P:y            -0.665  0.67     6 C
                                   16.33%     1 S              -3.310  1.00    15 H
                                   13.81%     1 S              -3.310  1.00    14 H
                                   10.82%     1 S              -3.310  1.00    16 H
                                    7.56%     1 P:x            -0.665  0.67     1 C
                                    5.39%     1 P:y            -0.665  0.67     1 C
                                    4.01%     1 P:y            -0.665  0.67     2 C
                                    1.23%     1 P:y            -0.665  0.67     3 C
                                    1.13%     1 P:x            -0.665  0.67     7 C
     -12.067  1.00    14 A.g       19.77%     1 P:x            -0.665  0.67     1 C
                                   19.75%     1 P:x            -0.665  0.67     3 C
                                   15.16%     1 P:x            -0.665  0.67     2 C
                                   12.93%     1 S              -3.310  1.00    11 H
                                    9.61%     1 P:x            -0.665  0.67     6 C
                                    5.87%     1 P:x            -0.665  0.67     7 C
                                    5.82%     1 S              -3.310  1.00    16 H
                                    5.21%     1 P:y            -0.665  0.67     6 C
                                    1.93%     1 S              -3.310  1.00    15 H
                                    1.47%     1 S              -3.310  1.00    14 H
                                    1.14%     1 P:y            -0.665  0.67     7 C
     -11.807  1.00    15 A.g       20.11%     1 P:y            -0.665  0.67     1 C
                                   19.05%     1 P:y            -0.665  0.67     2 C
                                   14.65%     1 S              -3.310  1.00    12 H
                                   13.27%     1 P:y            -0.665  0.67     3 C
                                    8.06%     1 S              -3.310  1.00    15 H
                                    7.44%     1 P:y            -0.665  0.67     6 C
                                    5.87%     1 S              -3.310  1.00    11 H
                                    4.76%     1 P:y            -0.665  0.67     7 C
                                    3.59%     1 S              -3.310  1.00    14 H
                                    2.02%     1 S              -3.310  1.00    16 H
     -11.233  1.00     1 B.g       37.33%     1 P:z            -0.665  0.67     1 C
                                   37.13%     1 P:z            -0.665  0.67     6 C
                                   14.92%     1 P:z            -0.665  0.67     7 C
                                    5.55%     1 P:z            -0.665  0.67     2 C
                                    5.08%     1 P:z            -0.665  0.67     3 C
      -9.832  1.00     2 A.u       44.82%     1 P:z            -0.665  0.67     6 C
                                   38.38%     1 P:z            -0.665  0.67     7 C
                                    8.51%     1 P:z            -0.665  0.67     3 C
                                    8.29%     1 P:z            -0.665  0.67     2 C
      -9.611  1.00     2 B.g       50.45%     1 P:z            -0.665  0.67     3 C
                                   49.52%     1 P:z            -0.665  0.67     2 C
      -8.529  0.00     3 B.g       36.94%     1 P:z            -0.665  0.67     7 C
                                   27.97%     1 P:z            -0.665  0.67     1 C
                                   14.87%     1 P:z            -0.665  0.67     6 C
                                   10.60%     1 P:z            -0.665  0.67     2 C
                                    9.62%     1 P:z            -0.665  0.67     3 C
      -5.033  0.00     3 A.u       37.40%     1 P:z            -0.665  0.67     7 C
                                   32.77%     1 P:z            -0.665  0.67     1 C
                                   13.28%     1 P:z            -0.665  0.67     2 C
                                    8.68%     1 P:z            -0.665  0.67     3 C
                                    7.87%     1 P:z            -0.665  0.67     6 C
      -3.880  0.00     4 A.u       52.99%     1 P:z            -0.665  0.67     3 C
                                   46.78%     1 P:z            -0.665  0.67     2 C
      -3.336  0.00     4 B.g       44.69%     1 P:z            -0.665  0.67     7 C
                                   37.56%     1 P:z            -0.665  0.67     6 C
                                    9.22%     1 P:z            -0.665  0.67     3 C
                                    8.41%     1 P:z            -0.665  0.67     2 C
      -1.713  0.00     5 A.u       37.77%     1 P:z            -0.665  0.67     6 C
                                   31.45%     1 P:z            -0.665  0.67     1 C
                                   22.05%     1 P:z            -0.665  0.67     7 C
                                    5.22%     1 P:z            -0.665  0.67     2 C
                                    3.51%     1 P:z            -0.665  0.67     3 C



 ===============================================================================
 Electrostatic potential at the Nuclei due to valence electrons and other nuclei
 ===============================================================================
  
         Atom                  Potential
         ----                  ---------
     1)   C                  14.49961301
     2)   C                  14.52858497
     3)   C                  14.53019906
     4)   C                  14.49961301
     5)   C                  14.52858497
     6)   H                   0.94999233
     7)   H                   0.95281130
     8)   H                   0.94999233
     9)   C                  14.52541562
    10)   C                  14.53405969
    11)   H                   0.95016677
    12)   H                   0.95697995
    13)   H                   0.95030312
    14)   C                  14.52541562
    15)   H                   0.95697995
    16)   C                  14.53405969
    17)   H                   0.95016677
    18)   H                   0.95030312
    19)   C                  14.53019906
    20)   H                   0.95281130
 
 
 ========================
 No memory problems found
 ========================
 
 Maximum number of active allocate calls:        1064
 
 *******************************************************************************

                             A D F   E X I T
 NORMAL TERMINATION



 =================
 Timing Statistics
 =================
  
 Total Used :                     CPU=       32.22      System=        0.95     Elapsed=       34.31

 Calls  Section                     ( Mean, Percentage )
 ---------------------------------------------------------------------------------------------------
     3  ><      ................      0.00    0.01             0.00    0.21             0.00    0.02
     1  INIT    ................      0.01    0.03             0.00    0.21             0.02    0.07
     1  GEOMET  ................      0.05    0.15             0.36   37.45             0.42    1.23
     1  FRAGM   ................      0.08    0.24             0.01    1.03             0.29    0.83
     1  INPUTA  ................      0.00    0.00             0.00    0.00             0.00    0.00
     1  ATDEN   ................      0.01    0.04             0.00    0.31             0.02    0.04
     1  MAINSY  ................      0.03    0.09             0.01    0.62             0.08    0.22
     1  SYMFIT  ................      0.01    0.04             0.00    0.00             0.01    0.04
     1  CORORT  ................      0.00    0.00             0.00    0.00             0.00    0.00
     1  SYMORB  ................      0.01    0.04             0.00    0.00             0.01    0.04
     1  FITINT  ................      1.84    5.72             0.00    0.21             1.85    5.39
     1  CLSMAT  ................      0.01    0.04             0.00    0.10             0.01    0.04
     1  ORTHON  ................      0.03    0.09             0.00    0.10             0.03    0.09
     1  ETALOW  ................      0.00    0.01             0.00    0.00             0.00    0.01
     1  GENPT   ................      1.55    4.82             0.24   25.82             1.81    5.28
     1  PTBAS   ................      0.14    0.42             0.00    0.21             0.14    0.41
    14  FOCKY   ................      1.48   64.49             0.00    6.28             1.50   61.02
    14  FOCKTR  ................      0.00    0.15             0.00    0.00             0.00    0.14
    14  FOCKNM  ................      0.00    0.01             0.00    0.00             0.00    0.00
    14  SDIIS   ................      0.01    0.23             0.00    0.21             0.01    0.23
    14  EMERGE  ................      0.03    1.19             0.00    1.65             0.05    2.03
     1  COREPS  ................      1.46    4.54             0.00    0.21             1.48    4.30
     1  TOTEN   ................      5.43   16.84             0.16   17.18             5.67   16.51
     1  POPAN   ................      0.02    0.05             0.01    0.82             0.07    0.21
     1  DEBYE   ................      0.08    0.24             0.00    0.00             0.08    0.22
     1  INPUTE  ................      0.00    0.01             0.00    0.00             0.01    0.02
     1  SYMORE  ................      0.00    0.02             0.00    0.00             0.00    0.01
     4  METS    ................      0.00    0.02             0.00    0.00             0.00    0.02
     1  CETS    ................      0.01    0.04             0.01    0.72             0.10    0.31
     1  ELNRGY  ................      0.10    0.31             0.02    2.37             0.12    0.36
     1  POPUL   ................      0.03    0.08             0.04    3.91             0.28    0.82
     1  QMPOT   ................      0.00    0.01             0.00    0.00             0.01    0.02
     1  EXIT PROCEDURE .........      0.01    0.04             0.00    0.41             0.02    0.06


 Currently Open Files (EXIT00)
 ====================

 Unit    Access Format  Status   Type       Ident (file)
 -------------------------------------------------------
   3      SEQ    FORM   TRANSP  NORMAL      LOGFILE
                                          ( logfile )


 Buffered I/O statistics
 =======================
 Memory available:                    536870912
 Number of records fitting in memory:    129055
 Input :   0.2% of                        65257  *4k bytes
 Output:   3.9% of                         9385  *4k bytes
 Records from serial files evicted:           0
                    others evicted:           0
 Hash table lookups:     214396 with          0 conflicts (  0.00%)

 ***************************************************************************************************
 (LOGFILE)
 <Oct30-2007> <10:42:49>  ADF 2007.01  RunTime: Oct30-2007 10:42:49
 <Oct30-2007> <10:42:49>  Hydrogen (SZ)
 <Oct30-2007> <10:42:49>  RunType   : CREATE
 <Oct30-2007> <10:42:49>  Net Charge: 0 (Nuclei minus Electrons)
 <Oct30-2007> <10:42:49>  Symmetry  : ATOM
 <Oct30-2007> <10:42:49>  >>>> CORORT
 <Oct30-2007> <10:42:49>  >>>> FITINT
 <Oct30-2007> <10:42:49>  >>>> CLSMAT
 <Oct30-2007> <10:42:49>  >>>> ORTHON
 <Oct30-2007> <10:42:49>  >>>> GENPT
 <Oct30-2007> <10:42:49>  Acc.Num.Int.=  10.000
 <Oct30-2007> <10:42:49>  Block Length=  34
 <Oct30-2007> <10:42:49>  >>>> PTBAS
 <Oct30-2007> <10:42:49>  >>>> CYCLE
 <Oct30-2007> <10:42:49>    1
 <Oct30-2007> <10:42:49>    2  ErrMat   0.00000000  MaxEl  0.00000000
 <Oct30-2007> <10:42:49>  SCF converged
 <Oct30-2007> <10:42:49>    3  ErrMat   0.00000000  MaxEl  0.00000000
 <Oct30-2007> <10:42:49>   Solutions with partially occupied orbitals may not be
 <Oct30-2007> <10:42:49>   lowest in energy. You might consider lowering the
 <Oct30-2007> <10:42:49>   symmetry in the input and explicitly specifying integer
 <Oct30-2007> <10:42:49>   occupations. In that case always check that you obtain
 <Oct30-2007> <10:42:49>   an aufbau solution.
 <Oct30-2007> <10:42:49>  >>>> COREPS
 <Oct30-2007> <10:42:49>  >>>> POPAN
 <Oct30-2007> <10:42:49>  >>>> DEBYE
 <Oct30-2007> <10:42:49>  NORMAL TERMINATION
 <Oct30-2007> <10:42:49>  END
 <Oct30-2007> <10:42:50>  ADF 2007.01  RunTime: Oct30-2007 10:42:50
 <Oct30-2007> <10:42:50>  Carbon (SZ)
 <Oct30-2007> <10:42:50>  RunType   : CREATE
 <Oct30-2007> <10:42:50>  Net Charge: 0 (Nuclei minus Electrons)
 <Oct30-2007> <10:42:50>  Symmetry  : ATOM
 <Oct30-2007> <10:42:50>  >>>> CORORT
 <Oct30-2007> <10:42:50>  >>>> FITINT
 <Oct30-2007> <10:42:50>  >>>> CLSMAT
 <Oct30-2007> <10:42:50>  >>>> ORTHON
 <Oct30-2007> <10:42:50>  >>>> GENPT
 <Oct30-2007> <10:42:50>  Acc.Num.Int.=  10.000
 <Oct30-2007> <10:42:50>  Block Length=  48
 <Oct30-2007> <10:42:50>  >>>> PTBAS
 <Oct30-2007> <10:42:50>  >>>> CYCLE
 <Oct30-2007> <10:42:50>    1
 <Oct30-2007> <10:42:50>    2  ErrMat   0.00000000  MaxEl  0.00000000
 <Oct30-2007> <10:42:50>  SCF converged
 <Oct30-2007> <10:42:50>    3  ErrMat   0.00000000  MaxEl  0.00000000
 <Oct30-2007> <10:42:50>   Solutions with partially occupied orbitals may not be
 <Oct30-2007> <10:42:50>   lowest in energy. You might consider lowering the
 <Oct30-2007> <10:42:50>   symmetry in the input and explicitly specifying integer
 <Oct30-2007> <10:42:50>   occupations. In that case always check that you obtain
 <Oct30-2007> <10:42:50>   an aufbau solution.
 <Oct30-2007> <10:42:50>  >>>> COREPS
 <Oct30-2007> <10:42:50>  >>>> POPAN
 <Oct30-2007> <10:42:50>  >>>> DEBYE
 <Oct30-2007> <10:42:50>  NORMAL TERMINATION
 <Oct30-2007> <10:42:50>  END
 <Oct30-2007> <10:42:51>  ADF 2007.01  RunTime: Oct30-2007 10:42:51
 <Oct30-2007> <10:42:51>  1,4-divinyl-benzene, SZ, BLYP
 <Oct30-2007> <10:42:51>  RunType   : SINGLE POINT
 <Oct30-2007> <10:42:51>  Net Charge: 1 (Nuclei minus Electrons)
 <Oct30-2007> <10:42:51>  Spin polar: 1 (Spin_A minus Spin_B electrons)
 <Oct30-2007> <10:42:51>  Symmetry  : C(2H)
 <Oct30-2007> <10:42:51>  >>>> FRAGM
 <Oct30-2007> <10:42:51>  >>>> CORORT
 <Oct30-2007> <10:42:52>  >>>> FITINT
 <Oct30-2007> <10:42:53>  >>>> CLSMAT
 <Oct30-2007> <10:42:53>  >>>> ORTHON
 <Oct30-2007> <10:42:53>  >>>> GENPT
 <Oct30-2007> <10:42:53>  Acc.Num.Int.=   4.000
 <Oct30-2007> <10:42:55>  Block Length= 128
 <Oct30-2007> <10:42:55>  >>>> PTBAS
 <Oct30-2007> <10:42:55>  >>>> CYCLE
 <Oct30-2007> <10:42:56>    1
 <Oct30-2007> <10:42:58>    2  ErrMat   0.18451148  MaxEl  0.02709681
 <Oct30-2007> <10:42:59>    3  ErrMat   0.10346641  MaxEl  0.01506674
 <Oct30-2007> <10:43:01>    4  ErrMat   0.10744484  MaxEl -0.02896415
 <Oct30-2007> <10:43:03>    5  ErrMat   0.02642464  MaxEl  0.00774620
 <Oct30-2007> <10:43:04>    6  ErrMat   0.00972560  MaxEl -0.00316964
 <Oct30-2007> <10:43:06>    7  ErrMat   0.00457834  MaxEl -0.00095830
 <Oct30-2007> <10:43:07>    8  ErrMat   0.00162522  MaxEl -0.00043198
 <Oct30-2007> <10:43:09>    9  ErrMat   0.00164160  MaxEl -0.00031087
 <Oct30-2007> <10:43:10>   10  ErrMat   0.00008843  MaxEl -0.00002132
 <Oct30-2007> <10:43:12>   11  ErrMat   0.00002248  MaxEl  0.00000649
 <Oct30-2007> <10:43:14>   12  ErrMat   0.00000505  MaxEl -0.00000146
 <Oct30-2007> <10:43:15>   13  ErrMat   0.00000132  MaxEl  0.00000027
 <Oct30-2007> <10:43:15>  SCF converged
 <Oct30-2007> <10:43:17>   14  ErrMat   0.00000057  MaxEl  0.00000020
 <Oct30-2007> <10:43:17>  >>>> COREPS
 <Oct30-2007> <10:43:19>  >>>> TOTEN
 <Oct30-2007> <10:43:24>  >>>> POPAN
 <Oct30-2007> <10:43:24>  >>>> DEBYE
 <Oct30-2007> <10:43:24>  >>>> AMETS
 <Oct30-2007> <10:43:25>   Bond Energy LDA      -5.46744728 a.u.
 <Oct30-2007> <10:43:25>   Bond Energy LDA    -148.77681032 eV
 <Oct30-2007> <10:43:25>           + GGA-X      -4.62661479 a.u.
 <Oct30-2007> <10:43:25>           + GGA-X    -125.89659403 eV
 <Oct30-2007> <10:43:25>          + GGA-XC      -4.94633095 a.u.
 <Oct30-2007> <10:43:25>          + GGA-XC    -134.59651349 eV
 <Oct30-2007> <10:43:25>  >>>> POPUL
 <Oct30-2007> <10:43:25>  NORMAL TERMINATION
 <Oct30-2007> <10:43:25>  END
