

(INPUT FILE)
Create H  file=/usr/local/adf2007.01/atomicdata/SZ/H
XC
 GGA Blyp
End
End Input

 *******************************************************************************
 *                                                                             *
 *  -------------------------------------                                      *
 *   Amsterdam Density Functional  (ADF)         2007.01   August 20, 2007     *
 *  -------------------------------------                                      *
 *                                               Build 200708191746            *
 *                                                                             *
 *                                                                             *
 *                              =================                              *
 *                              |               |                              *
 *                              |     A D F     |                              *
 *                              |               |                              *
 *                              =================                              *
 *                                                                             *
 *                                                                             *
 *   Online information and documentation:  http://www.scm.com                 *
 *   E-mail:  support@scm.com   info@scm.com                                   *
 *                                                                             *
 *   Scientific publications using ADF results must be properly referenced     *
 *   See the User Manuals (or the web site) for recommended citations          *
 *   The terms and conditions of the End User License Agreement apply to       *
 *   the use of ADF, http://www.scm.com/Sales/LicAgreement.html                *
 *                                                                             *
 ******************************  hp_itan2_linux  *******************************
 
 ADF 2007.01  RunTime: Oct30-2007 10:45:34
 Hydrogen (SZ)



 ===========================
 A T T A C H E D   F I L E S
 ===========================
  
 CREATE - Data File:    /usr/local/adf2007.01/atomicdata/SZ/H
                        Hydrogen (SZ)



 ===============================
 M O D E L   P A R A M E T E R S
 ===============================
  
 DENSITY FUNCTIONAL POTENTIAL (scf)
    LDA:                               Exchange only                           == Not Default ==
    Gradient Corrections:              Becke88 LYP                             == Not Default ==

 SPIN  (restricted / unrestr.)
    Molecule:                          Restricted                               

 OTHER ASPECTS
    Relativistic Corrections:          ---                                      
    Core Treatment:                    Frozen Orbital(s)                        

    Electric Field:                    ---                                      

    Hyperfine or Zeeman Interaction:   ---                                      



 =====================================
 S Y M M E T R Y ,   E L E C T R O N S
 =====================================
  
 Symmetry: ATOM

 Irreducible Representations, including subspecies
 -------------------------------------------------
 S
 P:x  P:y  P:z
 D:z2  D:x2-y2  D:xy  D:xz  D:yz
 F:z3  F:z  F:xyz  F:z2x  F:z2y  F:x  F:y


 Configuration of Valence Electrons
 ==================================

          Occupation Numbers
          -------------------------------------------------
 S        1
 P        0
 D        0
 F        0
          -------------------------------------------------

 Total:   1

 Net Charge: 0 (Nuclei minus Electrons)

 Preset values for MO occupations will be applied through SCF cycle no. 1000000
 Thereafter, the program will assign electrons to MOs that are spatially
 similar to the occupied MOs in a "reference" cycle ("KeepOrbitals").
 The reference cycle is always the PREVIOUS cycle: it will evolve with
 the SCF procedure.



 ================================
 (Slater-type)  F U N C T I O N S  ***  (Basis and Fit)  ***
 ================================
  

 Atom Type    1  (H)
 ==============

 Valence Basis Sets:   1
 -----------------------
   1 S    1.240000

 Charge Fitting Sets (for the computation of the Coulomb Potential):  11
 -----------------------------------------------------------------------
   1 S    3.160000
   1 S    2.090000
   1 S    1.380000
   2 S    1.500000
   2 P    4.000000
   2 P    2.650000
   2 P    1.750000
   3 D    4.000000
   3 D    2.500000
   4 F    3.000000
   5 G    4.000000


 BAS: List of all Elementary Cartesian Basis Functions
 =====================================================

 The numbering in the list below (to the right of the function characteristics) is referred
 to in print-outs of MO eigenvectors and Mulliken populations in the BAS representation
 (as contrasted to the SFO representation).

 Notes:
 1. The functions are characterized by a polynomial prefactor (powers of x,y,z and r) and
    an exponential decay factor alpha.
 2. Since the basis sets are specific for an atom TYPE, the individual functions occur on
    all atoms of that type.
 3. The word 'Core' in the left margin signals that it is a Core Function (CF) : not a
    degree of freedom in the valence set, but only used to ensure orthogonalization of
    the other valence basis functions on the frozen Core Orbitals.


 (power of) X  Y  Z  R     Alpha  on Atom
            ==========     =====     ==========

 H                                    1
                                  ---------------------------------------------------------------------------
            0  0  0  0     1.240      1


 BAS: List of all Elementary Cartesian Basis Functions
 =====================================================

 The numbering in the list below (to the right of the function characteristics) is referred
 to in print-outs of MO eigenvectors and Mulliken populations in the BAS representation
 (as contrasted to the SFO representation).

 Notes:
 1. The functions are characterized by a polynomial prefactor (powers of x,y,z and r) and
    an exponential decay factor alpha.
 2. Since the basis sets are specific for an atom TYPE, the individual functions occur on
    all atoms of that type.
 3. The word 'Core' in the left margin signals that it is a Core Function (CF) : not a
    degree of freedom in the valence set, but only used to ensure orthogonalization of
    the other valence basis functions on the frozen Core Orbitals.


 (power of) X  Y  Z  R     Alpha  on Atom
            ==========     =====     ==========

 H                                    1
                                  ---------------------------------------------------------------------------
            0  0  0  0     1.240      1
1
 ***************************************************************************************************



                                              ***********************
                                              *  T E C H N I C A L  *
                                              ***********************
  



 =============================================================
 P A R A L L E L I Z A T I O N  and  V E C T O R I Z A T I O N
 =============================================================
  
 Nr of parallel processes:                                1
 Internal max. (compile-time) nr of processes:          128
 Maximum vector length in NumInt loops:                 128



 ===============
 I O  vs.  C P U  ***  (store numerical data on disk or recalculate)  ***
 ===============
  
 Basis functions:   recalculate when needed
 Fit functions:     recalculate when needed

 IO buffersize (Mb):                                    512.000000



 =====================
 S C F   U P D A T E S
 =====================
  
 Max. nr. of cycles:                               100
 Convergence criterion:                              0.0000000100
   secondary criterion:                              0.0000000100

 Mix parameter (when DIIS does not apply):           0.2000000000
 Special mix parameter for the first cycle:          1.0000000000


 DIIS (Direct Inversion in Iteration Space)
    Replace damping when SCF Error is below:         0.5000000000
    Apply anyway after SCF cycle:
                                                     5
    (Max.) nr. of expansion vectors:                10

    Upperbound on expansion coefficients:            5.0000000000
    (when exceeded, IterationSpace is re-built)
    2nd Upperbound on coefficients:                 25.0000000000
    (when exceeded, simple damping will be used)
 Automatic ElectronSmearing (in case of problematic SCF convergence) disabled



 =================
 P R E C I S I O N  ***  (General: NumInt, NeglectFunctionTails, ...)  ***
 =================
  

 NumInt:           Target precision:                10.0000000000
 -------           Initial precision:               10.0000000000
                   Min. precision (optimization):   10.0000000000

 Neglect Functions:          Basis functions:        0.1000000000E-11
 ------------------          Fit functions:          0.1000000000E-11



 ===========================
 L I N E A R   S C A L I N G
 ===========================
  

 Cut-off radii density fit:                        0.1000000000E-13
 Overlap cut-off criterion AO matrix elements:     0.1000000000E-11
 Cut-offs for Coulomb potential and fitted density:0.1000000000E-13
 Cut-off criterion for Coulomb multipole terms:    0.1000000000E-13
1
 ***************************************************************************************************



                                            ***************************
                                            *  C O M P U T A T I O N  *
                                            ***************************
  

 Number of elements of the density matrix on this node (used, total):         1         1



 ====================================================
 Numerical Integration : Voronoi Polyhedra (Te Velde)  ***  (parameters, tests)  ***
 ====================================================
  
 General Accuracy Parameter :                         10.00

 Symmetry used in the points section:  ATOM  


 Summary of the Symmetry Unique Points:
 --------------------------------------
    Nr. of used Symmetry Operators                     1

    Points in the Atomic Spheres                      34
    Points in the Atomic Polyhedra                     0
    Points in the Outer Region                         0
    ----------------------------------------------------
    Total                                             34

    Sum of Weights                                 33854.777883

 Total nr. of points:         34
 Nr. of blocks:                1
 Block length:                34
 Nr. of dummy points:          0


 Test of Precision of the Numerical Integration Grid
 ===================================================

 Integral of the Total Core Density:                   0.00000000000000



 =====
 S C F
 =====
  

 CYCLE    1
 orbitals (Q,E):
 ---------------
 S :1...1            ( 1.00    -0.1216)

 CYCLE    2
 d-Pmat  mean:  0.00E+00
 imax=      1:  0.00E+00
 orbitals (Q,E):
 ---------------
 S :1...1            ( 1.00    -0.1216)

 SCF CONVERGED

 CYCLE    3
1
 ***************************************************************************************************



                                                *******************
                                                *  R E S U L T S  *
                                                *******************
  
 *** Setting up for NEW gradients in focky
 *** Using FIT density in focky

 Orbital Energies, per Irrep and Spin:
 ======================================
                        Occup              E (au)              E (eV)       Diff (eV) with prev. cycle
                        -----      --------------------        ------       --------------------------
 S
               1        1.000     -0.12163331707833E+00        -3.310               0.00E+00


 Partially Occupied:
               1 S                -0.12163331707833E+00
  


 Orbital Energies of the Core Orbitals:
 ======================================
 (Note that the atoms are grouped by atomtype, see the labels, and may hence NOT be in input order)

 AtomType  Orbital  Atom                   E (au)                        E (eV)
 --------  -------  ----           --------------------        ----------------



 =======================================
 M U L L I K E N   P O P U L A T I O N S
 =======================================
  
 The survey below gives for each atom:
 a) the total charge (Z minus electrons)
 b) the net spin polarization (nr of electrons spin-A minus spin-B)
 c) for each spin the atomic electron valence density (integrated) per L-value.

 Atom              Charge    Spin density          S         P         D         F
 ----              ------    ------------       ------    ------    ------    ------
 1 H               0.0000                       1.0000    0.0000    0.0000    0.0000

 Populations of individual BAS functions
 ----------------------------------------
 1 H            1.0000

 Gross Charges per Atom (Z minus electrons)
 ==========================================
             0.0000
 Net Total:  0.00000000


 Atom-Atom Population Matrix (off-diagonal elements not doubled)
 ===============================================================

     1 :     1.0000



 =============
 Dipole Moment  ***  (Debye)  ***
 =============
  
 Vector   :         0.00000000      0.00000000      0.00000000
 Magnitude:         0.00000000

 This molecular dipole moment is calculated with analytic integration



 =========================================
 Quadrupole Moment (Buckingham convention)  ***  (a.u.)  ***
 =========================================
  
      quad-xx        quad-xy        quad-xz        quad-yy        quad-yz        quad-zz
      0.00000000     0.00000000     0.00000000     0.00000000     0.00000000     0.00000000

 This molecular quadrupole moment is calculated with analytic integration



 ===============================================================================
 Electrostatic potential at the Nuclei due to valence electrons and other nuclei
 ===============================================================================
  
         Atom                  Potential
         ----                  ---------
     1)   H                   1.23926638
 
 
 ========================
 No memory problems found
 ========================
 
 Maximum number of active allocate calls:         255
 
 *******************************************************************************

                             A D F   E X I T
 NORMAL TERMINATION



 =================
 Timing Statistics
 =================
  
 Total Used :                     CPU=        0.25      System=        0.36     Elapsed=        0.91

 Calls  Section                     ( Mean, Percentage )
 ---------------------------------------------------------------------------------------------------
     3  ><      ................      0.00    0.39             0.00    0.27             0.00    0.81
     1  INIT    ................      0.01    3.91             0.00    0.00             0.02    1.99
     1  GEOMET  ................      0.04   17.97             0.34   95.15             0.53   57.82
     1  INPUTA  ................      0.00    1.95             0.00    0.54             0.02    1.91
     1  MAINSY  ................      0.01    5.86             0.01    1.89             0.10   11.20
     1  SYMFIT  ................      0.00    0.78             0.00    0.00             0.00    0.13
     1  CORORT  ................      0.00    0.00             0.00    0.00             0.00    0.09
     1  SYMORB  ................      0.00    0.78             0.00    0.00             0.00    0.18
     1  FITINT  ................      0.02    7.81             0.00    0.00             0.02    2.16
     1  CLSMAT  ................      0.00    0.39             0.00    0.00             0.00    0.12
     1  ORTHON  ................      0.00    1.17             0.00    0.00             0.00    0.25
     1  ETALOW  ................      0.00    0.39             0.00    0.00             0.00    0.14
     1  GENPT   ................      0.02    8.59             0.00    0.54             0.03    3.25
     1  PTBAS   ................      0.01    3.13             0.00    0.00             0.01    1.06
     3  FOCKY   ................      0.02   28.12             0.00    0.54             0.02    8.12
     3  FOCKTR  ................      0.00    1.17             0.00    0.00             0.00    0.42
     3  FOCKNM  ................      0.00    0.00             0.00    0.00             0.00    0.02
     3  SDIIS   ................      0.00    1.56             0.00    0.00             0.00    0.40
     3  EMERGE  ................      0.00    3.12             0.00    0.27             0.00    1.25
     1  COREPS  ................      0.01    4.30             0.00    0.00             0.01    1.22
     1  POPAN   ................      0.01    2.34             0.00    0.00             0.01    1.25
     1  DEBYE   ................      0.00    0.78             0.00    0.00             0.00    0.19
     1  QMPOT   ................      0.01    3.91             0.00    0.27             0.05    5.12
     1  EXIT PROCEDURE .........      0.00    1.56             0.00    0.54             0.01    0.90


 Currently Open Files (EXIT00)
 ====================

 Unit    Access Format  Status   Type       Ident (file)
 -------------------------------------------------------
   3      SEQ    FORM   TRANSP  NORMAL      LOGFILE
                                          ( logfile )


 Buffered I/O statistics
 =======================
 Memory available:                    536870912
 Number of records fitting in memory:    129055
 Input :   3.7% of                          813  *4k bytes
 Output:  15.2% of                          824  *4k bytes
 Records from serial files evicted:           0
                    others evicted:           0
 Hash table lookups:       4317 with          0 conflicts (  0.00%)

 ***************************************************************************************************
 (LOGFILE)
 <Oct30-2007> <10:45:34>  ADF 2007.01  RunTime: Oct30-2007 10:45:34
 <Oct30-2007> <10:45:34>  Hydrogen (SZ)
 <Oct30-2007> <10:45:34>  RunType   : CREATE
 <Oct30-2007> <10:45:34>  Net Charge: 0 (Nuclei minus Electrons)
 <Oct30-2007> <10:45:34>  Symmetry  : ATOM
 <Oct30-2007> <10:45:34>  >>>> CORORT
 <Oct30-2007> <10:45:34>  >>>> FITINT
 <Oct30-2007> <10:45:34>  >>>> CLSMAT
 <Oct30-2007> <10:45:34>  >>>> ORTHON
 <Oct30-2007> <10:45:34>  >>>> GENPT
 <Oct30-2007> <10:45:34>  Acc.Num.Int.=  10.000
 <Oct30-2007> <10:45:34>  Block Length=  34
 <Oct30-2007> <10:45:34>  >>>> PTBAS
 <Oct30-2007> <10:45:34>  >>>> CYCLE
 <Oct30-2007> <10:45:34>    1
 <Oct30-2007> <10:45:34>    2  ErrMat   0.00000000  MaxEl  0.00000000
 <Oct30-2007> <10:45:34>  SCF converged
 <Oct30-2007> <10:45:34>    3  ErrMat   0.00000000  MaxEl  0.00000000
 <Oct30-2007> <10:45:34>   Solutions with partially occupied orbitals may not be
 <Oct30-2007> <10:45:34>   lowest in energy. You might consider lowering the
 <Oct30-2007> <10:45:34>   symmetry in the input and explicitly specifying integer
 <Oct30-2007> <10:45:34>   occupations. In that case always check that you obtain
 <Oct30-2007> <10:45:34>   an aufbau solution.
 <Oct30-2007> <10:45:35>  >>>> COREPS
 <Oct30-2007> <10:45:35>  >>>> POPAN
 <Oct30-2007> <10:45:35>  >>>> DEBYE
 <Oct30-2007> <10:45:35>  NORMAL TERMINATION
 <Oct30-2007> <10:45:35>  END


(INPUT FILE)
Create C  file=/usr/local/adf2007.01/atomicdata/SZ/C
XC
 GGA Blyp
End
End Input

 *******************************************************************************
 *                                                                             *
 *  -------------------------------------                                      *
 *   Amsterdam Density Functional  (ADF)         2007.01   August 20, 2007     *
 *  -------------------------------------                                      *
 *                                               Build 200708191746            *
 *                                                                             *
 *                                                                             *
 *                              =================                              *
 *                              |               |                              *
 *                              |     A D F     |                              *
 *                              |               |                              *
 *                              =================                              *
 *                                                                             *
 *                                                                             *
 *   Online information and documentation:  http://www.scm.com                 *
 *   E-mail:  support@scm.com   info@scm.com                                   *
 *                                                                             *
 *   Scientific publications using ADF results must be properly referenced     *
 *   See the User Manuals (or the web site) for recommended citations          *
 *   The terms and conditions of the End User License Agreement apply to       *
 *   the use of ADF, http://www.scm.com/Sales/LicAgreement.html                *
 *                                                                             *
 ******************************  hp_itan2_linux  *******************************
 
 ADF 2007.01  RunTime: Oct30-2007 10:45:35
 Carbon (SZ)



 ===========================
 A T T A C H E D   F I L E S
 ===========================
  
 CREATE - Data File:    /usr/local/adf2007.01/atomicdata/SZ/C
                        Carbon (SZ)



 ===============================
 M O D E L   P A R A M E T E R S
 ===============================
  
 DENSITY FUNCTIONAL POTENTIAL (scf)
    LDA:                               Exchange only                           == Not Default ==
    Gradient Corrections:              Becke88 LYP                             == Not Default ==

 SPIN  (restricted / unrestr.)
    Molecule:                          Restricted                               

 OTHER ASPECTS
    Relativistic Corrections:          ---                                      
    Core Treatment:                    Frozen Orbital(s)                        

    Electric Field:                    ---                                      

    Hyperfine or Zeeman Interaction:   ---                                      



 =====================================
 S Y M M E T R Y ,   E L E C T R O N S
 =====================================
  
 Symmetry: ATOM

 Irreducible Representations, including subspecies
 -------------------------------------------------
 S
 P:x  P:y  P:z
 D:z2  D:x2-y2  D:xy  D:xz  D:yz
 F:z3  F:z  F:xyz  F:z2x  F:z2y  F:x  F:y


 Configuration of Valence Electrons
 ==================================

          Occupation Numbers
          -------------------------------------------------
 S        2*2
 P        2
 D        0
 F        0
          -------------------------------------------------

 Total:   6

 Net Charge: 0 (Nuclei minus Electrons)

 Preset values for MO occupations will be applied through SCF cycle no. 1000000
 Thereafter, the program will assign electrons to MOs that are spatially
 similar to the occupied MOs in a "reference" cycle ("KeepOrbitals").
 The reference cycle is always the PREVIOUS cycle: it will evolve with
 the SCF procedure.



 ================================
 (Slater-type)  F U N C T I O N S  ***  (Basis and Fit)  ***
 ================================
  

 Atom Type    1  (C)
 ==============

 Valence Basis Sets:   3
 -----------------------
   1 S    5.670000
   2 S    1.720000
   2 P    1.720000

 Charge Fitting Sets (for the computation of the Coulomb Potential):  22
 -----------------------------------------------------------------------
   1 S   11.340000
   2 S   13.540000
   2 S    9.660000
   2 S    6.890000
   2 S    4.920000
   3 S    5.130000
   3 S    3.860000
   3 S    2.900000
   3 S    2.180000
   3 S    1.640000
   2 P    7.390000
   2 P    4.710000
   3 P    4.410000
   3 P    3.020000
   3 P    2.060000
   3 D    3.440000
   3 D    2.690000
   3 D    2.100000
   3 D    1.640000
   4 F    5.400000
   4 F    3.550000
   5 G    4.500000


 BAS: List of all Elementary Cartesian Basis Functions
 =====================================================

 The numbering in the list below (to the right of the function characteristics) is referred
 to in print-outs of MO eigenvectors and Mulliken populations in the BAS representation
 (as contrasted to the SFO representation).

 Notes:
 1. The functions are characterized by a polynomial prefactor (powers of x,y,z and r) and
    an exponential decay factor alpha.
 2. Since the basis sets are specific for an atom TYPE, the individual functions occur on
    all atoms of that type.
 3. The word 'Core' in the left margin signals that it is a Core Function (CF) : not a
    degree of freedom in the valence set, but only used to ensure orthogonalization of
    the other valence basis functions on the frozen Core Orbitals.


 (power of) X  Y  Z  R     Alpha  on Atom
            ==========     =====     ==========

 C                                    1
                                  ---------------------------------------------------------------------------
            0  0  0  0     5.670      1
            0  0  0  1     1.720      2
            1  0  0  0     1.720      3
            0  1  0  0     1.720      4
            0  0  1  0     1.720      5


 BAS: List of all Elementary Cartesian Basis Functions
 =====================================================

 The numbering in the list below (to the right of the function characteristics) is referred
 to in print-outs of MO eigenvectors and Mulliken populations in the BAS representation
 (as contrasted to the SFO representation).

 Notes:
 1. The functions are characterized by a polynomial prefactor (powers of x,y,z and r) and
    an exponential decay factor alpha.
 2. Since the basis sets are specific for an atom TYPE, the individual functions occur on
    all atoms of that type.
 3. The word 'Core' in the left margin signals that it is a Core Function (CF) : not a
    degree of freedom in the valence set, but only used to ensure orthogonalization of
    the other valence basis functions on the frozen Core Orbitals.


 (power of) X  Y  Z  R     Alpha  on Atom
            ==========     =====     ==========

 C                                    1
                                  ---------------------------------------------------------------------------
            0  0  0  0     5.670      1
            0  0  0  1     1.720      2
            1  0  0  0     1.720      3
            0  1  0  0     1.720      4
            0  0  1  0     1.720      5
1
 ***************************************************************************************************



                                              ***********************
                                              *  T E C H N I C A L  *
                                              ***********************
  



 =============================================================
 P A R A L L E L I Z A T I O N  and  V E C T O R I Z A T I O N
 =============================================================
  
 Nr of parallel processes:                                1
 Internal max. (compile-time) nr of processes:          128
 Maximum vector length in NumInt loops:                 128



 ===============
 I O  vs.  C P U  ***  (store numerical data on disk or recalculate)  ***
 ===============
  
 Basis functions:   recalculate when needed
 Fit functions:     recalculate when needed

 IO buffersize (Mb):                                    512.000000



 =====================
 S C F   U P D A T E S
 =====================
  
 Max. nr. of cycles:                               100
 Convergence criterion:                              0.0000000100
   secondary criterion:                              0.0000000100

 Mix parameter (when DIIS does not apply):           0.2000000000
 Special mix parameter for the first cycle:          1.0000000000


 DIIS (Direct Inversion in Iteration Space)
    Replace damping when SCF Error is below:         0.5000000000
    Apply anyway after SCF cycle:
                                                     5
    (Max.) nr. of expansion vectors:                10

    Upperbound on expansion coefficients:            5.0000000000
    (when exceeded, IterationSpace is re-built)
    2nd Upperbound on coefficients:                 25.0000000000
    (when exceeded, simple damping will be used)
 Automatic ElectronSmearing (in case of problematic SCF convergence) disabled



 =================
 P R E C I S I O N  ***  (General: NumInt, NeglectFunctionTails, ...)  ***
 =================
  

 NumInt:           Target precision:                10.0000000000
 -------           Initial precision:               10.0000000000
                   Min. precision (optimization):   10.0000000000

 Neglect Functions:          Basis functions:        0.1000000000E-11
 ------------------          Fit functions:          0.1000000000E-11



 ===========================
 L I N E A R   S C A L I N G
 ===========================
  

 Cut-off radii density fit:                        0.1000000000E-13
 Overlap cut-off criterion AO matrix elements:     0.1000000000E-11
 Cut-offs for Coulomb potential and fitted density:0.1000000000E-13
 Cut-off criterion for Coulomb multipole terms:    0.1000000000E-13
1
 ***************************************************************************************************



                                            ***************************
                                            *  C O M P U T A T I O N  *
                                            ***************************
  

 Number of elements of the density matrix on this node (used, total):        15        15



 ====================================================
 Numerical Integration : Voronoi Polyhedra (Te Velde)  ***  (parameters, tests)  ***
 ====================================================
  
 General Accuracy Parameter :                         10.00

 Symmetry used in the points section:  ATOM  


 Summary of the Symmetry Unique Points:
 --------------------------------------
    Nr. of used Symmetry Operators                     1

    Points in the Atomic Spheres                      48
    Points in the Atomic Polyhedra                     0
    Points in the Outer Region                         0
    ----------------------------------------------------
    Total                                             48

    Sum of Weights                                 58501.056183

 Total nr. of points:         48
 Nr. of blocks:                1
 Block length:                48
 Nr. of dummy points:          0


 Test of Precision of the Numerical Integration Grid
 ===================================================

 Integral of the Total Core Density:                   0.00000000000000



 =====
 S C F
 =====
  

 CYCLE    1
 orbitals (Q,E):
 ---------------
 S :1...2            ( 2.00   -17.2281)  ( 2.00    -3.3737)
 P :1...1            ( 2.00    -3.0741)

 CYCLE    2
 d-Pmat  mean:  0.89E-16
 imax=      1: -0.44E-15
 orbitals (Q,E):
 ---------------
 S :1...2            ( 2.00    -9.7601)  ( 2.00    -0.3637)
 P :1...1            ( 2.00    -0.0244)

 SCF CONVERGED

 CYCLE    3
1
 ***************************************************************************************************



                                                *******************
                                                *  R E S U L T S  *
                                                *******************
  
 *** Setting up for NEW gradients in focky
 *** Using FIT density in focky

 Orbital Energies, per Irrep and Spin:
 ======================================
                        Occup              E (au)              E (eV)       Diff (eV) with prev. cycle
                        -----      --------------------        ------       --------------------------
 S
               1        2.000     -0.97601381783327E+01      -265.587               5.80E-13
               2        2.000     -0.36369143932961E+00        -9.897               5.72E-13
 P
               1        2.000     -0.24432272455335E-01        -0.665               5.58E-13


 Partially Occupied:
               1 P                -0.24432272455335E-01
  
 HOMO :        2 S                -0.36369143932961E+00
  


 Orbital Energies, all Irreps
 ========================================

 Irrep        no.  (spin)   Occup              E (au)                E (eV)
 ---------------------------------------------------------------------------
 S             1             2.00       -0.97601381783327E+01      -265.5869
 S             2             2.00       -0.36369143932961E+00        -9.8965
 P             1             2.00       -0.24432272455335E-01        -0.6648


 Orbital Energies of the Core Orbitals:
 ======================================
 (Note that the atoms are grouped by atomtype, see the labels, and may hence NOT be in input order)

 AtomType  Orbital  Atom                   E (au)                        E (eV)
 --------  -------  ----           --------------------        ----------------



 =======================================
 M U L L I K E N   P O P U L A T I O N S
 =======================================
  
 The survey below gives for each atom:
 a) the total charge (Z minus electrons)
 b) the net spin polarization (nr of electrons spin-A minus spin-B)
 c) for each spin the atomic electron valence density (integrated) per L-value.

 Atom              Charge    Spin density          S         P         D         F
 ----              ------    ------------       ------    ------    ------    ------
 1 C               0.0000                       4.0000    2.0000    0.0000    0.0000

 Populations of individual BAS functions
 ----------------------------------------
 1 C            2.0000  2.0000  0.6667  0.6667  0.6667

 Gross Charges per Atom (Z minus electrons)
 ==========================================
             0.0000
 Net Total:  0.00000000


 Atom-Atom Population Matrix (off-diagonal elements not doubled)
 ===============================================================

     1 :     6.0000



 =============
 Dipole Moment  ***  (Debye)  ***
 =============
  
 Vector   :         0.00000000      0.00000000      0.00000000
 Magnitude:         0.00000000

 This molecular dipole moment is calculated with analytic integration



 =========================================
 Quadrupole Moment (Buckingham convention)  ***  (a.u.)  ***
 =========================================
  
      quad-xx        quad-xy        quad-xz        quad-yy        quad-yz        quad-zz
      0.00000000     0.00000000     0.00000000     0.00000000     0.00000000     0.00000000

 This molecular quadrupole moment is calculated with analytic integration



 ===============================================================================
 Electrostatic potential at the Nuclei due to valence electrons and other nuclei
 ===============================================================================
  
         Atom                  Potential
         ----                  ---------
     1)   C                  14.98166635
 
 
 ========================
 No memory problems found
 ========================
 
 Maximum number of active allocate calls:         291
 
 *******************************************************************************

                             A D F   E X I T
 NORMAL TERMINATION



 =================
 Timing Statistics
 =================
  
 Total Used :                     CPU=        0.28      System=        0.37     Elapsed=        0.81

 Calls  Section                     ( Mean, Percentage )
 ---------------------------------------------------------------------------------------------------
     3  ><      ................      0.00    0.34             0.00    0.27             0.00    0.87
     1  INIT    ................      0.01    3.77             0.00    0.00             0.02    2.15
     1  GEOMET  ................      0.04   14.38             0.35   94.96             0.40   48.92
     1  INPUTA  ................      0.01    2.05             0.00    0.00             0.05    6.73
     1  MAINSY  ................      0.02    5.82             0.01    1.59             0.07    8.08
     1  SYMFIT  ................      0.00    0.00             0.00    0.27             0.00    0.15
     1  CORORT  ................      0.00    0.34             0.00    0.00             0.00    0.11
     1  SYMORB  ................      0.00    1.37             0.00    0.00             0.00    0.49
     1  FITINT  ................      0.02    7.19             0.00    0.80             0.02    2.81
     1  CLSMAT  ................      0.00    0.34             0.00    0.00             0.00    0.14
     1  ORTHON  ................      0.00    0.68             0.00    0.27             0.00    0.46
     1  ETALOW  ................      0.00    1.03             0.00    0.00             0.00    0.31
     1  GENPT   ................      0.03    8.90             0.00    0.00             0.05    6.05
     1  PTBAS   ................      0.01    2.74             0.00    0.27             0.01    1.23
     3  FOCKY   ................      0.03   28.42             0.00    0.53             0.03   11.09
     3  FOCKTR  ................      0.00    1.71             0.00    0.00             0.00    0.52
     3  FOCKNM  ................      0.00    0.00             0.00    0.00             0.00    0.02
     3  SDIIS   ................      0.00    1.37             0.00    0.00             0.00    0.49
     3  EMERGE  ................      0.01    6.16             0.00    0.00             0.01    2.78
     1  COREPS  ................      0.01    3.77             0.00    0.00             0.01    1.58
     1  POPAN   ................      0.01    3.08             0.00    0.53             0.01    1.80
     1  DEBYE   ................      0.00    0.34             0.00    0.00             0.00    0.22
     1  QMPOT   ................      0.01    3.77             0.00    0.27             0.02    1.86
     1  EXIT PROCEDURE .........      0.01    2.40             0.00    0.27             0.01    1.14


 Currently Open Files (EXIT00)
 ====================

 Unit    Access Format  Status   Type       Ident (file)
 -------------------------------------------------------
   3      SEQ    FORM   TRANSP  NORMAL      LOGFILE
                                          ( logfile )


 Buffered I/O statistics
 =======================
 Memory available:                    536870912
 Number of records fitting in memory:    129055
 Input :   2.8% of                         1057  *4k bytes
 Output:  14.5% of                          947  *4k bytes
 Records from serial files evicted:           0
                    others evicted:           0
 Hash table lookups:       5368 with          0 conflicts (  0.00%)

 ***************************************************************************************************
 (LOGFILE)
 <Oct30-2007> <10:45:34>  ADF 2007.01  RunTime: Oct30-2007 10:45:34
 <Oct30-2007> <10:45:34>  Hydrogen (SZ)
 <Oct30-2007> <10:45:34>  RunType   : CREATE
 <Oct30-2007> <10:45:34>  Net Charge: 0 (Nuclei minus Electrons)
 <Oct30-2007> <10:45:34>  Symmetry  : ATOM
 <Oct30-2007> <10:45:34>  >>>> CORORT
 <Oct30-2007> <10:45:34>  >>>> FITINT
 <Oct30-2007> <10:45:34>  >>>> CLSMAT
 <Oct30-2007> <10:45:34>  >>>> ORTHON
 <Oct30-2007> <10:45:34>  >>>> GENPT
 <Oct30-2007> <10:45:34>  Acc.Num.Int.=  10.000
 <Oct30-2007> <10:45:34>  Block Length=  34
 <Oct30-2007> <10:45:34>  >>>> PTBAS
 <Oct30-2007> <10:45:34>  >>>> CYCLE
 <Oct30-2007> <10:45:34>    1
 <Oct30-2007> <10:45:34>    2  ErrMat   0.00000000  MaxEl  0.00000000
 <Oct30-2007> <10:45:34>  SCF converged
 <Oct30-2007> <10:45:34>    3  ErrMat   0.00000000  MaxEl  0.00000000
 <Oct30-2007> <10:45:34>   Solutions with partially occupied orbitals may not be
 <Oct30-2007> <10:45:34>   lowest in energy. You might consider lowering the
 <Oct30-2007> <10:45:34>   symmetry in the input and explicitly specifying integer
 <Oct30-2007> <10:45:34>   occupations. In that case always check that you obtain
 <Oct30-2007> <10:45:34>   an aufbau solution.
 <Oct30-2007> <10:45:35>  >>>> COREPS
 <Oct30-2007> <10:45:35>  >>>> POPAN
 <Oct30-2007> <10:45:35>  >>>> DEBYE
 <Oct30-2007> <10:45:35>  NORMAL TERMINATION
 <Oct30-2007> <10:45:35>  END
 <Oct30-2007> <10:45:35>  ADF 2007.01  RunTime: Oct30-2007 10:45:35
 <Oct30-2007> <10:45:35>  Carbon (SZ)
 <Oct30-2007> <10:45:35>  RunType   : CREATE
 <Oct30-2007> <10:45:35>  Net Charge: 0 (Nuclei minus Electrons)
 <Oct30-2007> <10:45:35>  Symmetry  : ATOM
 <Oct30-2007> <10:45:35>  >>>> CORORT
 <Oct30-2007> <10:45:35>  >>>> FITINT
 <Oct30-2007> <10:45:35>  >>>> CLSMAT
 <Oct30-2007> <10:45:35>  >>>> ORTHON
 <Oct30-2007> <10:45:35>  >>>> GENPT
 <Oct30-2007> <10:45:35>  Acc.Num.Int.=  10.000
 <Oct30-2007> <10:45:35>  Block Length=  48
 <Oct30-2007> <10:45:35>  >>>> PTBAS
 <Oct30-2007> <10:45:35>  >>>> CYCLE
 <Oct30-2007> <10:45:35>    1
 <Oct30-2007> <10:45:35>    2  ErrMat   0.00000000  MaxEl  0.00000000
 <Oct30-2007> <10:45:35>  SCF converged
 <Oct30-2007> <10:45:36>    3  ErrMat   0.00000000  MaxEl  0.00000000
 <Oct30-2007> <10:45:36>   Solutions with partially occupied orbitals may not be
 <Oct30-2007> <10:45:36>   lowest in energy. You might consider lowering the
 <Oct30-2007> <10:45:36>   symmetry in the input and explicitly specifying integer
 <Oct30-2007> <10:45:36>   occupations. In that case always check that you obtain
 <Oct30-2007> <10:45:36>   an aufbau solution.
 <Oct30-2007> <10:45:36>  >>>> COREPS
 <Oct30-2007> <10:45:36>  >>>> POPAN
 <Oct30-2007> <10:45:36>  >>>> DEBYE
 <Oct30-2007> <10:45:36>  NORMAL TERMINATION
 <Oct30-2007> <10:45:36>  END


(INPUT FILE)
title 1,4-divinyl-benzene, SZ, BLYP

charge 0 0
atoms
 C     -1.275568      0.692949      0.000000
 C     -1.211011     -0.742036      0.000000
 C      0.032360     -1.415271      0.000000
 C      1.275568     -0.692949      0.000000
 C      1.211011      0.742036      0.000000
 H     -2.143529     -1.330976      0.000000
 H      0.053320     -2.519080      0.000000
 H      2.143529      1.330976      0.000000
 C      2.571440     -1.457016      0.000000
 C      3.824633     -0.930233      0.000000
 H      4.012223      0.154429      0.000000
 H      2.455501     -2.556634      0.000000
 H      4.714807     -1.577980      0.000000
 C     -2.571440      1.457016      0.000000
 H     -2.455501      2.556634      0.000000
 C     -3.824633      0.930233      0.000000
 H     -4.012223     -0.154429      0.000000
 H     -4.714807      1.577980      0.000000
 C     -0.032360      1.415271      0.000000
 H     -0.053320      2.519080      0.000000
end

XC
 GGA Blyp
end

geometry
  frequencies
end

Fragments
H t21.H
C t21.C
End
end input

 *******************************************************************************
 *                                                                             *
 *  -------------------------------------                                      *
 *   Amsterdam Density Functional  (ADF)         2007.01   August 20, 2007     *
 *  -------------------------------------                                      *
 *                                               Build 200708191746            *
 *                                                                             *
 *                                                                             *
 *                              =================                              *
 *                              |               |                              *
 *                              |     A D F     |                              *
 *                              |               |                              *
 *                              =================                              *
 *                                                                             *
 *                                                                             *
 *   Online information and documentation:  http://www.scm.com                 *
 *   E-mail:  support@scm.com   info@scm.com                                   *
 *                                                                             *
 *   Scientific publications using ADF results must be properly referenced     *
 *   See the User Manuals (or the web site) for recommended citations          *
 *   The terms and conditions of the End User License Agreement apply to       *
 *   the use of ADF, http://www.scm.com/Sales/LicAgreement.html                *
 *                                                                             *
 ******************************  hp_itan2_linux  *******************************
 
 ADF 2007.01  RunTime: Oct30-2007 10:45:36
 1,4-divinyl-benzene, SZ, BLYP



 ===========================
 A T T A C H E D   F I L E S
 ===========================
  



 ===============================
 M O D E L   P A R A M E T E R S
 ===============================
  
 DENSITY FUNCTIONAL POTENTIAL (scf)
    LDA:                               Exchange only                           == Not Default ==
    Gradient Corrections:              Becke88 LYP                             == Not Default ==

 SPIN  (restricted / unrestr.)
    Molecule:                          Restricted                               
    Fragments:                         Restricted                               

 OTHER ASPECTS
    Relativistic Corrections:          ---                                      
    Core Treatment:                    Frozen Orbital(s)                        

    Electric Field:                    ---                                      

    Hyperfine or Zeeman Interaction:   ---                                      


 Fragment File(s)
 ----------------
 C:
         file : t21.C
         jobid: ADF 2007.01  RunTime: Oct30-2007 10:45:35
         title: Carbon (SZ)
 H:
         file : t21.H
         jobid: ADF 2007.01  RunTime: Oct30-2007 10:45:34
         title: Hydrogen (SZ)



                                        ***********************************
                                        *  R U N   T Y P E : FREQUENCIES  *
                                        ***********************************
  



 ===============
 G E O M E T R Y  ***  Planar Molecule  ***
 ===============
  

 ATOMS
 =====                            X Y Z                    CHARGE
                                (Angstrom)             Nucl     +Core       At.Mass
                       --------------------------    ----------------       -------
    1  C              -1.2756    0.6929    0.0000      6.00      6.00       12.0000
    2  C              -1.2110   -0.7420    0.0000      6.00      6.00       12.0000
    3  C               0.0324   -1.4153    0.0000      6.00      6.00       12.0000
    4  C               1.2756   -0.6929    0.0000      6.00      6.00       12.0000
    5  C               1.2110    0.7420    0.0000      6.00      6.00       12.0000
    6  H              -2.1435   -1.3310    0.0000      1.00      1.00        1.0078
    7  H               0.0533   -2.5191    0.0000      1.00      1.00        1.0078
    8  H               2.1435    1.3310    0.0000      1.00      1.00        1.0078
    9  C               2.5714   -1.4570    0.0000      6.00      6.00       12.0000
   10  C               3.8246   -0.9302    0.0000      6.00      6.00       12.0000
   11  H               4.0122    0.1544    0.0000      1.00      1.00        1.0078
   12  H               2.4555   -2.5566    0.0000      1.00      1.00        1.0078
   13  H               4.7148   -1.5780    0.0000      1.00      1.00        1.0078
   14  C              -2.5714    1.4570    0.0000      6.00      6.00       12.0000
   15  H              -2.4555    2.5566    0.0000      1.00      1.00        1.0078
   16  C              -3.8246    0.9302    0.0000      6.00      6.00       12.0000
   17  H              -4.0122   -0.1544    0.0000      1.00      1.00        1.0078
   18  H              -4.7148    1.5780    0.0000      1.00      1.00        1.0078
   19  C              -0.0324    1.4153    0.0000      6.00      6.00       12.0000
   20  H              -0.0533    2.5191    0.0000      1.00      1.00        1.0078


 FRAGMENTS
 =========                                     Atoms in this Fragment     Cart. coord.s (Angstrom)
                                               -------------------------------------------------------
    1  C                                                 1  C           -1.2756    0.6929    0.0000
    2  C                                                 2  C           -1.2110   -0.7420    0.0000
    3  C                                                 3  C            0.0324   -1.4153    0.0000
    4  C                                                 4  C            1.2756   -0.6929    0.0000
    5  C                                                 5  C            1.2110    0.7420    0.0000
    6  C                                                 9  C            2.5714   -1.4570    0.0000
    7  C                                                10  C            3.8246   -0.9302    0.0000
    8  C                                                14  C           -2.5714    1.4570    0.0000
    9  C                                                16  C           -3.8246    0.9302    0.0000
   10  C                                                19  C           -0.0324    1.4153    0.0000
   11  H                                                 6  H           -2.1435   -1.3310    0.0000
   12  H                                                 7  H            0.0533   -2.5191    0.0000
   13  H                                                 8  H            2.1435    1.3310    0.0000
   14  H                                                11  H            4.0122    0.1544    0.0000
   15  H                                                12  H            2.4555   -2.5566    0.0000
   16  H                                                13  H            4.7148   -1.5780    0.0000
   17  H                                                15  H           -2.4555    2.5566    0.0000
   18  H                                                17  H           -4.0122   -0.1544    0.0000
   19  H                                                18  H           -4.7148    1.5780    0.0000
   20  H                                                20  H           -0.0533    2.5191    0.0000


 Interatomic Distance Matrix (Angstrom)
 --------------------------------------

   1)     0.000
   2)     1.436   0.000
   3)     2.481   1.414   0.000
   4)     2.903   2.487   1.438   0.000
   5)     2.487   2.841   2.458   1.436   0.000
   6)     2.202   1.103   2.178   3.478   3.943   0.000
   7)     3.476   2.181   1.104   2.197   3.461   2.498   0.000
   8)     3.478   3.943   3.464   2.202   1.103   5.046   4.381   0.000
   9)     4.407   3.849   2.539   1.504   2.586   4.717   2.733   2.821   0.000
  10)     5.352   5.039   3.823   2.560   3.103   5.982   4.092   2.818   1.359   0.000
  11)     5.315   5.300   4.278   2.865   2.862   6.332   4.777   2.208   2.162   1.101
          0.000
  12)     4.948   4.091   2.678   2.206   3.526   4.760   2.402   3.900   1.106   2.126
          3.126   0.000
  13)     6.406   5.984   4.685   3.551   4.202   6.863   4.756   3.882   2.147   1.101
          1.869   2.462   0.000
  14)     1.504   2.586   3.877   4.407   3.849   2.821   4.764   4.717   5.911   6.827
          6.711   6.433   7.893   0.000
  15)     2.206   3.526   4.687   4.948   4.091   3.900   5.662   4.760   6.433   7.183
          6.899   7.090   8.277   1.106   0.000
  16)     2.560   3.103   4.514   5.352   5.039   2.818   5.190   5.982   6.827   7.872
          7.875   7.183   8.900   1.359   2.126   0.000
  17)     2.865   2.862   4.237   5.315   5.300   2.208   4.703   6.332   6.711   7.875
          8.030   6.899   8.842   2.162   3.126   1.101   0.000
  18)     3.551   4.202   5.612   6.406   5.984   3.882   6.287   6.863   7.893   8.900
          8.842   8.277   9.944   2.147   2.462   1.101   1.869   0.000
  19)     1.438   2.458   2.831   2.481   1.414   3.464   3.935   2.178   3.877   4.514
          4.237   4.687   5.612   2.539   2.678   3.823   4.278   4.685   0.000
  20)     2.197   3.461   3.935   3.476   2.181   4.381   5.039   2.498   4.764   5.190
          4.703   5.662   6.287   2.733   2.402   4.092   4.777   4.756   1.104   0.000

 Min. Distance =    1.1008
 Max. Distance =    9.9437



 =====================================
 S Y M M E T R Y ,   E L E C T R O N S
 =====================================
  
 Symmetry: NOSYM

 Irreducible Representations, including subspecies
 -------------------------------------------------
 A

 *** In a FREQUENCIES run the point group symmetry is used only in the construction of the Force Matrix.
     Due to possibly symmetry-breaking displacements, the SCF calculations run in 'NOSYM', with only one
     irrep and one subspecies: A.
 (The current implementation does not use C(LIN),D(LIN) symmetries efficiently in Frequencies-runs.
 If specified they will internally be reset to NOSYM)


 Configuration of Valence Electrons
 ==================================
 ( determined in the SCF procedure )

 Total:   70

 Net Charge: 0 (Nuclei minus Electrons)

 Aufbau principle for MO occupations will be applied through SCF cycle no.      30
 Thereafter, the program will assign electrons to MOs that are spatially
 similar to the occupied MOs in a "reference" cycle ("KeepOrbitals").
 The reference cycle is always the PREVIOUS cycle: it will evolve with
 the SCF procedure.
1
 ***************************************************************************************************



                                      ****************************************
                                      *  B U I L D : (Fragments, Functions)  *
                                      ****************************************
  



 =======
 S F O s  ***  (Symmetrized Fragment Orbitals)  ***
 =======
  
 SFOs are linear combinations of (valence) Fragment Orbitals (FOs), such that the SFOs transform as the
 irreducible representations of the (molecular) symmetry group. Each SFO is therefore characterized by
 an irrep of the molecule and by a few (or only one) generating FOs.
 The SFOs constitute a symmetry-adapted basis for the Fock matrix. The MO eigenvector coefficients in
 this basis provide a direct interpretation of the MOs in terms of Frontier Orbital Theory.

 The SFOs are combined with auxiliary Core Functions (CFs) to ensure orthogonalization on the (frozen)
 Core Orbitals (COs). The Core-orthogonalized SFOs (CSFOs) constitute the true Fock basis.

 The FOs, and hence also the (C)SFOs are combinations of the elementary basis functions (BAS). The basis
 functions that participate in the description of the SFOs depend on the irrep. The indices of the
 involved functions are printed below for each irrep.
 (The complete list of primitive basis functions is printed in another section)

 Total nr. of (C)SFOs (summation over all irreps) :    60

 NOTE: a (C)SFO that is defined as a combination of more than one FO is usually NOT normalized.



                                       === A ===
 Nr. of SFOs :   60
 Cartesian basis functions that participate in this irrep (total number =    60) :
      1     2     3     4     5     6     7     8     9    10
     11    12    13    14    15    16    17    18    19    20
     21    22    23    24    25    26    27    28    29    30
     31    32    33    34    35    36    37    38    39    40
     41    42    43    44    45    46    47    48    49    50
     51    52    53    54    55    56    57    58    59    60

    SFO  (index         Fragment          Generating    Expansion in Fragment Orbitals
  indx  incl.CFs)   Occup   Orb.Energy   FragmentType  Coeff.   Orbital     on Fragment
 --------------------------------------------------------------------------------------
     1       1      2.000      -9.760 au  C             1.00      1 S               1
                        (    -265.587 eV)
     2       2      2.000      -0.364 au  C             1.00      2 S               1
                        (      -9.897 eV)
     3       3      0.667      -0.024 au  C             1.00      1 P:x             1
                        (      -0.665 eV)
     4       4      0.667      -0.024 au  C             1.00      1 P:y             1
                        (      -0.665 eV)
     5       5      0.667      -0.024 au  C             1.00      1 P:z             1
                        (      -0.665 eV)
     6       6      2.000      -9.760 au  C             1.00      1 S               2
                        (    -265.587 eV)
     7       7      2.000      -0.364 au  C             1.00      2 S               2
                        (      -9.897 eV)
     8       8      0.667      -0.024 au  C             1.00      1 P:x             2
                        (      -0.665 eV)
     9       9      0.667      -0.024 au  C             1.00      1 P:y             2
                        (      -0.665 eV)
    10      10      0.667      -0.024 au  C             1.00      1 P:z             2
                        (      -0.665 eV)
    11      11      2.000      -9.760 au  C             1.00      1 S               3
                        (    -265.587 eV)
    12      12      2.000      -0.364 au  C             1.00      2 S               3
                        (      -9.897 eV)
    13      13      0.667      -0.024 au  C             1.00      1 P:x             3
                        (      -0.665 eV)
    14      14      0.667      -0.024 au  C             1.00      1 P:y             3
                        (      -0.665 eV)
    15      15      0.667      -0.024 au  C             1.00      1 P:z             3
                        (      -0.665 eV)
    16      16      2.000      -9.760 au  C             1.00      1 S               4
                        (    -265.587 eV)
    17      17      2.000      -0.364 au  C             1.00      2 S               4
                        (      -9.897 eV)
    18      18      0.667      -0.024 au  C             1.00      1 P:x             4
                        (      -0.665 eV)
    19      19      0.667      -0.024 au  C             1.00      1 P:y             4
                        (      -0.665 eV)
    20      20      0.667      -0.024 au  C             1.00      1 P:z             4
                        (      -0.665 eV)
    21      21      2.000      -9.760 au  C             1.00      1 S               5
                        (    -265.587 eV)
    22      22      2.000      -0.364 au  C             1.00      2 S               5
                        (      -9.897 eV)
    23      23      0.667      -0.024 au  C             1.00      1 P:x             5
                        (      -0.665 eV)
    24      24      0.667      -0.024 au  C             1.00      1 P:y             5
                        (      -0.665 eV)
    25      25      0.667      -0.024 au  C             1.00      1 P:z             5
                        (      -0.665 eV)
    26      26      2.000      -9.760 au  C             1.00      1 S               6
                        (    -265.587 eV)
    27      27      2.000      -0.364 au  C             1.00      2 S               6
                        (      -9.897 eV)
    28      28      0.667      -0.024 au  C             1.00      1 P:x             6
                        (      -0.665 eV)
    29      29      0.667      -0.024 au  C             1.00      1 P:y             6
                        (      -0.665 eV)
    30      30      0.667      -0.024 au  C             1.00      1 P:z             6
                        (      -0.665 eV)
    31      31      2.000      -9.760 au  C             1.00      1 S               7
                        (    -265.587 eV)
    32      32      2.000      -0.364 au  C             1.00      2 S               7
                        (      -9.897 eV)
    33      33      0.667      -0.024 au  C             1.00      1 P:x             7
                        (      -0.665 eV)
    34      34      0.667      -0.024 au  C             1.00      1 P:y             7
                        (      -0.665 eV)
    35      35      0.667      -0.024 au  C             1.00      1 P:z             7
                        (      -0.665 eV)
    36      36      2.000      -9.760 au  C             1.00      1 S               8
                        (    -265.587 eV)
    37      37      2.000      -0.364 au  C             1.00      2 S               8
                        (      -9.897 eV)
    38      38      0.667      -0.024 au  C             1.00      1 P:x             8
                        (      -0.665 eV)
    39      39      0.667      -0.024 au  C             1.00      1 P:y             8
                        (      -0.665 eV)
    40      40      0.667      -0.024 au  C             1.00      1 P:z             8
                        (      -0.665 eV)
    41      41      2.000      -9.760 au  C             1.00      1 S               9
                        (    -265.587 eV)
    42      42      2.000      -0.364 au  C             1.00      2 S               9
                        (      -9.897 eV)
    43      43      0.667      -0.024 au  C             1.00      1 P:x             9
                        (      -0.665 eV)
    44      44      0.667      -0.024 au  C             1.00      1 P:y             9
                        (      -0.665 eV)
    45      45      0.667      -0.024 au  C             1.00      1 P:z             9
                        (      -0.665 eV)
    46      46      2.000      -9.760 au  C             1.00      1 S              10
                        (    -265.587 eV)
    47      47      2.000      -0.364 au  C             1.00      2 S              10
                        (      -9.897 eV)
    48      48      0.667      -0.024 au  C             1.00      1 P:x            10
                        (      -0.665 eV)
    49      49      0.667      -0.024 au  C             1.00      1 P:y            10
                        (      -0.665 eV)
    50      50      0.667      -0.024 au  C             1.00      1 P:z            10
                        (      -0.665 eV)
    51      51      1.000      -0.122 au  H             1.00      1 S              11
                        (      -3.310 eV)
    52      52      1.000      -0.122 au  H             1.00      1 S              12
                        (      -3.310 eV)
    53      53      1.000      -0.122 au  H             1.00      1 S              13
                        (      -3.310 eV)
    54      54      1.000      -0.122 au  H             1.00      1 S              14
                        (      -3.310 eV)
    55      55      1.000      -0.122 au  H             1.00      1 S              15
                        (      -3.310 eV)
    56      56      1.000      -0.122 au  H             1.00      1 S              16
                        (      -3.310 eV)
    57      57      1.000      -0.122 au  H             1.00      1 S              17
                        (      -3.310 eV)
    58      58      1.000      -0.122 au  H             1.00      1 S              18
                        (      -3.310 eV)
    59      59      1.000      -0.122 au  H             1.00      1 S              19
                        (      -3.310 eV)
    60      60      1.000      -0.122 au  H             1.00      1 S              20
                        (      -3.310 eV)



 ================================
 (Slater-type)  F U N C T I O N S  ***  (Basis and Fit)  ***
 ================================
  

 Atom Type    1  (C)
 ==============

 Valence Basis Sets:   3
 -----------------------
   1 S    5.670000
   2 S    1.720000
   2 P    1.720000

 Charge Fitting Sets (for the computation of the Coulomb Potential):  22
 -----------------------------------------------------------------------
   1 S   11.340000
   2 S   13.540000
   2 S    9.660000
   2 S    6.890000
   2 S    4.920000
   3 S    5.130000
   3 S    3.860000
   3 S    2.900000
   3 S    2.180000
   3 S    1.640000
   2 P    7.390000
   2 P    4.710000
   3 P    4.410000
   3 P    3.020000
   3 P    2.060000
   3 D    3.440000
   3 D    2.690000
   3 D    2.100000
   3 D    1.640000
   4 F    5.400000
   4 F    3.550000
   5 G    4.500000

 Atom Type    2  (H)
 ==============

 Valence Basis Sets:   1
 -----------------------
   1 S    1.240000

 Charge Fitting Sets (for the computation of the Coulomb Potential):  11
 -----------------------------------------------------------------------
   1 S    3.160000
   1 S    2.090000
   1 S    1.380000
   2 S    1.500000
   2 P    4.000000
   2 P    2.650000
   2 P    1.750000
   3 D    4.000000
   3 D    2.500000
   4 F    3.000000
   5 G    4.000000


 BAS: List of all Elementary Cartesian Basis Functions
 =====================================================

 The numbering in the list below (to the right of the function characteristics) is referred
 to in print-outs of MO eigenvectors and Mulliken populations in the BAS representation
 (as contrasted to the SFO representation).

 Notes:
 1. The functions are characterized by a polynomial prefactor (powers of x,y,z and r) and
    an exponential decay factor alpha.
 2. Since the basis sets are specific for an atom TYPE, the individual functions occur on
    all atoms of that type.
 3. The word 'Core' in the left margin signals that it is a Core Function (CF) : not a
    degree of freedom in the valence set, but only used to ensure orthogonalization of
    the other valence basis functions on the frozen Core Orbitals.


 (power of) X  Y  Z  R     Alpha  on Atom
            ==========     =====     ==========

 C                                    1    2    3    4    5    6    7    8    9   10
                                  ---------------------------------------------------------------------------
            0  0  0  0     5.670      1    6   11   16   21   26   31   36   41   46
            0  0  0  1     1.720      2    7   12   17   22   27   32   37   42   47
            1  0  0  0     1.720      3    8   13   18   23   28   33   38   43   48
            0  1  0  0     1.720      4    9   14   19   24   29   34   39   44   49
            0  0  1  0     1.720      5   10   15   20   25   30   35   40   45   50

 H                                   11   12   13   14   15   16   17   18   19   20
                                  ---------------------------------------------------------------------------
            0  0  0  0     1.240     51   52   53   54   55   56   57   58   59   60
1
 ***************************************************************************************************



                                              ***********************
                                              *  T E C H N I C A L  *
                                              ***********************
  



 =============================================================
 P A R A L L E L I Z A T I O N  and  V E C T O R I Z A T I O N
 =============================================================
  
 Nr of parallel processes:                                1
 Internal max. (compile-time) nr of processes:          128
 Maximum vector length in NumInt loops:                 128



 ===============
 I O  vs.  C P U  ***  (store numerical data on disk or recalculate)  ***
 ===============
  
 Basis functions:   recalculate when needed
 Fit functions:     recalculate when needed

 IO buffersize (Mb):                                    512.000000



 ===============================
 G E O M E T R Y   U P D A T E S
 ===============================
  
 Optimization coordinates:                       Cartesian
 Optimization code branch:                       OLD

 (Max.) nr. of geometries to compute Freq.s:       121
 Second derivatives are computed by 2-point num. differentiation of gradients.
 Fewer displacements may be used due to symmetry.



 =====================
 S C F   U P D A T E S
 =====================
  
 Max. nr. of cycles:                                50
 Convergence criterion:                              0.0000010000
   secondary criterion:                              0.0010000000

 Mix parameter (when DIIS does not apply):           0.2000000000


 DIIS (Direct Inversion in Iteration Space)
    Replace damping when SCF Error is below:         0.5000000000
    Apply anyway after SCF cycle:
                                                     5
    (Max.) nr. of expansion vectors:                10

    Upperbound on expansion coefficients:            5.0000000000
    (when exceeded, IterationSpace is re-built)
    2nd Upperbound on coefficients:                 25.0000000000
    (when exceeded, simple damping will be used)
 Automatic ElectronSmearing (in case of problematic SCF convergence) disabled



 =================
 P R E C I S I O N  ***  (General: NumInt, NeglectFunctionTails, ...)  ***
 =================
  

 NumInt:           Target precision:                 6.0000000000
 -------           Initial precision:                6.0000000000
                   Min. precision (optimization):    6.0000000000

 Neglect Functions:          Basis functions:        0.1000000000E-07
 ------------------          Fit functions:          0.1000000000E-07



 ===========================
 L I N E A R   S C A L I N G
 ===========================
  

 Cut-off radii density fit:                        0.1000000000E-09
 Overlap cut-off criterion AO matrix elements:     0.1000000000E-07
 Cut-offs for Coulomb potential and fitted density:0.1000000000E-09
 Cut-off criterion for Coulomb multipole terms:    0.1000000000E-09
1
 ***************************************************************************************************



                                            ***************************
                                            *  C O M P U T A T I O N  *
                                            ***************************
  

 Number of elements of the density matrix on this node (used, total):      1830      1830



 ====================================================
 Numerical Integration : Voronoi Polyhedra (Te Velde)  ***  (parameters, tests)  ***
 ====================================================
  
 General Accuracy Parameter :                          6.00

 Symmetry used in the points section:  C(2H) 


 Summary of the Symmetry Unique Points:
 --------------------------------------
    Nr. of used Symmetry Operators                     4

    Points in the Atomic Spheres                    3910
    Points in the Atomic Polyhedra                 31753
    Points in the Outer Region                      8144
    ----------------------------------------------------
    Total                                          43807

    Sum of Weights                                 98920.256011

 Total nr. of points:     175228
 Nr. of blocks:             1372
 Block length:               128
 Nr. of dummy points:        388


 Test of Precision of the Numerical Integration Grid
 ===================================================

 Integral of the Total Core Density:                   0.00000000000000



 =====
 S C F
 =====
  

 CYCLE    1
 orbitals (Q,E):
 ---------------
 A :26...45          ( 2.00    -0.2985)  ( 2.00    -0.2976)  ( 2.00    -0.2710)  ( 2.00    -0.2624)
                     ( 2.00    -0.2423)  ( 2.00    -0.2369)  ( 2.00    -0.2201)  ( 2.00    -0.1780)
                     ( 2.00    -0.1605)  ( 2.00    -0.1246)  ( 0.00     0.0051)  ( 0.00     0.0537)
                     ( 0.00     0.0637)  ( 0.00     0.1340)  ( 0.00     0.2143)  ( 0.00     0.2790)
                     ( 0.00     0.2868)  ( 0.00     0.3223)  ( 0.00     0.3228)  ( 0.00     0.3459)

 CYCLE    2
 d-Pmat  mean:  0.55E-02
 imax=     45: -0.35E-01
 orbitals (Q,E):
 ---------------
 A :26...36          ( 2.00    -0.2987)  ( 2.00    -0.2978)  ( 2.00    -0.2733)  ( 2.00    -0.2637)
                     ( 2.00    -0.2450)  ( 2.00    -0.2398)  ( 2.00    -0.2213)  ( 2.00    -0.1761)
                     ( 2.00    -0.1616)  ( 2.00    -0.1248)  ( 0.00     0.0046)

 CYCLE    3
 d-Pmat  mean:  0.54E-02
 imax=     40: -0.25E-01
 orbitals (Q,E):
 ---------------
 A :26...36          ( 2.00    -0.2974)  ( 2.00    -0.2974)  ( 2.00    -0.2702)  ( 2.00    -0.2642)
                     ( 2.00    -0.2461)  ( 2.00    -0.2414)  ( 2.00    -0.2170)  ( 2.00    -0.1705)
                     ( 2.00    -0.1588)  ( 2.00    -0.1228)  ( 0.00     0.0048)

 CYCLE    4
 d-Pmat  mean:  0.69E-02
 imax=     45: -0.39E-01
 orbitals (Q,E):
 ---------------
 A :26...36          ( 2.00    -0.2976)  ( 2.00    -0.2973)  ( 2.00    -0.2699)  ( 2.00    -0.2643)
                     ( 2.00    -0.2466)  ( 2.00    -0.2414)  ( 2.00    -0.2174)  ( 2.00    -0.1715)
                     ( 2.00    -0.1598)  ( 2.00    -0.1212)  ( 0.00     0.0064)

 CYCLE    5
 d-Pmat  mean:  0.29E-02
 imax=      5:  0.11E-01
 orbitals (Q,E):
 ---------------
 A :26...36          ( 2.00    -0.2979)  ( 2.00    -0.2973)  ( 2.00    -0.2705)  ( 2.00    -0.2648)
                     ( 2.00    -0.2468)  ( 2.00    -0.2418)  ( 2.00    -0.2182)  ( 2.00    -0.1713)
                     ( 2.00    -0.1589)  ( 2.00    -0.1222)  ( 0.00     0.0055)

 CYCLE    6
 d-Pmat  mean:  0.38E-03
 imax=     50:  0.10E-02
 orbitals (Q,E):
 ---------------
 A :26...36          ( 2.00    -0.2979)  ( 2.00    -0.2972)  ( 2.00    -0.2708)  ( 2.00    -0.2647)
                     ( 2.00    -0.2470)  ( 2.00    -0.2420)  ( 2.00    -0.2181)  ( 2.00    -0.1710)
                     ( 2.00    -0.1595)  ( 2.00    -0.1222)  ( 0.00     0.0055)

 CYCLE    7
 d-Pmat  mean:  0.34E-04
 imax=     45:  0.16E-03
 orbitals (Q,E):
 ---------------
 A :26...36          ( 2.00    -0.2979)  ( 2.00    -0.2972)  ( 2.00    -0.2708)  ( 2.00    -0.2647)
                     ( 2.00    -0.2470)  ( 2.00    -0.2420)  ( 2.00    -0.2181)  ( 2.00    -0.1710)
                     ( 2.00    -0.1594)  ( 2.00    -0.1222)  ( 0.00     0.0055)

 CYCLE    8
 d-Pmat  mean:  0.10E-04
 imax=     25: -0.55E-04
 orbitals (Q,E):
 ---------------
 A :26...36          ( 2.00    -0.2979)  ( 2.00    -0.2972)  ( 2.00    -0.2708)  ( 2.00    -0.2647)
                     ( 2.00    -0.2470)  ( 2.00    -0.2420)  ( 2.00    -0.2181)  ( 2.00    -0.1710)
                     ( 2.00    -0.1594)  ( 2.00    -0.1222)  ( 0.00     0.0055)

 CYCLE    9
 d-Pmat  mean:  0.36E-05
 imax=     25:  0.12E-04
 orbitals (Q,E):
 ---------------
 A :26...36          ( 2.00    -0.2979)  ( 2.00    -0.2972)  ( 2.00    -0.2708)  ( 2.00    -0.2647)
                     ( 2.00    -0.2470)  ( 2.00    -0.2420)  ( 2.00    -0.2181)  ( 2.00    -0.1710)
                     ( 2.00    -0.1594)  ( 2.00    -0.1222)  ( 0.00     0.0055)

 CYCLE   10
 d-Pmat  mean:  0.43E-06
 imax=     57: -0.13E-05
 orbitals (Q,E):
 ---------------
 A :26...36          ( 2.00    -0.2979)  ( 2.00    -0.2972)  ( 2.00    -0.2708)  ( 2.00    -0.2647)
                     ( 2.00    -0.2470)  ( 2.00    -0.2420)  ( 2.00    -0.2181)  ( 2.00    -0.1710)
                     ( 2.00    -0.1594)  ( 2.00    -0.1222)  ( 0.00     0.0055)

 SCF CONVERGED

 CYCLE   11
 *** Setting up for NEW gradients in focky
 *** Using FIT density in focky
 orbitals (Q,E):
 ---------------
 A :26...45          ( 2.00    -0.2979)  ( 2.00    -0.2972)  ( 2.00    -0.2708)  ( 2.00    -0.2647)
                     ( 2.00    -0.2470)  ( 2.00    -0.2420)  ( 2.00    -0.2181)  ( 2.00    -0.1710)
                     ( 2.00    -0.1594)  ( 2.00    -0.1222)  ( 0.00     0.0055)  ( 0.00     0.0521)
                     ( 0.00     0.0667)  ( 0.00     0.1312)  ( 0.00     0.2084)  ( 0.00     0.2768)
                     ( 0.00     0.2869)  ( 0.00     0.3168)  ( 0.00     0.3235)  ( 0.00     0.3433)


 Fit test: (difference of exact and fit density, squared integrated, result summed over spins)
         Sum-of-Fragments:                             0.00000491431081
         Orthogonalized Fragments:                     0.00058768030673
         SCF:                                          0.00019258573598

 Gross Charges per Atom (Z minus electrons)
 ==========================================
            -0.0055   -0.0775   -0.0776   -0.0055   -0.0775    0.0794    0.0785    0.0794   -0.0775   -0.1537
             0.0766    0.0774    0.0800   -0.0775    0.0774   -0.1537    0.0766    0.0800   -0.0776    0.0785
 Net Total:  0.00000000



 =================================================================
 M U L T I P O L E   D E R I V E D   C H A R G E   A N A L Y S I S
 =================================================================

 See: M. Swart, P.Th. van Duijnen, J.G. Snijders, J.Comput.Chem., (2001), p. 79-88.

 --------------------------------------- 
 Multipole derived atomic charges (a.u.)
 --------------------------------------- 

        Atom    Level:     MDC-m        MDC-d        MDC-q
 ---------------------------------------------------------
     1     C           -0.027929    -0.185657     0.028267
     2     C            0.525266     0.101484    -0.025489
     3     C            0.525248     0.106738    -0.045869
     4     C           -0.027929    -0.185657     0.028267
     5     C            0.525266     0.101484    -0.025489
     6     H           -0.516893    -0.053625     0.025317
     7     H           -0.517458    -0.040252     0.041948
     8     H           -0.516893    -0.053625     0.025317
     9     C            0.522301     0.034413    -0.028651
    10     C            1.065975     0.348142    -0.156033
    11     H           -0.529405    -0.136572     0.062600
    12     H           -0.520656    -0.052474     0.035918
    13     H           -0.526449    -0.122197     0.061993
    14     C            0.522301     0.034413    -0.028651
    15     H           -0.520656    -0.052474     0.035918
    16     C            1.065975     0.348142    -0.156033
    17     H           -0.529405    -0.136572     0.062600
    18     H           -0.526449    -0.122197     0.061993
    19     C            0.525248     0.106738    -0.045869
    20     H           -0.517458    -0.040252     0.041948

 Dipole Moment:
 ==============
 Vector   :         0.00000005      0.00000002      0.00000000
 Magnitude:         0.00000005

 This molecular dipole moment is calculated with analytic integration

 Quadrupole Moment:
 ==================
      quad-xx        quad-xy        quad-xz        quad-yy        quad-yz        quad-zz
      3.21454658     0.00041393     0.00000000     3.36434119     0.00000000    -6.57888778

 This molecular quadrupole moment is calculated with analytic integration
1



 =============================
 F O R C E   C O N S T A N T S  ***  nr. of geometries to evaluate: 121  ***
 =============================
  
 *** Using NEW gradient routines ***

[...]
 <Oct30-2007> <14:18:34>    5  ErrMat   0.00005270  MaxEl -0.00001656
 <Oct30-2007> <14:18:48>    6  ErrMat   0.00001502  MaxEl -0.00000451
 <Oct30-2007> <14:19:03>    7  ErrMat   0.00000370  MaxEl -0.00000178
 <Oct30-2007> <14:19:18>    8  ErrMat   0.00000174  MaxEl  0.00000089
 <Oct30-2007> <14:19:18>  SCF converged
 <Oct30-2007> <14:19:33>    9  ErrMat   0.00000065  MaxEl -0.00000022
 <Oct30-2007> <14:19:33>  >>>> TOTEN
 <Oct30-2007> <14:20:25>  >>>> POPAN
 <Oct30-2007> <14:20:25>  >>>> DEBYE
 <Oct30-2007> <14:20:25>  >>>> AMETS
 <Oct30-2007> <14:20:25>  >>>> ENGRAD
  Coordinates in Frequency Displacement 71
    Atom         X           Y           Z   (Angstrom)
    1.C        -1.275568    0.692949    0.000000
    2.C        -1.211011   -0.742036    0.000000
    3.C         0.032360   -1.415271    0.000000
    4.C         1.275568   -0.692949    0.000000
    5.C         1.211011    0.742036    0.000000
    6.H        -2.143529   -1.330976    0.000000
    7.H         0.053320   -2.519080    0.000000
    8.H         2.143529    1.330976    0.000000
    9.C         2.571440   -1.457016    0.000000
   10.C         3.824633   -0.930233    0.000000
   11.H         4.012223    0.154429    0.000000
   12.H         2.455501   -2.556634   -0.010000
   13.H         4.714807   -1.577980    0.000000
   14.C        -2.571440    1.457016    0.000000
   15.H        -2.455501    2.556634    0.000000
   16.C        -3.824633    0.930233    0.000000
   17.H        -4.012223   -0.154429    0.000000
   18.H        -4.714807    1.577980    0.000000
   19.C        -0.032360    1.415271    0.000000
   20.H        -0.053320    2.519080    0.000000
 <Oct30-2007> <14:20:41>  >>>> CORORT
 <Oct30-2007> <14:20:41>  >>>> FITINT
 <Oct30-2007> <14:20:46>  >>>> CLSMAT
 <Oct30-2007> <14:20:46>  >>>> ORTHON
 <Oct30-2007> <14:20:46>  >>>> GENPT
 <Oct30-2007> <14:20:46>  Acc.Num.Int.=   6.000
 <Oct30-2007> <14:20:59>  Block Length= 128
 <Oct30-2007> <14:21:02>  >>>> PTBAS
 <Oct30-2007> <14:21:03>  >>>> CYCLE
 <Oct30-2007> <14:21:20>    1
 <Oct30-2007> <14:21:36>    2  ErrMat   0.00129976  MaxEl -0.00074898
 <Oct30-2007> <14:21:52>    3  ErrMat   0.00101258  MaxEl -0.00055093
 <Oct30-2007> <14:22:09>    4  ErrMat   0.00146412  MaxEl -0.00073594
 <Oct30-2007> <14:22:25>    5  ErrMat   0.00060847  MaxEl  0.00016759
 <Oct30-2007> <14:22:42>    6  ErrMat   0.00044051  MaxEl -0.00020038
 <Oct30-2007> <14:22:58>    7  ErrMat   0.00037589  MaxEl -0.00017800
 <Oct30-2007> <14:23:15>    8  ErrMat   0.00026155  MaxEl -0.00012247
 <Oct30-2007> <14:23:31>    9  ErrMat   0.00016838  MaxEl -0.00007510
 <Oct30-2007> <14:23:49>   10  ErrMat   0.00001386  MaxEl  0.00000393
 <Oct30-2007> <14:24:05>   11  ErrMat   0.00000666  MaxEl  0.00000191
 <Oct30-2007> <14:24:22>   12  ErrMat   0.00000150  MaxEl  0.00000067
 <Oct30-2007> <14:24:22>  SCF converged
 <Oct30-2007> <14:24:39>   13  ErrMat   0.00000066  MaxEl  0.00000023
 <Oct30-2007> <14:24:39>  >>>> TOTEN
 <Oct30-2007> <14:25:37>  >>>> POPAN
 <Oct30-2007> <14:25:37>  >>>> DEBYE
 <Oct30-2007> <14:25:37>  >>>> AMETS
 <Oct30-2007> <14:25:37>  >>>> ENGRAD
  Coordinates in Frequency Displacement 72
    Atom         X           Y           Z   (Angstrom)
    1.C        -1.275568    0.692949    0.000000
    2.C        -1.211011   -0.742036    0.000000
    3.C         0.032360   -1.415271    0.000000
    4.C         1.275568   -0.692949    0.000000
    5.C         1.211011    0.742036    0.000000
    6.H        -2.143529   -1.330976    0.000000
    7.H         0.053320   -2.519080    0.000000
    8.H         2.143529    1.330976    0.000000
    9.C         2.571440   -1.457016    0.000000
   10.C         3.824633   -0.930233    0.000000
   11.H         4.012223    0.154429    0.000000
   12.H         2.455501   -2.556634    0.010000
   13.H         4.714807   -1.577980    0.000000
   14.C        -2.571440    1.457016    0.000000
   15.H        -2.455501    2.556634    0.000000
   16.C        -3.824633    0.930233    0.000000
   17.H        -4.012223   -0.154429    0.000000
   18.H        -4.714807    1.577980    0.000000
   19.C        -0.032360    1.415271    0.000000
   20.H        -0.053320    2.519080    0.000000
 <Oct30-2007> <14:25:54>  >>>> CORORT
 <Oct30-2007> <14:25:55>  >>>> FITINT
 <Oct30-2007> <14:26:00>  >>>> CLSMAT
 <Oct30-2007> <14:26:00>  >>>> ORTHON
 <Oct30-2007> <14:26:00>  >>>> GENPT
 <Oct30-2007> <14:26:00>  Acc.Num.Int.=   6.000
 <Oct30-2007> <14:26:01>  Reusing previous cell geometry for gradient smoothing.
 <Oct30-2007> <14:26:09>  Block Length= 128
 <Oct30-2007> <14:26:12>  >>>> PTBAS
 <Oct30-2007> <14:26:13>  >>>> CYCLE
 <Oct30-2007> <14:26:29>    1
 <Oct30-2007> <14:26:46>    2  ErrMat   0.00025392  MaxEl  0.00009577
 <Oct30-2007> <14:27:02>    3  ErrMat   0.00014115  MaxEl  0.00007257
 <Oct30-2007> <14:27:19>    4  ErrMat   0.00009299  MaxEl -0.00003332
 <Oct30-2007> <14:27:35>    5  ErrMat   0.00005389  MaxEl  0.00003079
 <Oct30-2007> <14:27:52>    6  ErrMat   0.00000984  MaxEl -0.00000508
 <Oct30-2007> <14:28:08>    7  ErrMat   0.00000521  MaxEl  0.00000220
 <Oct30-2007> <14:28:25>    8  ErrMat   0.00000135  MaxEl -0.00000053
 <Oct30-2007> <14:28:25>  SCF converged
 <Oct30-2007> <14:28:42>    9  ErrMat   0.00000057  MaxEl -0.00000021
 <Oct30-2007> <14:28:42>  >>>> TOTEN
 <Oct30-2007> <14:29:40>  >>>> POPAN
 <Oct30-2007> <14:29:40>  >>>> DEBYE
 <Oct30-2007> <14:29:40>  >>>> AMETS
 <Oct30-2007> <14:29:40>  >>>> ENGRAD
  Coordinates in Frequency Displacement 73
    Atom         X           Y           Z   (Angstrom)
    1.C        -1.275568    0.692949    0.000000
    2.C        -1.211011   -0.742036    0.000000
    3.C         0.032360   -1.415271    0.000000
    4.C         1.275568   -0.692949    0.000000
    5.C         1.211011    0.742036    0.000000
    6.H        -2.143529   -1.330976    0.000000
    7.H         0.053320   -2.519080    0.000000
    8.H         2.143529    1.330976    0.000000
    9.C         2.571440   -1.457016    0.000000
   10.C         3.824633   -0.930233    0.000000
   11.H         4.012223    0.154429    0.000000
   12.H         2.455501   -2.556634    0.000000
   13.H         4.704807   -1.577980    0.000000
   14.C        -2.571440    1.457016    0.000000
   15.H        -2.455501    2.556634    0.000000
   16.C        -3.824633    0.930233    0.000000
   17.H        -4.012223   -0.154429    0.000000
   18.H        -4.714807    1.577980    0.000000
   19.C        -0.032360    1.415271    0.000000
   20.H        -0.053320    2.519080    0.000000
 <Oct30-2007> <14:29:57>  >>>> CORORT
 <Oct30-2007> <14:29:57>  >>>> FITINT
 <Oct30-2007> <14:30:03>  >>>> CLSMAT
 <Oct30-2007> <14:30:03>  >>>> ORTHON
 <Oct30-2007> <14:30:03>  >>>> GENPT
 <Oct30-2007> <14:30:03>  Acc.Num.Int.=   6.000
 <Oct30-2007> <14:30:10>  Block Length= 128
 <Oct30-2007> <14:30:13>  >>>> PTBAS
 <Oct30-2007> <14:30:14>  >>>> CYCLE
 <Oct30-2007> <14:30:28>    1
 <Oct30-2007> <14:30:43>    2  ErrMat   0.00269777  MaxEl  0.00119212
 <Oct30-2007> <14:30:58>    3  ErrMat   0.00155873  MaxEl  0.00082923
 <Oct30-2007> <14:31:13>    4  ErrMat   0.00167721  MaxEl -0.00077095
 <Oct30-2007> <14:31:28>    5  ErrMat   0.00031157  MaxEl  0.00013780
 <Oct30-2007> <14:31:43>    6  ErrMat   0.00017098  MaxEl -0.00005731
 <Oct30-2007> <14:31:57>    7  ErrMat   0.00002793  MaxEl  0.00000643
 <Oct30-2007> <14:32:12>    8  ErrMat   0.00001193  MaxEl  0.00000405
 <Oct30-2007> <14:32:27>    9  ErrMat   0.00000373  MaxEl -0.00000173
 <Oct30-2007> <14:32:42>   10  ErrMat   0.00000153  MaxEl  0.00000078
 <Oct30-2007> <14:32:42>  SCF converged
 <Oct30-2007> <14:32:57>   11  ErrMat   0.00000032  MaxEl -0.00000013
 <Oct30-2007> <14:32:58>  >>>> TOTEN
 <Oct30-2007> <14:33:50>  >>>> POPAN
 <Oct30-2007> <14:33:50>  >>>> DEBYE
 <Oct30-2007> <14:33:50>  >>>> AMETS
 <Oct30-2007> <14:33:50>  >>>> ENGRAD
  Coordinates in Frequency Displacement 74
    Atom         X           Y           Z   (Angstrom)
    1.C        -1.275568    0.692949    0.000000
    2.C        -1.211011   -0.742036    0.000000
    3.C         0.032360   -1.415271    0.000000
    4.C         1.275568   -0.692949    0.000000
    5.C         1.211011    0.742036    0.000000
    6.H        -2.143529   -1.330976    0.000000
    7.H         0.053320   -2.519080    0.000000
    8.H         2.143529    1.330976    0.000000
    9.C         2.571440   -1.457016    0.000000
   10.C         3.824633   -0.930233    0.000000
   11.H         4.012223    0.154429    0.000000
   12.H         2.455501   -2.556634    0.000000
   13.H         4.724807   -1.577980    0.000000
   14.C        -2.571440    1.457016    0.000000
   15.H        -2.455501    2.556634    0.000000
   16.C        -3.824633    0.930233    0.000000
   17.H        -4.012223   -0.154429    0.000000
   18.H        -4.714807    1.577980    0.000000
   19.C        -0.032360    1.415271    0.000000
   20.H        -0.053320    2.519080    0.000000
 <Oct30-2007> <14:34:05>  >>>> CORORT
 <Oct30-2007> <14:34:05>  >>>> FITINT
 <Oct30-2007> <14:34:11>  >>>> CLSMAT
 <Oct30-2007> <14:34:11>  >>>> ORTHON
 <Oct30-2007> <14:34:11>  >>>> GENPT
 <Oct30-2007> <14:34:11>  Acc.Num.Int.=   6.000
 <Oct30-2007> <14:34:11>  Reusing previous cell geometry for gradient smoothing.
 <Oct30-2007> <14:34:16>  Block Length= 128
 <Oct30-2007> <14:34:19>  >>>> PTBAS
 <Oct30-2007> <14:34:20>  >>>> CYCLE
 <Oct30-2007> <14:34:34>    1
 <Oct30-2007> <14:34:49>    2  ErrMat   0.00027184  MaxEl  0.00011383
 <Oct30-2007> <14:35:04>    3  ErrMat   0.00014827  MaxEl  0.00007305
 <Oct30-2007> <14:35:19>    4  ErrMat   0.00014437  MaxEl  0.00009084
 <Oct30-2007> <14:35:34>    5  ErrMat   0.00005599  MaxEl -0.00001922
 <Oct30-2007> <14:35:49>    6  ErrMat   0.00001369  MaxEl -0.00000456
 <Oct30-2007> <14:36:03>    7  ErrMat   0.00000467  MaxEl -0.00000119
 <Oct30-2007> <14:36:18>    8  ErrMat   0.00000206  MaxEl  0.00000073
 <Oct30-2007> <14:36:18>  SCF converged
 <Oct30-2007> <14:36:33>    9  ErrMat   0.00000047  MaxEl  0.00000023
 <Oct30-2007> <14:36:34>  >>>> TOTEN
 <Oct30-2007> <14:37:26>  >>>> POPAN
 <Oct30-2007> <14:37:26>  >>>> DEBYE
 <Oct30-2007> <14:37:26>  >>>> AMETS
 <Oct30-2007> <14:37:26>  >>>> ENGRAD
  Coordinates in Frequency Displacement 75
    Atom         X           Y           Z   (Angstrom)
    1.C        -1.275568    0.692949    0.000000
    2.C        -1.211011   -0.742036    0.000000
    3.C         0.032360   -1.415271    0.000000
    4.C         1.275568   -0.692949    0.000000
    5.C         1.211011    0.742036    0.000000
    6.H        -2.143529   -1.330976    0.000000
    7.H         0.053320   -2.519080    0.000000
    8.H         2.143529    1.330976    0.000000
    9.C         2.571440   -1.457016    0.000000
   10.C         3.824633   -0.930233    0.000000
   11.H         4.012223    0.154429    0.000000
   12.H         2.455501   -2.556634    0.000000
   13.H         4.714807   -1.587980    0.000000
   14.C        -2.571440    1.457016    0.000000
   15.H        -2.455501    2.556634    0.000000
   16.C        -3.824633    0.930233    0.000000
   17.H        -4.012223   -0.154429    0.000000
   18.H        -4.714807    1.577980    0.000000
   19.C        -0.032360    1.415271    0.000000
   20.H        -0.053320    2.519080    0.000000
 <Oct30-2007> <14:37:41>  >>>> CORORT
 <Oct30-2007> <14:37:41>  >>>> FITINT
 <Oct30-2007> <14:37:47>  >>>> CLSMAT
 <Oct30-2007> <14:37:47>  >>>> ORTHON
 <Oct30-2007> <14:37:47>  >>>> GENPT
 <Oct30-2007> <14:37:47>  Acc.Num.Int.=   6.000
 <Oct30-2007> <14:37:47>  Reusing previous cell geometry for gradient smoothing.
 <Oct30-2007> <14:37:52>  Block Length= 128
 <Oct30-2007> <14:37:55>  >>>> PTBAS
 <Oct30-2007> <14:37:56>  >>>> CYCLE
 <Oct30-2007> <14:38:11>    1
 <Oct30-2007> <14:38:25>    2  ErrMat   0.00254883  MaxEl  0.00137100
 <Oct30-2007> <14:38:40>    3  ErrMat   0.00115480  MaxEl  0.00078622
 <Oct30-2007> <14:38:55>    4  ErrMat   0.00092570  MaxEl -0.00052624
 <Oct30-2007> <14:39:10>    5  ErrMat   0.00028718  MaxEl  0.00010612
 <Oct30-2007> <14:39:25>    6  ErrMat   0.00010648  MaxEl -0.00003337
 <Oct30-2007> <14:39:40>    7  ErrMat   0.00002776  MaxEl -0.00000867
 <Oct30-2007> <14:39:55>    8  ErrMat   0.00001090  MaxEl  0.00000525
 <Oct30-2007> <14:40:10>    9  ErrMat   0.00000431  MaxEl -0.00000256
 <Oct30-2007> <14:40:24>   10  ErrMat   0.00000124  MaxEl  0.00000049
 <Oct30-2007> <14:40:25>  SCF converged
 <Oct30-2007> <14:40:40>   11  ErrMat   0.00000031  MaxEl  0.00000008
 <Oct30-2007> <14:40:40>  >>>> TOTEN
 <Oct30-2007> <14:41:32>  >>>> POPAN
 <Oct30-2007> <14:41:32>  >>>> DEBYE
 <Oct30-2007> <14:41:32>  >>>> AMETS
 <Oct30-2007> <14:41:32>  >>>> ENGRAD
  Coordinates in Frequency Displacement 76
    Atom         X           Y           Z   (Angstrom)
    1.C        -1.275568    0.692949    0.000000
    2.C        -1.211011   -0.742036    0.000000
    3.C         0.032360   -1.415271    0.000000
    4.C         1.275568   -0.692949    0.000000
    5.C         1.211011    0.742036    0.000000
    6.H        -2.143529   -1.330976    0.000000
    7.H         0.053320   -2.519080    0.000000
    8.H         2.143529    1.330976    0.000000
    9.C         2.571440   -1.457016    0.000000
   10.C         3.824633   -0.930233    0.000000
   11.H         4.012223    0.154429    0.000000
   12.H         2.455501   -2.556634    0.000000
   13.H         4.714807   -1.567980    0.000000
   14.C        -2.571440    1.457016    0.000000
   15.H        -2.455501    2.556634    0.000000
   16.C        -3.824633    0.930233    0.000000
   17.H        -4.012223   -0.154429    0.000000
   18.H        -4.714807    1.577980    0.000000
   19.C        -0.032360    1.415271    0.000000
   20.H        -0.053320    2.519080    0.000000
 <Oct30-2007> <14:41:47>  >>>> CORORT
 <Oct30-2007> <14:41:48>  >>>> FITINT
 <Oct30-2007> <14:41:53>  >>>> CLSMAT
 <Oct30-2007> <14:41:53>  >>>> ORTHON
 <Oct30-2007> <14:41:53>  >>>> GENPT
 <Oct30-2007> <14:41:53>  Acc.Num.Int.=   6.000
 <Oct30-2007> <14:41:53>  Reusing previous cell geometry for gradient smoothing.
 <Oct30-2007> <14:41:58>  Block Length= 128
 <Oct30-2007> <14:42:01>  >>>> PTBAS
 <Oct30-2007> <14:42:02>  >>>> CYCLE
 <Oct30-2007> <14:42:16>    1
 <Oct30-2007> <14:42:31>    2  ErrMat   0.00023098  MaxEl  0.00008361
 <Oct30-2007> <14:42:46>    3  ErrMat   0.00012775  MaxEl  0.00005623
 <Oct30-2007> <14:43:01>    4  ErrMat   0.00010352  MaxEl -0.00006546
 <Oct30-2007> <14:43:16>    5  ErrMat   0.00006901  MaxEl  0.00003171
 <Oct30-2007> <14:43:30>    6  ErrMat   0.00000584  MaxEl -0.00000196
 <Oct30-2007> <14:43:45>    7  ErrMat   0.00000362  MaxEl -0.00000109
 <Oct30-2007> <14:44:00>    8  ErrMat   0.00000112  MaxEl  0.00000049
 <Oct30-2007> <14:44:00>  SCF converged
 <Oct30-2007> <14:44:15>    9  ErrMat   0.00000048  MaxEl -0.00000023
 <Oct30-2007> <14:44:16>  >>>> TOTEN
 <Oct30-2007> <14:45:07>  >>>> POPAN
 <Oct30-2007> <14:45:07>  >>>> DEBYE
 <Oct30-2007> <14:45:07>  >>>> AMETS
 <Oct30-2007> <14:45:07>  >>>> ENGRAD
  Coordinates in Frequency Displacement 77
    Atom         X           Y           Z   (Angstrom)
    1.C        -1.275568    0.692949    0.000000
    2.C        -1.211011   -0.742036    0.000000
    3.C         0.032360   -1.415271    0.000000
    4.C         1.275568   -0.692949    0.000000
    5.C         1.211011    0.742036    0.000000
    6.H        -2.143529   -1.330976    0.000000
    7.H         0.053320   -2.519080    0.000000
    8.H         2.143529    1.330976    0.000000
    9.C         2.571440   -1.457016    0.000000
   10.C         3.824633   -0.930233    0.000000
   11.H         4.012223    0.154429    0.000000
   12.H         2.455501   -2.556634    0.000000
   13.H         4.714807   -1.577980   -0.010000
   14.C        -2.571440    1.457016    0.000000
   15.H        -2.455501    2.556634    0.000000
   16.C        -3.824633    0.930233    0.000000
   17.H        -4.012223   -0.154429    0.000000
   18.H        -4.714807    1.577980    0.000000
   19.C        -0.032360    1.415271    0.000000
   20.H        -0.053320    2.519080    0.000000
 <Oct30-2007> <14:45:23>  >>>> CORORT
 <Oct30-2007> <14:45:23>  >>>> FITINT
 <Oct30-2007> <14:45:28>  >>>> CLSMAT
 <Oct30-2007> <14:45:28>  >>>> ORTHON
 <Oct30-2007> <14:45:28>  >>>> GENPT
 <Oct30-2007> <14:45:28>  Acc.Num.Int.=   6.000
 <Oct30-2007> <14:45:41>  Block Length= 128
 <Oct30-2007> <14:45:44>  >>>> PTBAS
 <Oct30-2007> <14:45:45>  >>>> CYCLE
 <Oct30-2007> <14:46:00>    1
 <Oct30-2007> <14:46:16>    2  ErrMat   0.00135031  MaxEl  0.00079069
 <Oct30-2007> <14:46:32>    3  ErrMat   0.00099092  MaxEl  0.00058042
 <Oct30-2007> <14:46:48>    4  ErrMat   0.00022534  MaxEl -0.00012574
 <Oct30-2007> <14:47:04>    5  ErrMat   0.00003520  MaxEl  0.00002034
 <Oct30-2007> <14:47:20>    6  ErrMat   0.00001621  MaxEl -0.00000570
 <Oct30-2007> <14:47:36>    7  ErrMat   0.00000816  MaxEl  0.00000363
 <Oct30-2007> <14:47:52>    8  ErrMat   0.00000310  MaxEl  0.00000098
 <Oct30-2007> <14:47:52>  SCF converged
 <Oct30-2007> <14:48:08>    9  ErrMat   0.00000116  MaxEl -0.00000056
 <Oct30-2007> <14:48:08>  >>>> TOTEN
 <Oct30-2007> <14:49:04>  >>>> POPAN
 <Oct30-2007> <14:49:04>  >>>> DEBYE
 <Oct30-2007> <14:49:04>  >>>> AMETS
 <Oct30-2007> <14:49:04>  >>>> ENGRAD
  Coordinates in Frequency Displacement 78
    Atom         X           Y           Z   (Angstrom)
    1.C        -1.275568    0.692949    0.000000
    2.C        -1.211011   -0.742036    0.000000
    3.C         0.032360   -1.415271    0.000000
    4.C         1.275568   -0.692949    0.000000
    5.C         1.211011    0.742036    0.000000
    6.H        -2.143529   -1.330976    0.000000
    7.H         0.053320   -2.519080    0.000000
    8.H         2.143529    1.330976    0.000000
    9.C         2.571440   -1.457016    0.000000
   10.C         3.824633   -0.930233    0.000000
   11.H         4.012223    0.154429    0.000000
   12.H         2.455501   -2.556634    0.000000
   13.H         4.714807   -1.577980    0.010000
   14.C        -2.571440    1.457016    0.000000
   15.H        -2.455501    2.556634    0.000000
   16.C        -3.824633    0.930233    0.000000
   17.H        -4.012223   -0.154429    0.000000
   18.H        -4.714807    1.577980    0.000000
   19.C        -0.032360    1.415271    0.000000
   20.H        -0.053320    2.519080    0.000000
 <Oct30-2007> <14:49:21>  >>>> CORORT
 <Oct30-2007> <14:49:21>  >>>> FITINT
 <Oct30-2007> <14:49:26>  >>>> CLSMAT
 <Oct30-2007> <14:49:26>  >>>> ORTHON
 <Oct30-2007> <14:49:26>  >>>> GENPT
 <Oct30-2007> <14:49:26>  Acc.Num.Int.=   6.000
 <Oct30-2007> <14:49:27>  Reusing previous cell geometry for gradient smoothing.
 <Oct30-2007> <14:49:36>  Block Length= 128
 <Oct30-2007> <14:49:39>  >>>> PTBAS
 <Oct30-2007> <14:49:40>  >>>> CYCLE
 <Oct30-2007> <14:49:56>    1
 <Oct30-2007> <14:50:12>    2  ErrMat   0.00020076  MaxEl  0.00009772
 <Oct30-2007> <14:50:28>    3  ErrMat   0.00013076  MaxEl  0.00007387
 <Oct30-2007> <14:50:43>    4  ErrMat   0.00014743  MaxEl -0.00008392
 <Oct30-2007> <14:50:59>    5  ErrMat   0.00002884  MaxEl  0.00000911
 <Oct30-2007> <14:51:15>    6  ErrMat   0.00000816  MaxEl -0.00000291
 <Oct30-2007> <14:51:31>    7  ErrMat   0.00000303  MaxEl -0.00000076
 <Oct30-2007> <14:51:31>  SCF converged
 <Oct30-2007> <14:51:47>    8  ErrMat   0.00000155  MaxEl  0.00000075
 <Oct30-2007> <14:51:48>  >>>> TOTEN
 <Oct30-2007> <14:52:43>  >>>> POPAN
 <Oct30-2007> <14:52:43>  >>>> DEBYE
 <Oct30-2007> <14:52:43>  >>>> AMETS
 <Oct30-2007> <14:52:43>  >>>> ENGRAD
 <Oct30-2007> <14:53:00>  ...
 <Oct30-2007> <14:53:00>   Skipping symmetry-equivalent displacements
 <Oct30-2007> <14:53:00>  ...
 <Oct30-2007> <14:53:00>  Force Constants computed
 <Oct30-2007> <14:53:00>  >>>> CORORT
 <Oct30-2007> <14:53:00>  >>>> FITINT
 <Oct30-2007> <14:53:06>  >>>> CLSMAT
 <Oct30-2007> <14:53:06>  >>>> ORTHON
 <Oct30-2007> <14:53:06>  >>>> GENPT
 <Oct30-2007> <14:53:06>  Acc.Num.Int.=   6.000
 <Oct30-2007> <14:53:12>  Boundaries 1. RPNTOU
 <Oct30-2007> <14:53:12>  END
