

 Parallel Execution: Process Information
 ==============================================================================
 Rank   Node Name                              NodeID   MyNodeRank  NodeMaster
    0   thallium.itc.univie.ac.at                 0          0          0
    1   thallium.itc.univie.ac.at                 0          1         -1
 ==============================================================================



ATOMS
C          1.75000        0.00000        0.59225
C         -1.75000        0.00000        0.59225
O          1.75000        0.00000       -0.59537
O         -1.75000        0.00000       -0.59537
H          1.75000        0.92490        1.17073
H         -1.75000        0.92490        1.17073
H          1.75000       -0.92490        1.17073
H         -1.75000       -0.92490        1.17073
END

SYMMETRY NOSYM

XC
GGA PBE
END

EXCITATION
DAVIDSON
lowest 3
END

EPRINT
SFO EIG OVL

SCF
iterations 100
END

BeckeGrid
    Quality Good
End

ZlmFit
    Quality Normal
End

NOPRINT LOGFILE

Fragments
H t21.H
O t21.O
C t21.C
End
end input

 *******************************************************************************
 *                                                                             *
 *  -------------------------------------                                      *
 *   Amsterdam Density Functional  (ADF)         branches/AndrewAtkins/ADF-Shar*
 *  -------------------------------------                                      *
 *                                               r50467 2016-02-17             *
 *                                                                             *
 *                                                                             *
 *                              =================                              *
 *                              |               |                              *
 *                              |     A D F     |                              *
 *                              |               |                              *
 *                              =================                              *
 *                                                                             *
 *                                                                             *
 *   Online information and documentation:  http://www.scm.com                 *
 *   E-mail:  support@scm.com   info@scm.com                                   *
 *                                                                             *
 *   Scientific publications using ADF results must be properly referenced     *
 *   See the User Manuals (or the web site) for recommended citations          *
 *   The terms and conditions of the End User License Agreement apply to       *
 *   the use of ADF, http://www.scm.com/Sales/LicAgreement.html                *
 *                                                                             *
 **********************  x86_64_linux_intel / intelmpi  ************************
 
 Licensed to: Dr. Markus Oppel / Institut of Theoretical Chemistry, University of Vienna / Vienna / AUSTRIA
 SCM User ID: u15689
  
 ADF branches/AndrewAtkins/ADF-Sharc  RunTime: May02-2016 18:18:09  Nodes: 1  Procs: 2

 Temporary files are created in /public/thallium/scratch/tmp/plasserf.43363/kid_0.MhHZ41


Communication costs MPI_COMM_WORLD:      0.988 usec per message,   0.0038 usec per 8-byte item
Communication costs for intra-node:      0.987 usec per message,   0.0037 usec per 8-byte item

 *** (NO TITLE) ***



 ===========================
 A T T A C H E D   F I L E S
 ===========================
  



 ===============================
 M O D E L   P A R A M E T E R S
 ===============================
  
 DENSITY FUNCTIONAL POTENTIAL (scf)
    LDA:                               PW92                                    == Not Default ==
    Gradient Corrections:              PBEc PBEx                               == Not Default ==

 SPIN  (restricted / unrestr.)
    Molecule:                          Restricted                               
    Fragments:                         Restricted                               

 OTHER ASPECTS
    Relativistic Corrections:          ---                                      

    Nuclear Charge Density Model:      Point Charge Nuclei                                                                                                                                                                                     
    Core Treatment:                    Frozen Orbital(s)                        

    Hyperfine or Zeeman Interaction:   ---                                      


 Fragment File(s)
 ----------------
 C:
         file : t21.C
         jobid: ADF branches/AndrewAtkins/ADF-Sharc  RunTime: May02-2016 18:18:08  Nodes: 1  Procs: 1
         title: Carbon (DZ)
 O:
         file : t21.O
         jobid: ADF branches/AndrewAtkins/ADF-Sharc  RunTime: May02-2016 18:18:08  Nodes: 1  Procs: 1
         title: Oxygen (DZ)
 H:
         file : t21.H
         jobid: ADF branches/AndrewAtkins/ADF-Sharc  RunTime: May02-2016 18:18:08  Nodes: 1  Procs: 1
         title: Hydrogen (DZ)



                                        ************************************
                                        *  R U N   T Y P E : SINGLE POINT  *
                                        ************************************
  



 ===============
 G E O M E T R Y  ***  3D  Molecule  ***
 ===============
  

 ATOMS
 =====                            X Y Z                    CHARGE
                                (Angstrom)             Nucl     +Core       At.Mass
                       --------------------------    ----------------       -------
    1  C               1.7500    0.0000    0.5923      6.00      6.00       12.0000
    2  C              -1.7500    0.0000    0.5923      6.00      6.00       12.0000
    3  O               1.7500    0.0000   -0.5954      8.00      8.00       15.9949
    4  O              -1.7500    0.0000   -0.5954      8.00      8.00       15.9949
    5  H               1.7500    0.9249    1.1707      1.00      1.00        1.0078
    6  H              -1.7500    0.9249    1.1707      1.00      1.00        1.0078
    7  H               1.7500   -0.9249    1.1707      1.00      1.00        1.0078
    8  H              -1.7500   -0.9249    1.1707      1.00      1.00        1.0078


 FRAGMENTS
 =========                                     Atoms in this Fragment     Cart. coord.s (Angstrom)
                                               -------------------------------------------------------
    1  C                                                 1  C            1.7500    0.0000    0.5923
    2  C                                                 2  C           -1.7500    0.0000    0.5923
    3  O                                                 3  O            1.7500    0.0000   -0.5954
    4  O                                                 4  O           -1.7500    0.0000   -0.5954
    5  H                                                 5  H            1.7500    0.9249    1.1707
    6  H                                                 6  H           -1.7500    0.9249    1.1707
    7  H                                                 7  H            1.7500   -0.9249    1.1707
    8  H                                                 8  H           -1.7500   -0.9249    1.1707


 Interatomic Distance Matrix (Angstrom)
 --------------------------------------

   1)     0.000
   2)     3.500   0.000
   3)     1.188   3.696   0.000
   4)     3.696   1.188   3.500   0.000
   5)     1.091   3.666   1.994   4.028   0.000
   6)     3.666   1.091   4.028   1.994   3.500   0.000
   7)     1.091   3.666   1.994   4.028   1.850   3.959   0.000
   8)     3.666   1.091   4.028   1.994   3.959   1.850   3.500   0.000

 Min. Distance =    1.0909
 Max. Distance =    4.0280



 =====================================
 S Y M M E T R Y ,   E L E C T R O N S
 =====================================
  
 Symmetry: NOSYM

 Irreducible Representations, including subspecies
 -------------------------------------------------
 A


 Configuration of Valence Electrons
 ==================================
 ( determined in the SCF procedure )

 Total:   32

 Net Charge: 0 (Nuclei minus Electrons)

 Aufbau principle for MO occupations will be applied through SCF cycle no.     150
 Thereafter, the program will assign electrons to MOs that are spatially
 similar to the occupied MOs in a "reference" cycle ("KeepOrbitals").
 The reference cycle is always the PREVIOUS cycle: it will evolve with
 the SCF procedure.
1
 ***************************************************************************************************



                                      ****************************************
                                      *  B U I L D : (Fragments, Functions)  *
                                      ****************************************
  



 =======
 S F O s  ***  (Symmetrized Fragment Orbitals)  ***
 =======
  
 SFOs are linear combinations of (valence) Fragment Orbitals (FOs), such that the SFOs transform as the
 irreducible representations of the (molecular) symmetry group. Each SFO is therefore characterized by
 an irrep of the molecule and by a few (or only one) generating FOs.
 The SFOs constitute a symmetry-adapted basis for the Fock matrix. The MO eigenvector coefficients in
 this basis provide a direct interpretation of the MOs in terms of Frontier Orbital Theory.

 The SFOs are combined with auxiliary Core Functions (CFs) to ensure orthogonalization on the (frozen)
 Core Orbitals (COs). The Core-orthogonalized SFOs (CSFOs) constitute the true Fock basis.

 The FOs, and hence also the (C)SFOs are combinations of the elementary basis functions (BAS). The basis
 functions that participate in the description of the SFOs depend on the irrep. The indices of the
 involved functions are printed below for each irrep.
 (The complete list of primitive basis functions is printed in another section)

 Total nr. of (C)SFOs (summation over all irreps) :    48

 NOTE: a (C)SFO that is defined as a combination of more than one FO is usually NOT normalized.



                                       === A ===
 Nr. of SFOs :   48
 Cartesian basis functions that participate in this irrep (total number =    48) :
      1     2     3     4     5     8     6     9     7    10
     11    12    13    14    15    18    16    19    17    20
     21    22    23    24    25    28    26    29    27    30
     31    32    33    34    35    38    36    39    37    40
     41    42    43    44    45    46    47    48

    SFO  (index         Fragment          Generating    Expansion in Fragment Orbitals
  indx  incl.CFs)   Occup   Orb.Energy   FragmentType  Coeff.   Orbital     on Fragment
 --------------------------------------------------------------------------------------
     1       1      2.000     -10.052 au  C             1.00      1 S               1
                        (    -273.517 eV)
     2       2      2.000      -0.511 au  C             1.00      2 S               1
                        (     -13.907 eV)
     3       3       --         0.412 au  C             1.00      3 S               1
                        (      11.200 eV)
     4       4       --        21.798 au  C             1.00      4 S               1
                        (     593.157 eV)
     5       5      0.667      -0.198 au  C             1.00      1 P:x             1
                        (      -5.386 eV)
     6       6       --         0.448 au  C             1.00      2 P:x             1
                        (      12.196 eV)
     7       7      0.667      -0.198 au  C             1.00      1 P:y             1
                        (      -5.386 eV)
     8       8       --         0.448 au  C             1.00      2 P:y             1
                        (      12.196 eV)
     9       9      0.667      -0.198 au  C             1.00      1 P:z             1
                        (      -5.386 eV)
    10      10       --         0.448 au  C             1.00      2 P:z             1
                        (      12.196 eV)
    11      11      2.000     -10.052 au  C             1.00      1 S               2
                        (    -273.517 eV)
    12      12      2.000      -0.511 au  C             1.00      2 S               2
                        (     -13.907 eV)
    13      13       --         0.412 au  C             1.00      3 S               2
                        (      11.200 eV)
    14      14       --        21.798 au  C             1.00      4 S               2
                        (     593.157 eV)
    15      15      0.667      -0.198 au  C             1.00      1 P:x             2
                        (      -5.386 eV)
    16      16       --         0.448 au  C             1.00      2 P:x             2
                        (      12.196 eV)
    17      17      0.667      -0.198 au  C             1.00      1 P:y             2
                        (      -5.386 eV)
    18      18       --         0.448 au  C             1.00      2 P:y             2
                        (      12.196 eV)
    19      19      0.667      -0.198 au  C             1.00      1 P:z             2
                        (      -5.386 eV)
    20      20       --         0.448 au  C             1.00      2 P:z             2
                        (      12.196 eV)
    21      21      2.000     -18.927 au  O             1.00      1 S               3
                        (    -515.031 eV)
    22      22      2.000      -0.888 au  O             1.00      2 S               3
                        (     -24.177 eV)
    23      23       --         0.863 au  O             1.00      3 S               3
                        (      23.477 eV)
    24      24       --        37.430 au  O             1.00      4 S               3
                        (    1018.511 eV)
    25      25      1.333      -0.336 au  O             1.00      1 P:x             3
                        (      -9.147 eV)
    26      26       --         0.825 au  O             1.00      2 P:x             3
                        (      22.445 eV)
    27      27      1.333      -0.336 au  O             1.00      1 P:y             3
                        (      -9.147 eV)
    28      28       --         0.825 au  O             1.00      2 P:y             3
                        (      22.445 eV)
    29      29      1.333      -0.336 au  O             1.00      1 P:z             3
                        (      -9.147 eV)
    30      30       --         0.825 au  O             1.00      2 P:z             3
                        (      22.445 eV)
    31      31      2.000     -18.927 au  O             1.00      1 S               4
                        (    -515.031 eV)
    32      32      2.000      -0.888 au  O             1.00      2 S               4
                        (     -24.177 eV)
    33      33       --         0.863 au  O             1.00      3 S               4
                        (      23.477 eV)
    34      34       --        37.430 au  O             1.00      4 S               4
                        (    1018.511 eV)
    35      35      1.333      -0.336 au  O             1.00      1 P:x             4
                        (      -9.147 eV)
    36      36       --         0.825 au  O             1.00      2 P:x             4
                        (      22.445 eV)
    37      37      1.333      -0.336 au  O             1.00      1 P:y             4
                        (      -9.147 eV)
    38      38       --         0.825 au  O             1.00      2 P:y             4
                        (      22.445 eV)
    39      39      1.333      -0.336 au  O             1.00      1 P:z             4
                        (      -9.147 eV)
    40      40       --         0.825 au  O             1.00      2 P:z             4
                        (      22.445 eV)
    41      41      1.000      -0.239 au  H             1.00      1 S               5
                        (      -6.514 eV)
    42      42       --         0.390 au  H             1.00      2 S               5
                        (      10.620 eV)
    43      43      1.000      -0.239 au  H             1.00      1 S               6
                        (      -6.514 eV)
    44      44       --         0.390 au  H             1.00      2 S               6
                        (      10.620 eV)
    45      45      1.000      -0.239 au  H             1.00      1 S               7
                        (      -6.514 eV)
    46      46       --         0.390 au  H             1.00      2 S               7
                        (      10.620 eV)
    47      47      1.000      -0.239 au  H             1.00      1 S               8
                        (      -6.514 eV)
    48      48       --         0.390 au  H             1.00      2 S               8
                        (      10.620 eV)



 ================================
 (Slater-type)  F U N C T I O N S  ***  (Basis and Fit)  ***
 ================================
  

 Atom Type    1  (C)
 ==============

 Valence Basis Sets:   6
 -----------------------
   1 S    7.680000
   1 S    5.000000
   2 S    1.980000
   2 S    1.240000
   2 P    2.200000
   2 P    0.960000

 Atom Type    2  (O)
 ==============

 Valence Basis Sets:   6
 -----------------------
   1 S    9.800000
   1 S    6.800000
   2 S    1.700000
   2 S    2.820000
   2 P    3.060000
   2 P    1.300000

 Atom Type    3  (H)
 ==============

 Valence Basis Sets:   2
 -----------------------
   1 S    0.760000
   1 S    1.280000


 BAS: List of all Elementary Cartesian Basis Functions
 =====================================================

 The numbering in the list below (to the right of the function characteristics) is referred
 to in print-outs of MO eigenvectors and Mulliken populations in the BAS representation
 (as contrasted to the SFO representation).

 Notes:
 1. The functions are characterized by a polynomial prefactor (powers of x,y,z and r) and
    an exponential decay factor alpha.
 2. Since the basis sets are specific for an atom TYPE, the individual functions occur on
    all atoms of that type.
 3. The word 'Core' in the left margin signals that it is a Core Function (CF) : not a
    degree of freedom in the valence set, but only used to ensure orthogonalization of
    the other valence basis functions on the frozen Core Orbitals.


 (power of) X  Y  Z  R     Alpha  on Atom
            ==========     =====     ==========

 C                                    1    2
                                  ---------------------------------------------------------------------------
            0  0  0  0     7.680      1   11
            0  0  0  0     5.000      2   12
            0  0  0  1     1.980      3   13
            0  0  0  1     1.240      4   14
            1  0  0  0     2.200      5   15
            0  1  0  0     2.200      6   16
            0  0  1  0     2.200      7   17
            1  0  0  0     0.960      8   18
            0  1  0  0     0.960      9   19
            0  0  1  0     0.960     10   20

 O                                    3    4
                                  ---------------------------------------------------------------------------
            0  0  0  0     9.800     21   31
            0  0  0  0     6.800     22   32
            0  0  0  1     1.700     23   33
            0  0  0  1     2.820     24   34
            1  0  0  0     3.060     25   35
            0  1  0  0     3.060     26   36
            0  0  1  0     3.060     27   37
            1  0  0  0     1.300     28   38
            0  1  0  0     1.300     29   39
            0  0  1  0     1.300     30   40

 H                                    5    6    7    8
                                  ---------------------------------------------------------------------------
            0  0  0  0     0.760     41   43   45   47
            0  0  0  0     1.280     42   44   46   48

 Total number of charge fitting functions (nprimf)       536
 Total number of Cartesian basis functions (naos)         48
 Total number of Cartesian core functions  (ncos)          0

1
 ***************************************************************************************************



                                              ***********************
                                              *  T E C H N I C A L  *
                                              ***********************
  



 =============================================================
 P A R A L L E L I Z A T I O N  and  V E C T O R I Z A T I O N
 =============================================================
  
 Nr of parallel processes:                                2
 Maximum vector length in NumInt loops:                 128

 IO buffersize (Mb):                                     64.000000



 =====================
 S C F   U P D A T E S
 =====================
  
 Max. nr. of cycles:                               300
 Convergence criterion:                              0.0000010000
   secondary criterion:                              0.0010000000

 Mix parameter (when DIIS does not apply):           0.2000000000
 Mixed ADIIS+DIIS will be used
    Max number of expansion vectors:                10
    Pure ADIIS when Max([F,P]) is above              0.1000000000
    Pure DIIS when Max([F,P]) is below               0.0010000000
 Automatic ElectronSmearing (in case of problematic SCF convergence) disabled



 =================
 P R E C I S I O N  ***  (General: NumInt, NeglectFunctionTails, ...)  ***
 =================
  

 NumInt:           Target precision:                 6.0000000000
 -------           Initial precision:                6.0000000000
                   Min. precision (optimization):    6.0000000000

 Neglect Functions:          Basis functions:        0.1000000000E-15
 ------------------          Fit functions:          0.1000000000E-15



 ===========================
 L I N E A R   S C A L I N G
 ===========================
  

 Cut-off radii density fit:                        0.1000000000E-09
 Overlap cut-off criterion AO matrix elements:     0.1000000000E-07
 Cut-offs for Coulomb potential and fitted density:0.1000000000E-09
 Cut-off criterion for Coulomb multipole terms:    0.1000000000E-09
 Progressive Convergence parameter:                 0.000000000    
1
 ***************************************************************************************************



                                            ***************************
                                            *  C O M P U T A T I O N  *
                                            ***************************
  

 Number of elements of the density matrix on this node (used, total):       611      1176



 ===========================================
 Numerical Integration : Fuzzy Cells (Becke)
 ===========================================
  
 Becke grid quality: GOOD           
  
 Lebedev angular grid order:             min:  11 max:  31
 Nr. of radial points:                   min:  54 max:  61

 Total nr. of points:      98410
 Nr. of blocks:              769
 Block length:               128
 Nr. of dummy points:         22


 Test of Precision of the Numerical Integration Grid
 ===================================================

 Integral of the Total Core Density:                   0.00000000000000



 ========================
 Density Fitting (zlmFit)
 ========================
  
 ZlmFit Fit Quality: NORMAL         
  
 Max L-expansion:                        min:   4 max:   5
 Nr. of radial interpolation points:     min:  36 max:  54



 =====
 S C F  ***  ScaSCF  ***
 =====
  
 Initial density matrix is calculated as sum of fragments

 CYCLE    1
 SCF Error: norm([F,P])=      4.557611769276, max([F,P])=      1.579922455257
 orbitals (Q,E):
 ---------------
 A :7...26           ( 2.00    -0.7130)  ( 2.00    -0.7108)  ( 2.00    -0.5906)  ( 2.00    -0.5895)
                     ( 2.00    -0.5689)  ( 2.00    -0.5677)  ( 2.00    -0.5051)  ( 2.00    -0.4969)
                     ( 2.00    -0.3721)  ( 2.00    -0.3707)  ( 0.00    -0.2101)  ( 0.00    -0.1925)
                     ( 0.00    -0.0313)  ( 0.00     0.0011)  ( 0.00     0.0446)  ( 0.00     0.0539)
                     ( 0.00     0.0755)  ( 0.00     0.1078)  ( 0.00     0.3057)  ( 0.00     0.3897)

 CYCLE    2
   MIX coefficients:  0.8000  0.2000
 SCF Error: norm([F,P])=      0.838326986816, max([F,P])=      0.251300385686
 orbitals (Q,E):
 ---------------
 A :7...17           ( 2.00    -0.6819)  ( 2.00    -0.6794)  ( 2.00    -0.5558)  ( 2.00    -0.5543)
                     ( 2.00    -0.5028)  ( 2.00    -0.5015)  ( 2.00    -0.4557)  ( 2.00    -0.4453)
                     ( 2.00    -0.3165)  ( 2.00    -0.3148)  ( 0.00    -0.1729)

 CYCLE    3
  SDIIS (wt  0.000): -0.4125  1.4125
 A-DIIS (wt  1.000):  0.0000  1.0000
  DIIS coefficients:  0.0000  1.0000
 SCF Error: norm([F,P])=      0.331237883613, max([F,P])=      0.088660106599
 orbitals (Q,E):
 ---------------
 A :7...17           ( 2.00    -0.5672)  ( 2.00    -0.5633)  ( 2.00    -0.4426)  ( 2.00    -0.4401)
                     ( 2.00    -0.3498)  ( 2.00    -0.3437)  ( 2.00    -0.3428)  ( 2.00    -0.3327)
                     ( 2.00    -0.1879)  ( 2.00    -0.1849)  ( 0.00    -0.0701)

 CYCLE    4
  SDIIS (wt  0.000):  0.3541  0.0809  0.5649
 A-DIIS (wt  1.000):  0.0000  0.6815  0.3185
  DIIS coefficients:  0.0000  0.6815  0.3185
 SCF Error: norm([F,P])=      0.569091304681, max([F,P])=      0.161913057618
 orbitals (Q,E):
 ---------------
 A :7...17           ( 2.00    -0.5858)  ( 2.00    -0.5822)  ( 2.00    -0.4660)  ( 2.00    -0.4639)
                     ( 2.00    -0.4049)  ( 2.00    -0.4030)  ( 2.00    -0.3952)  ( 2.00    -0.3826)
                     ( 2.00    -0.2360)  ( 2.00    -0.2335)  ( 0.00    -0.1081)

 CYCLE    5
  SDIIS (wt  0.424): -0.1620  0.5326  0.0820  0.5474
 A-DIIS (wt  0.576):  0.0000  0.0000  0.0000  1.0000
  DIIS coefficients: -0.0686  0.2257  0.0347  0.8082
 SCF Error: norm([F,P])=      0.164915611748, max([F,P])=      0.058048079121
 orbitals (Q,E):
 ---------------
 A :7...17           ( 2.00    -0.6164)  ( 2.00    -0.6131)  ( 2.00    -0.4909)  ( 2.00    -0.4889)
                     ( 2.00    -0.4081)  ( 2.00    -0.4057)  ( 2.00    -0.4048)  ( 2.00    -0.3925)
                     ( 2.00    -0.2381)  ( 2.00    -0.2357)  ( 0.00    -0.1237)

 CYCLE    6
  SDIIS (wt  0.000):  0.0152  0.0389 -0.0278  0.5797  0.3940
 A-DIIS (wt  1.000):  0.0000  0.0000  0.0000  0.6617  0.3383
  DIIS coefficients:  0.0000  0.0000  0.0000  0.6617  0.3383
 SCF Error: norm([F,P])=      0.278488523989, max([F,P])=      0.109829031330
 orbitals (Q,E):
 ---------------
 A :7...17           ( 2.00    -0.6100)  ( 2.00    -0.6066)  ( 2.00    -0.4871)  ( 2.00    -0.4851)
                     ( 2.00    -0.4192)  ( 2.00    -0.4173)  ( 2.00    -0.4102)  ( 2.00    -0.3980)
                     ( 2.00    -0.2475)  ( 2.00    -0.2451)  ( 0.00    -0.1256)

 CYCLE    7
  SDIIS (wt  0.903): -0.0253  0.0471  0.0635  0.1461 -0.0722  0.8408
 A-DIIS (wt  0.097):  0.0000  0.0000  0.0000  0.0139  0.0000  0.9861
  DIIS coefficients: -0.0229  0.0425  0.0574  0.1333 -0.0652  0.8549
 SCF Error: norm([F,P])=      0.047695097494, max([F,P])=      0.010610248844
 orbitals (Q,E):
 ---------------
 A :7...17           ( 2.00    -0.6034)  ( 2.00    -0.5999)  ( 2.00    -0.4807)  ( 2.00    -0.4787)
                     ( 2.00    -0.4125)  ( 2.00    -0.4106)  ( 2.00    -0.4035)  ( 2.00    -0.3910)
                     ( 2.00    -0.2420)  ( 2.00    -0.2396)  ( 0.00    -0.1190)

 CYCLE    8
  SDIIS (wt  0.997): -0.0053  0.0085  0.0092  0.0308 -0.0087  0.2280  0.7375
 A-DIIS (wt  0.003):  0.0000  0.0000  0.0000  0.0000  0.0000  0.0000  1.0000
  DIIS coefficients: -0.0053  0.0084  0.0092  0.0307 -0.0087  0.2274  0.7382
 SCF Error: norm([F,P])=      0.005324957559, max([F,P])=      0.001263861713
 orbitals (Q,E):
 ---------------
 A :7...17           ( 2.00    -0.6039)  ( 2.00    -0.6005)  ( 2.00    -0.4813)  ( 2.00    -0.4792)
                     ( 2.00    -0.4131)  ( 2.00    -0.4112)  ( 2.00    -0.4042)  ( 2.00    -0.3917)
                     ( 2.00    -0.2425)  ( 2.00    -0.2401)  ( 0.00    -0.1197)

 CYCLE    9
  SDIIS (wt  1.000): -0.0003  0.0004  0.0006  0.0019  0.0003  0.0217  0.1279  0.8474
  DIIS coefficients: -0.0003  0.0004  0.0006  0.0019  0.0003  0.0217  0.1279  0.8474
 SCF Error: norm([F,P])=      0.000247566651, max([F,P])=      0.000099743068
 orbitals (Q,E):
 ---------------
 A :7...17           ( 2.00    -0.6039)  ( 2.00    -0.6005)  ( 2.00    -0.4813)  ( 2.00    -0.4792)
                     ( 2.00    -0.4131)  ( 2.00    -0.4112)  ( 2.00    -0.4042)  ( 2.00    -0.3917)
                     ( 2.00    -0.2425)  ( 2.00    -0.2401)  ( 0.00    -0.1197)

 CYCLE   10
  SDIIS (wt  1.000): -0.0000  0.0000  0.0000  0.0001  0.0000  0.0007  0.0045  0.0500  0.9447
  DIIS coefficients: -0.0000  0.0000  0.0000  0.0001  0.0000  0.0007  0.0045  0.0500  0.9447
 SCF Error: norm([F,P])=      0.000002407877, max([F,P])=      0.000000595013
 orbitals (Q,E):
 ---------------
 A :7...17           ( 2.00    -0.6039)  ( 2.00    -0.6005)  ( 2.00    -0.4813)  ( 2.00    -0.4792)
                     ( 2.00    -0.4131)  ( 2.00    -0.4112)  ( 2.00    -0.4042)  ( 2.00    -0.3917)
                     ( 2.00    -0.2425)  ( 2.00    -0.2401)  ( 0.00    -0.1197)

 SCF CONVERGED

 CYCLE   11
1
 ***************************************************************************************************



                                                *******************
                                                *  R E S U L T S  *
                                                *******************
  
 *** Setting up for NEW gradients in Focky
 *** Using FIT density in Focky

 Orbital Energies, per Irrep and Spin:
 ======================================
                        Occup              E (au)              E (eV)       Diff (eV) with prev. cycle
                        -----      --------------------        ------       --------------------------
 A
               7        2.000     -0.60392617634780E+00       -16.434               1.02E-06
               8        2.000     -0.60045660998020E+00       -16.339               9.12E-07
               9        2.000     -0.48128519792829E+00       -13.096               3.79E-07
              10        2.000     -0.47923157206066E+00       -13.041               3.22E-07
              11        2.000     -0.41308827248971E+00       -11.241              -4.25E-07
              12        2.000     -0.41122521908265E+00       -11.190              -1.40E-06
              13        2.000     -0.40418094723724E+00       -10.998              -1.06E-06
              14        2.000     -0.39166366862579E+00       -10.658              -3.35E-07
              15        2.000     -0.24252889905720E+00        -6.600              -6.15E-07
              16        2.000     -0.24012798069023E+00        -6.534              -6.50E-07
              17        0.000     -0.11965931744784E+00        -3.256
              18        0.000     -0.96628485092904E-01        -2.629
              19        0.000      0.33289242178220E-02         0.091
              20        0.000      0.42889272892676E-01         1.167
              21        0.000      0.94657174673360E-01         2.576
              22        0.000      0.10707550746148E+00         2.914
              23        0.000      0.13342292700574E+00         3.631
              24        0.000      0.16867880401431E+00         4.590
              25        0.000      0.36757822519264E+00        10.002
              26        0.000      0.45347941613856E+00        12.340
  
 HOMO :       16 A                -0.24012798069023E+00
 LUMO :       17 A                -0.11965931744784E+00
  


 All Electron Calculation, thus no Orbital Energies of the Core Orbitals are calculated


 Fit test: (difference of exact and fit density, squared integrated, result summed over spins)
         Sum-of-Fragments:                             0.00000000128427
         Orthogonalized Fragments:                     0.00025228542766
         SCF:                                          0.00115539299013



 ==========================
 Electron Density at Nuclei
 ==========================
  
 The electron density is calculated at points on a small sphere around the center of a nucleus.
 The printed electron density is the average electron density on these points.
 The radius of the sphere is the printed approximate finite nuclear radius.

         Atom        Nuclear Radius (Angstrom)             Electron Density (a.u.)
         ----        -------------------------             -----------------------
     1)   C                 0.0000320678                              126.34795
     2)   C                 0.0000320678                              126.34795
     3)   O                 0.0000345546                              310.65550
     4)   O                 0.0000345546                              310.65550
     5)   H                 0.0000181514                                0.52182
     6)   H                 0.0000181514                                0.52182
     7)   H                 0.0000181514                                0.52182
     8)   H                 0.0000181514                                0.52182



 =======================================
 M U L L I K E N   P O P U L A T I O N S
 =======================================
  
 The survey below gives for each atom:
 a) the total charge (Z minus electrons)
 b) the net spin polarization (nr of electrons spin-A minus spin-B)
 c) for each spin the atomic electron valence density (integrated) per L-value.

 Atom              Charge    Spin density          S         P         D         F
 ----              ------    ------------       ------    ------    ------    ------
 1 C              -0.0554                       3.3129    2.7425    0.0000    0.0000
 2 C              -0.0554                       3.3129    2.7425    0.0000    0.0000
 3 O              -0.3368                       3.9327    4.4041    0.0000    0.0000
 4 O              -0.3368                       3.9327    4.4041    0.0000    0.0000
 5 H               0.1961                       0.8039    0.0000    0.0000    0.0000
 6 H               0.1961                       0.8039    0.0000    0.0000    0.0000
 7 H               0.1961                       0.8039    0.0000    0.0000    0.0000
 8 H               0.1961                       0.8039    0.0000    0.0000    0.0000

 Populations of individual BAS functions
 ----------------------------------------
 1 C            0.4767  1.5067  0.9831  0.3465  0.4200  0.6708  0.6905  0.3310  0.5319  0.0983
 2 C            0.4767  1.5067  0.9831  0.3465  0.4200  0.6708  0.6905  0.3310  0.5319  0.0983
 3 O            0.5496  1.4295  0.8958  1.0577  0.6034  0.9155  0.7965  0.6492  0.8940  0.5456
 4 O            0.5496  1.4295  0.8958  1.0577  0.6034  0.9155  0.7965  0.6492  0.8940  0.5456
 5 H           -0.1279  0.9318
 6 H           -0.1279  0.9318
 7 H           -0.1279  0.9318
 8 H           -0.1279  0.9318

 Gross Charges per Atom (Z minus electrons)
 ==========================================
            -0.0554   -0.0554   -0.3368   -0.3368    0.1961    0.1961    0.1961    0.1961
 Net Total: -0.00000000


 Atom-Atom Population Matrix (off-diagonal elements not doubled)
 ===============================================================

     1 :     4.9918
     2 :    -0.0058    4.9918
     3 :     0.4384   -0.0023    8.0891
     4 :    -0.0023    0.4384   -0.0014    8.0891
     5 :     0.3174   -0.0008   -0.0930   -0.0006    0.7262
     6 :    -0.0008    0.3174   -0.0006   -0.0930   -0.0002    0.7262
     7 :     0.3174   -0.0008   -0.0930   -0.0006   -0.1454    0.0002    0.7262
     8 :    -0.0008    0.3174   -0.0006   -0.0930    0.0002   -0.1454   -0.0002    0.7262



 =================================================
 H I R S H F E L D   C H A R G E   A N A L Y S I S
 =================================================
  
 For each fragment: the (numerical) integral of rho(scf) * rho(fragment)/rho(sum-of-fragments)
 (nuclear charges are included, electrons are counted negative)

 The fragments and their ordering are defined in the early G E O M E T R Y output section.
 If you use single-atom fragments, this usually implies that all atoms of the same
 chemical type are grouped together. This may not be the order in which you listed them
 in the input file!

    1  C                         0.1001
    2  C                         0.1001
    3  O                        -0.1795
    4  O                        -0.1795
    5  H                         0.0397
    6  H                         0.0397
    7  H                         0.0397
    8  H                         0.0397

 Sum of these charges (accuracy NumInt/Tails) =          -0.00000628



 =============================
 V O R O N O I   C H A R G E S
 =============================
  
 For each atom: the (numerical) integral of the total electronic charge density in its Voronoi cell,
 i.e. the region of space that is closer to that atom than to any other atom.
 (cf. Wigner-Seitz cells in crystals)

 Within the Voronoi cell the subintegrals over the atomic sphere and the remaining part are evaluated
 separately to give the numbers of electrons (negative charge) in these regions.
 The net total charge in the cell (including the nuclear charge) is also given.

 Values are provided for
    a) the Initial (sum-of-fragments) density
    b) the Orthogonalized-Fragments density
    c) the SCF density
    d) the Voronoi Deformation Density (VDD): the difference SCF-Initial for the complete atomic cell


  Atom                Initial                    OrthFrag                   SCF
             Sphere RestCell NetTotal   Sphere RestCell NetTotal   Sphere RestCell NetTotal      VDD
 -----       ------------------------   ------------------------   ------------------------    -----
    1 C      -2.114   -2.746    1.140   -2.200   -2.880    0.919   -2.145   -2.659    1.196    0.056
    2 C      -2.114   -2.746    1.140   -2.200   -2.880    0.919   -2.145   -2.659    1.196    0.056
    3 O      -3.200   -4.935   -0.135   -3.416   -4.725   -0.141   -3.235   -5.080   -0.315   -0.180
    4 O      -3.200   -4.935   -0.135   -3.416   -4.725   -0.141   -3.235   -5.080   -0.315   -0.180
    5 H      -0.091   -1.421   -0.512   -0.114   -1.281   -0.395   -0.135   -1.311   -0.446    0.066
    6 H      -0.091   -1.421   -0.512   -0.114   -1.281   -0.395   -0.135   -1.311   -0.446    0.066
    7 H      -0.091   -1.403   -0.494   -0.114   -1.269   -0.383   -0.135   -1.301   -0.436    0.058
    8 H      -0.091   -1.403   -0.494   -0.114   -1.269   -0.383   -0.135   -1.301   -0.436    0.058
 ---------------------------------------------------------------------------------------------------
 Total NetCharge:              -0.000                      0.000                     -0.000    0.000
 (accuracy NumInt/Tails)

 Remark: the 'NetTotal' Voronoi charges often do not match the Mulliken and/or Hirshfeld charges very
 well. This is caused by the fact that chemically different atoms are not treated in accordance with
 their relative sizes. (Voronoi cells are defined by boundary planes halfway between the atoms.)
 However, the CHANGES in charge, comparing 'Initial' to 'SCF' for instance, do give a fair indication
 of the flow of charge caused by the relaxation from sum-of-fragments to self-consistency.

 Warning: the absolute accuracy of the VDD charges obtained using the Fuzzy Cells (Becke) integration
 scheme is much poorer than the one obtained with an 'equivalent' Voronoi integration grid. 



 =================================================================
 M U L T I P O L E   D E R I V E D   C H A R G E   A N A L Y S I S
 =================================================================

 This charge analysis uses the atomic multipoles (obtained from the fitted density) up to some level X,
 and reconstructs these multipoles exactly (up to level X) by distributing charges over all atoms.
 This is achieved by using Lagrange multipliers and a weight function to keep the multipoles local.

 Dummy atoms can be included (by setting INCDUM in MDC-block to 1) to obtain a fractional charge.
 This is generally useful and necessary only for small symmetrical molecules, when there are not
 enough degrees of freedom to reconstruct the multipoles.

 Since the atomic multipoles are reconstructed up to level X,
 the molecular multipoles are represented also up to level X.
 The recommended level is to reconstruct up to quadrupole : -> MDC-q charges.

 See: M. Swart, P.Th. van Duijnen, J.G. Snijders, J.Comput.Chem., (2001), p. 79-88.

 ------------------------------------------------------------- 
 Atomic electronic multipole moments from SCF equations (a.u.)
 ------------------------------------------------------------- 

   atom        charge        dip-x     dip-y     dip-z      quad-xx   quad-xy   quad-xz   quad-yy   quad-yz   quad-zz
 --------------------------------------------------------------------------------------------------------------------
    1 C      0.376229    -0.010279 -0.000000 -0.033934    -0.470217 -0.000000  0.003585  0.154341  0.000000  0.315876
    2 C      0.376229     0.010279  0.000000 -0.033934    -0.470217  0.000000 -0.003585  0.154341 -0.000000  0.315876
    3 O     -0.270964    -0.015475  0.000000  0.538553    -0.129596 -0.000000 -0.001713 -0.575546  0.000000  0.705143
    4 O     -0.270963     0.015475  0.000000  0.538553    -0.129596 -0.000000  0.001713 -0.575546 -0.000000  0.705142
    5 H     -0.052633    -0.001252 -0.033653 -0.017169    -0.108045 -0.000143  0.000428  0.089304  0.053362  0.018741
    6 H     -0.052633     0.001252 -0.033653 -0.017169    -0.108045  0.000143 -0.000428  0.089304  0.053362  0.018741
    7 H     -0.052633    -0.001252  0.033653 -0.017169    -0.108045  0.000143  0.000428  0.089304 -0.053362  0.018741
    8 H     -0.052633     0.001252  0.033653 -0.017169    -0.108045 -0.000143 -0.000428  0.089304 -0.053362  0.018741

 --------------------------------------- 
 Multipole derived atomic charges (a.u.)
 --------------------------------------- 

 The MDC-m charges are just the Monopole terms in the multipole expansion, while for the MDC-d charges
 also the Dipoles are reconstructed. The usually preferred charges are the MDC-q charges.
 These reconstruct the Monopoles, Dipoles and Quadrupoles (both atomic AND molecular).

        Atom    Level:     MDC-m        MDC-d        MDC-q
 ---------------------------------------------------------
     1     C            0.376229     0.505173     0.590648
     2     C            0.376229     0.505172     0.590647
     3     O           -0.270964    -0.454109    -0.464079
     4     O           -0.270963    -0.454109    -0.464079
     5     H           -0.052633    -0.025532    -0.063284
     6     H           -0.052633    -0.025532    -0.063284
     7     H           -0.052633    -0.025532    -0.063284
     8     H           -0.052633    -0.025532    -0.063284

 ------------------------------------------------ 
 Average absolute deviations in atomic multipoles
 ------------------------------------------------ 

 Stated here are the average differences between the atomic multipoles
 and the reconstructed atomic multipoles (from the distributed charges).
 If these values are not zero, this means there are not enough degrees of freedom,
 to be able to reconstruct the atomic multipoles. (This usually happens only
 for small and/or highly symmetric molecules). If this is the case, one could add
 dummy atoms as extra point charges (and setting INCDUM in MDC-block to 1).

 Level:                                 MDC-d        MDC-q
 ---------------------------------------------------------
 Charge   (a.u.)                       0.0000       0.0000
 Dipole   (Debye)                      0.0000       0.0415
 Quad.    (a.u.)                       0.0991       0.0034

 --------------------------------------- 
 Represented molecular multipole moments
 --------------------------------------- 

 Given here are the Molecular multipole moments from the atomic charges, and from the Fit Density.
 Note that the atomic charges represent the latter, NOT the ones from the Exact density.

            Q (a.u.)             Dipole moment (Debye)                                          Quadrupole moment (a.u.)
                                 x         y         z              xx        xy        xz        yy        yz        zz
------------------------------------------------------------------------------------------------------------------------
MDC-m        -0.0000       -0.0000   -0.0000    2.5064          0.7085   -0.0000    0.0000   -0.2562   -0.0000   -0.4523
MDC-d        -0.0000        0.0000    0.0000    4.8971          0.3480   -0.0000    0.0000   -0.1200    0.0000   -0.2280
MDC-q        -0.0000        0.0000   -0.0000    4.5912          0.8537   -0.0000    0.0000   -0.3062   -0.0000   -0.5475
 
Fit.Dens.    -0.0000        0.0000    0.0000    4.8971          0.3779   -0.0000    0.0000    0.4147   -0.0000   -0.7926



 =============
 Dipole Moment  ***  (Debye)  ***
 =============
  
 Vector   :         0.00000003     -0.00000001      4.91013730
 Magnitude:         4.91013730

 This molecular dipole moment is calculated with analytic integration



 =========================================
 Quadrupole Moment (Buckingham convention)  ***  (a.u.)  ***
 =========================================
  
      quad-xx        quad-xy        quad-xz        quad-yy        quad-yz        quad-zz
      0.37065280    -0.00000001     0.00000701     0.39022141     0.00000000    -0.76087420

 This molecular quadrupole moment is calculated with analytic integration
1



                                             *************************
                                             *  SFO MO coefficients  *
                                             *************************
  


                                       === A ===
 MOs expanded in CFs+SFOs
 ========================

 The SFOs have been characterized in an earlier part of output.
 To deduce the bonding / antibonding nature of SFO combinations in an MO, consider the products
 of the coefficients AND THE OVERLAP between the SFOs (may be NEGATIVE). The SFO overlap matrix
 is printed later, in the SFO Populations section.

 (The CF coefficients are not printed)

 MOs :      1        2        3        4        5        6        7        8        9       10
 occup:   2.00     2.00     2.00     2.00     2.00     2.00     2.00     2.00     2.00     2.00
 CF+SFO
     1  -0.0002  -0.0001   0.5805   0.8144   0.0406  -0.0411  -0.0039  -0.0034   0.0000   0.0000
     2  -0.0009  -0.0005   0.0010   0.0014  -0.1690   0.1658   0.4837   0.4919   0.0000   0.0000
     3  -0.0003  -0.0002  -0.0003  -0.0005   0.0556  -0.0573   0.0050   0.0057  -0.0000  -0.0000
     4   0.0000   0.0000  -0.0000  -0.0000  -0.0024   0.0025   0.0006   0.0006  -0.0000  -0.0000
     5   0.0000   0.0000   0.0000  -0.0000   0.0014   0.0015  -0.0083   0.0028  -0.0000  -0.0000
     6  -0.0000   0.0000  -0.0000  -0.0000  -0.0005  -0.0017   0.0009  -0.0011   0.0000   0.0000
     7  -0.0000  -0.0000   0.0000   0.0000  -0.0000   0.0000  -0.0000  -0.0000  -0.4425  -0.4522
     8   0.0000   0.0000  -0.0000  -0.0000   0.0000  -0.0000   0.0000   0.0000  -0.0422  -0.0377
     9   0.0001   0.0000  -0.0004  -0.0007   0.1152  -0.1111   0.1852   0.1897  -0.0000  -0.0000
    10  -0.0001  -0.0000  -0.0006  -0.0008   0.0690  -0.0719   0.0413   0.0390  -0.0000  -0.0000
    11   0.0001  -0.0002  -0.8144   0.5805   0.0406   0.0411  -0.0039   0.0034  -0.0000   0.0000
    12   0.0006  -0.0008  -0.0014   0.0010  -0.1690  -0.1659   0.4837  -0.4919  -0.0000   0.0000
    13   0.0002  -0.0003   0.0005  -0.0003   0.0556   0.0573   0.0050  -0.0057  -0.0000   0.0000
    14  -0.0000   0.0000   0.0000  -0.0000  -0.0024  -0.0025   0.0006  -0.0006   0.0000  -0.0000
    15   0.0000  -0.0000   0.0000   0.0000  -0.0014   0.0015   0.0083   0.0028   0.0000  -0.0000
    16  -0.0000   0.0000  -0.0000   0.0000   0.0005  -0.0017  -0.0009  -0.0011   0.0000   0.0000
    17   0.0000  -0.0000   0.0000  -0.0000  -0.0000   0.0000   0.0000  -0.0000  -0.4425   0.4522
    18  -0.0000   0.0000  -0.0000   0.0000  -0.0000  -0.0000  -0.0000   0.0000  -0.0422   0.0377
    19  -0.0001   0.0001   0.0006  -0.0005   0.1152   0.1111   0.1852  -0.1897  -0.0000   0.0000
    20   0.0001  -0.0000   0.0009  -0.0005   0.0690   0.0719   0.0413  -0.0390  -0.0000   0.0000
    21  -0.8517  -0.5238  -0.0001  -0.0002   0.0115  -0.0108  -0.0099  -0.0097  -0.0000  -0.0000
    22   0.0003   0.0001   0.0001  -0.0000  -0.5257   0.5308  -0.3018  -0.3004  -0.0000  -0.0000
    23   0.0005   0.0003  -0.0000  -0.0001   0.0047  -0.0027  -0.0198  -0.0191  -0.0000  -0.0000
    24   0.0000   0.0000  -0.0000  -0.0000   0.0008  -0.0008  -0.0005  -0.0005  -0.0000   0.0000
    25   0.0000  -0.0000   0.0000  -0.0000   0.0007   0.0007  -0.0026   0.0010  -0.0000  -0.0000
    26  -0.0000   0.0000  -0.0000   0.0000  -0.0003  -0.0004  -0.0006  -0.0000  -0.0000  -0.0000
    27   0.0000   0.0000  -0.0000  -0.0000  -0.0000   0.0000  -0.0000   0.0000  -0.2512  -0.2535
    28  -0.0000  -0.0000   0.0000   0.0000   0.0000  -0.0000  -0.0000  -0.0000  -0.0239  -0.0243
    29  -0.0007  -0.0005  -0.0000  -0.0001  -0.1793   0.1816   0.0352   0.0386  -0.0000  -0.0000
    30  -0.0014  -0.0008   0.0002   0.0003  -0.0263   0.0250   0.0153   0.0150   0.0000   0.0000
    31   0.5238  -0.8517   0.0001  -0.0001   0.0115   0.0108  -0.0099   0.0097   0.0000  -0.0000
    32  -0.0002   0.0003  -0.0000  -0.0000  -0.5256  -0.5309  -0.3018   0.3004  -0.0000   0.0000
    33  -0.0003   0.0005   0.0001  -0.0001   0.0047   0.0027  -0.0198   0.0191   0.0000  -0.0000
    34  -0.0000   0.0000   0.0000  -0.0000   0.0008   0.0008  -0.0005   0.0005   0.0000  -0.0000
    35   0.0000   0.0000   0.0000   0.0000  -0.0007   0.0007   0.0026   0.0010   0.0000  -0.0000
    36  -0.0000  -0.0000  -0.0000  -0.0000   0.0003  -0.0004   0.0006  -0.0000  -0.0000   0.0000
    37  -0.0000   0.0000  -0.0000   0.0000  -0.0000  -0.0000  -0.0000   0.0000  -0.2512   0.2535
    38   0.0000  -0.0000   0.0000  -0.0000   0.0000   0.0000   0.0000  -0.0000  -0.0239   0.0243
    39   0.0004  -0.0007   0.0001  -0.0001  -0.1793  -0.1816   0.0352  -0.0386   0.0000  -0.0000
    40   0.0009  -0.0013  -0.0003   0.0002  -0.0263  -0.0250   0.0153  -0.0150  -0.0000   0.0000
    41   0.0001   0.0001  -0.0001  -0.0001  -0.0166   0.0146   0.1449   0.1404  -0.1274  -0.1223
    42  -0.0000  -0.0000   0.0001   0.0002  -0.0077   0.0092   0.0717   0.0759  -0.0943  -0.0962
    43  -0.0001   0.0001   0.0002  -0.0001  -0.0166  -0.0146   0.1449  -0.1404  -0.1274   0.1223
    44   0.0000  -0.0000  -0.0002   0.0001  -0.0077  -0.0092   0.0717  -0.0759  -0.0943   0.0962
    45   0.0001   0.0001  -0.0001  -0.0001  -0.0166   0.0146   0.1449   0.1404   0.1274   0.1223
    46  -0.0000  -0.0000   0.0001   0.0002  -0.0077   0.0092   0.0717   0.0759   0.0943   0.0962
    47  -0.0001   0.0001   0.0002  -0.0001  -0.0166  -0.0146   0.1449  -0.1404   0.1274  -0.1223
    48   0.0000  -0.0000  -0.0002   0.0001  -0.0077  -0.0092   0.0717  -0.0759   0.0943  -0.0962

 MOs :     11       12       13       14       15       16       17       18       19       20
 occup:   2.00     2.00     2.00     2.00     2.00     2.00     0.00     0.00     0.00     0.00
 CF+SFO
     1  -0.0117  -0.0111  -0.0022  -0.0014  -0.0000  -0.0000  -0.0046   0.0073   0.1641   0.1875
     2   0.0307   0.0298  -0.0060  -0.0058   0.0000  -0.0000  -0.0437   0.0606   1.1571   1.3014
     3  -0.0507  -0.0486  -0.0086  -0.0071   0.0000   0.0000  -0.0040   0.0104   0.2968   0.3348
     4   0.0008   0.0008   0.0002   0.0001   0.0000   0.0000   0.0003  -0.0004  -0.0092  -0.0104
     5   0.0672  -0.0405  -0.3467   0.3719  -0.0000  -0.0000  -0.6533  -0.7333  -0.0592   0.0915
     6   0.0083  -0.0038  -0.0474   0.0372  -0.0000   0.0000   0.0774   0.0816   0.0008   0.0129
     7  -0.0000  -0.0000   0.0000  -0.0000  -0.0634  -0.0702   0.0000   0.0000   0.0000   0.0000
     8   0.0000   0.0000   0.0000  -0.0000  -0.0515  -0.0511   0.0000  -0.0000  -0.0000  -0.0000
     9  -0.2515  -0.2659  -0.0484  -0.0220   0.0000   0.0000  -0.0011   0.0010   0.3757   0.4231
    10  -0.0854  -0.0816  -0.0204  -0.0164   0.0000   0.0000  -0.0108   0.0103  -0.0738  -0.0949
    11  -0.0117   0.0111  -0.0022   0.0014   0.0000  -0.0000  -0.0046  -0.0073   0.1641  -0.1875
    12   0.0307  -0.0298  -0.0060   0.0058   0.0000  -0.0000  -0.0437  -0.0606   1.1571  -1.3014
    13  -0.0507   0.0486  -0.0086   0.0071  -0.0000  -0.0000  -0.0040  -0.0104   0.2968  -0.3348
    14   0.0008  -0.0008   0.0002  -0.0001   0.0000  -0.0000   0.0003   0.0004  -0.0092   0.0104
    15  -0.0672  -0.0405   0.3467   0.3719   0.0000  -0.0000   0.6533  -0.7333   0.0592   0.0915
    16  -0.0083  -0.0038   0.0474   0.0372  -0.0000  -0.0000  -0.0774   0.0816  -0.0008   0.0129
    17   0.0000  -0.0000   0.0000   0.0000  -0.0634   0.0702  -0.0000   0.0000  -0.0000   0.0000
    18  -0.0000   0.0000  -0.0000   0.0000  -0.0515   0.0511   0.0000  -0.0000   0.0000  -0.0000
    19  -0.2515   0.2659  -0.0484   0.0220  -0.0000   0.0000  -0.0011  -0.0010   0.3757  -0.4231
    20  -0.0854   0.0816  -0.0204   0.0164   0.0000  -0.0000  -0.0108  -0.0103  -0.0738   0.0949
    21  -0.0142  -0.0158  -0.0025  -0.0006   0.0000   0.0000   0.0013  -0.0018   0.0011  -0.0004
    22  -0.3617  -0.3763  -0.0709  -0.0397   0.0000   0.0000   0.0068  -0.0097   0.0262   0.0033
    23  -0.0360  -0.0395  -0.0057  -0.0000   0.0000   0.0000   0.0029  -0.0047   0.0009   0.0014
    24  -0.0008  -0.0009  -0.0001  -0.0000   0.0000   0.0000   0.0001  -0.0001   0.0001   0.0000
    25   0.0918  -0.0588  -0.4868   0.5183  -0.0000  -0.0000   0.5832   0.5757   0.0196  -0.0284
    26   0.0017   0.0004  -0.0107   0.0091  -0.0000  -0.0000  -0.0680  -0.0647  -0.0022   0.0035
    27   0.0000   0.0000  -0.0000   0.0000   0.6331   0.6365  -0.0000  -0.0000  -0.0000  -0.0000
    28  -0.0000  -0.0000   0.0000  -0.0000  -0.0215  -0.0213   0.0000   0.0000   0.0000   0.0000
    29   0.4902   0.4944   0.0964   0.0607   0.0000   0.0000   0.0065  -0.0093  -0.1308  -0.1385
    30   0.0250   0.0268   0.0026   0.0002  -0.0000  -0.0000  -0.0038   0.0056   0.0263   0.0275
    31  -0.0142   0.0158  -0.0025   0.0006  -0.0000   0.0000   0.0013   0.0018   0.0011   0.0004
    32  -0.3616   0.3763  -0.0709   0.0397  -0.0000   0.0000   0.0068   0.0097   0.0262  -0.0033
    33  -0.0360   0.0395  -0.0057   0.0000  -0.0000   0.0000   0.0029   0.0047   0.0009  -0.0014
    34  -0.0008   0.0009  -0.0001   0.0000  -0.0000   0.0000   0.0001   0.0001   0.0001  -0.0000
    35  -0.0918  -0.0588   0.4868   0.5183  -0.0000  -0.0000  -0.5832   0.5757  -0.0196  -0.0284
    36  -0.0017   0.0004   0.0107   0.0091   0.0000  -0.0000   0.0680  -0.0647   0.0022   0.0035
    37  -0.0000   0.0000  -0.0000   0.0000   0.6331  -0.6365   0.0000  -0.0000   0.0000  -0.0000
    38   0.0000  -0.0000   0.0000   0.0000  -0.0215   0.0213  -0.0000   0.0000  -0.0000   0.0000
    39   0.4902  -0.4945   0.0964  -0.0607   0.0000  -0.0000   0.0065   0.0093  -0.1308   0.1385
    40   0.0250  -0.0268   0.0026  -0.0002   0.0000  -0.0000  -0.0038  -0.0056   0.0263  -0.0275
    41  -0.0800  -0.0815  -0.0268  -0.0239  -0.3498  -0.3522  -0.0039  -0.0054  -0.7544  -0.9191
    42  -0.0187  -0.0208  -0.0033   0.0030  -0.0011  -0.0015  -0.0080   0.0100   0.2859   0.3171
    43  -0.0800   0.0815  -0.0268   0.0239  -0.3498   0.3522  -0.0039   0.0054  -0.7544   0.9191
    44  -0.0187   0.0208  -0.0033  -0.0030  -0.0011   0.0015  -0.0080  -0.0100   0.2859  -0.3171
    45  -0.0800  -0.0815  -0.0268  -0.0239   0.3498   0.3522  -0.0039  -0.0054  -0.7544  -0.9191
    46  -0.0187  -0.0208  -0.0033   0.0030   0.0011   0.0015  -0.0080   0.0100   0.2859   0.3171
    47  -0.0800   0.0815  -0.0268   0.0239   0.3498  -0.3522  -0.0039   0.0054  -0.7544   0.9191
    48  -0.0187   0.0208  -0.0033  -0.0030   0.0011  -0.0015  -0.0080  -0.0100   0.2859  -0.3171

 MOs :     21       22       23       24       25       26       27       28       29       30
 occup:   0.00     0.00     0.00     0.00     0.00     0.00     0.00     0.00     0.00     0.00
 CF+SFO
     1   0.0000  -0.1275   0.0000   0.1331   0.0508  -0.0814  -0.0489   0.0000  -0.0000  -0.0492
     2   0.0000  -0.8350   0.0000   0.8665   0.4139  -0.7078  -0.4719   0.0000  -0.0000  -0.3906
     3   0.0000  -0.2807   0.0000   0.2612   0.2334  -0.2889  -0.2296   0.0000   0.0000   0.1722
     4  -0.0000   0.0064  -0.0000  -0.0065  -0.0028   0.0044   0.0027  -0.0000   0.0000   0.0035
     5   0.0000  -0.0212  -0.0000  -0.0261   0.0731  -0.0184  -0.0611   0.0000  -0.0000   0.1183
     6  -0.0000  -0.0166  -0.0000  -0.0514   0.5639   0.3546   0.5047  -0.0000   0.0000  -0.4166
     7  -1.0066  -0.0000  -1.1181   0.0000  -0.0000  -0.0000  -0.0000  -1.0408   0.9499  -0.0000
     8   0.2379   0.0000   0.2792  -0.0000   0.0000   0.0000   0.0000   0.7079  -0.7000  -0.0000
     9   0.0000   0.9162  -0.0000  -1.0926   0.3207  -0.3530  -0.4673   0.0000   0.0000   0.1043
    10  -0.0000  -0.5057   0.0000   0.5764  -0.1770   0.2061   0.2223  -0.0000   0.0000   0.4735
    11  -0.0000  -0.1275   0.0000  -0.1331   0.0508  -0.0814   0.0489   0.0000  -0.0000   0.0492
    12  -0.0000  -0.8350   0.0000  -0.8665   0.4139  -0.7078   0.4719   0.0000   0.0000   0.3906
    13  -0.0000  -0.2807   0.0000  -0.2612   0.2334  -0.2889   0.2296   0.0000  -0.0000  -0.1722
    14   0.0000   0.0064  -0.0000   0.0065  -0.0028   0.0044  -0.0027  -0.0000   0.0000  -0.0035
    15   0.0000   0.0212   0.0000  -0.0261  -0.0731   0.0184  -0.0611   0.0000   0.0000   0.1183
    16   0.0000   0.0166   0.0000  -0.0514  -0.5639  -0.3547   0.5047   0.0000  -0.0000  -0.4166
    17  -1.0066   0.0000   1.1181  -0.0000  -0.0000  -0.0000  -0.0000  -1.0408  -0.9499   0.0000
    18   0.2379  -0.0000  -0.2792   0.0000   0.0000   0.0000   0.0000   0.7079   0.7000  -0.0000
    19  -0.0000   0.9162  -0.0000   1.0926   0.3207  -0.3530   0.4673   0.0000   0.0000  -0.1043
    20   0.0000  -0.5057   0.0000  -0.5764  -0.1770   0.2062  -0.2223  -0.0000  -0.0000  -0.4735
    21   0.0000   0.1501  -0.0000  -0.1673   0.0107   0.0034  -0.0175  -0.0000   0.0000   0.0023
    22   0.0000   1.0560  -0.0000  -1.1541   0.0568   0.0570  -0.0895  -0.0000   0.0000   0.1427
    23   0.0000   0.2876  -0.0000  -0.3174   0.0421  -0.0356  -0.0684   0.0000  -0.0000  -0.0614
    24   0.0000   0.0080  -0.0000  -0.0089   0.0006   0.0001  -0.0010  -0.0000   0.0000   0.0003
    25   0.0000  -0.0312   0.0000  -0.0361   0.0560   0.0596   0.0536  -0.0000   0.0000  -0.0734
    26   0.0000  -0.0093   0.0000  -0.0146   0.0046   0.0150  -0.0234   0.0000  -0.0000  -0.0433
    27   0.2713   0.0000   0.2970  -0.0000   0.0000   0.0000   0.0000   0.3905  -0.3554   0.0000
    28  -0.0710  -0.0000  -0.0766   0.0000  -0.0000   0.0000   0.0000   0.0469  -0.0959  -0.0000
    29  -0.0000   0.4144  -0.0000  -0.4968   0.0002   0.0992  -0.0144  -0.0000   0.0000   0.4631
    30  -0.0000  -0.1730   0.0000   0.1961  -0.0201   0.0034   0.0303   0.0000  -0.0000  -0.0357
    31  -0.0000   0.1501  -0.0000   0.1673   0.0107   0.0034   0.0175  -0.0000   0.0000  -0.0023
    32  -0.0000   1.0560  -0.0000   1.1541   0.0568   0.0570   0.0895  -0.0000   0.0000  -0.1427
    33  -0.0000   0.2876  -0.0000   0.3174   0.0421  -0.0356   0.0684  -0.0000   0.0000   0.0614
    34  -0.0000   0.0080  -0.0000   0.0089   0.0006   0.0001   0.0010  -0.0000   0.0000  -0.0003
    35   0.0000   0.0312  -0.0000  -0.0361  -0.0560  -0.0596   0.0536   0.0000  -0.0000  -0.0734
    36   0.0000   0.0093  -0.0000  -0.0146  -0.0046  -0.0150  -0.0234   0.0000  -0.0000  -0.0433
    37   0.2713  -0.0000  -0.2970   0.0000   0.0000   0.0000   0.0000   0.3905   0.3554  -0.0000
    38  -0.0710   0.0000   0.0766   0.0000   0.0000   0.0000   0.0000   0.0469   0.0959  -0.0000
    39  -0.0000   0.4144  -0.0000   0.4968   0.0002   0.0992   0.0144  -0.0000  -0.0000  -0.4631
    40   0.0000  -0.1730   0.0000  -0.1961  -0.0201   0.0034  -0.0303   0.0000  -0.0000   0.0357
    41   1.1210  -0.0326   1.2703   0.1162  -0.4303   0.5621   0.5138   0.8844  -0.7144   0.0802
    42  -0.4911   0.0311  -0.5096  -0.0496  -0.0790   0.2563   0.2122   0.0741  -0.1662   0.2372
    43   1.1210  -0.0326  -1.2703  -0.1162  -0.4303   0.5621  -0.5138   0.8844   0.7144  -0.0802
    44  -0.4911   0.0311   0.5096   0.0496  -0.0790   0.2563  -0.2122   0.0741   0.1662  -0.2372
    45  -1.1210  -0.0326  -1.2703   0.1162  -0.4303   0.5621   0.5138  -0.8844   0.7144   0.0802
    46   0.4911   0.0311   0.5096  -0.0496  -0.0790   0.2563   0.2122  -0.0741   0.1662   0.2372
    47  -1.1210  -0.0326   1.2703  -0.1162  -0.4303   0.5621  -0.5138  -0.8844  -0.7144  -0.0802
    48   0.4911   0.0311  -0.5096   0.0496  -0.0790   0.2563  -0.2122  -0.0741  -0.1662  -0.2372

 MOs :     31       32       33       34       35       36       37       38       39       40
 occup:   0.00     0.00     0.00     0.00     0.00     0.00     0.00     0.00     0.00     0.00
 CF+SFO
     1  -0.0598  -0.0703  -0.1471  -0.0000  -0.0000  -0.1580   0.0932  -0.1411   0.1668   0.0111
     2  -0.3109  -0.2984  -1.0314  -0.0000   0.0000  -1.2192   0.4321  -0.5971   0.7216  -0.0074
     3   0.3336  -0.0384  -1.1815  -0.0000   0.0000  -1.3726   0.1919  -0.2332   0.2752  -0.0506
     4   0.0045   0.0043   0.0053  -0.0000  -0.0000   0.0039  -0.0048   0.0073  -0.0088  -0.0008
     5   0.0225  -0.1937  -0.0078  -0.0000  -0.0000   0.0735   0.2450   0.1468  -0.0304   0.3845
     6  -0.0540   0.5302   0.0527   0.0000   0.0000  -0.1999  -0.2318  -0.1284   0.0166  -0.3339
     7  -0.0000  -0.0000  -0.0000   0.3932   0.4970   0.0000   0.0000  -0.0000   0.0000   0.0000
     8   0.0000   0.0000   0.0000  -0.9503  -0.9946  -0.0000  -0.0000   0.0000  -0.0000  -0.0000
     9   0.3999   0.1943  -0.1125  -0.0000   0.0000  -0.2964   0.1306  -0.1032   0.1761  -0.0909
    10   0.5008   0.4902   0.4491   0.0000  -0.0000   0.3778  -0.2316   0.1947  -0.3190   0.0968
    11  -0.0598   0.0703  -0.1471  -0.0000  -0.0000   0.1580   0.0932  -0.1411  -0.1668  -0.0111
    12  -0.3109   0.2984  -1.0314  -0.0000  -0.0000   1.2192   0.4321  -0.5971  -0.7216   0.0074
    13   0.3336   0.0384  -1.1815  -0.0000  -0.0000   1.3726   0.1919  -0.2332  -0.2752   0.0506
    14   0.0045  -0.0043   0.0053   0.0000   0.0000  -0.0039  -0.0048   0.0073   0.0088   0.0008
    15  -0.0225  -0.1937   0.0078  -0.0000  -0.0000   0.0735  -0.2450  -0.1468  -0.0304   0.3845
    16   0.0540   0.5302  -0.0527   0.0000   0.0000  -0.1999   0.2318   0.1284   0.0166  -0.3339
    17   0.0000  -0.0000  -0.0000   0.3932  -0.4970  -0.0000  -0.0000   0.0000   0.0000  -0.0000
    18  -0.0000   0.0000   0.0000  -0.9503   0.9946   0.0000   0.0000  -0.0000  -0.0000   0.0000
    19   0.3999  -0.1943  -0.1125  -0.0000  -0.0000   0.2964   0.1306  -0.1032  -0.1761   0.0909
    20   0.5008  -0.4902   0.4491   0.0000   0.0000  -0.3778  -0.2316   0.1947   0.3190  -0.0968
    21   0.0087  -0.0099   0.0269   0.0000   0.0000   0.0310   0.0020   0.0103  -0.0035  -0.0101
    22   0.2027   0.0102   0.1433   0.0000   0.0000   0.1439  -0.0212   0.1052  -0.0774  -0.0603
    23  -0.0140   0.0256   0.0238   0.0000   0.0000  -0.0417   0.0729  -0.1065   0.1569   0.0023
    24   0.0007  -0.0004   0.0014   0.0000  -0.0000   0.0016   0.0003   0.0002   0.0001  -0.0005
    25  -0.0024   0.0806   0.0152   0.0000   0.0000  -0.0347  -0.0998  -0.0584   0.0174  -0.1913
    26   0.0358  -0.0169   0.0306  -0.0000  -0.0000  -0.0416   0.6881   0.4027  -0.1054   0.8520
    27   0.0000   0.0000   0.0000  -0.0881  -0.0932  -0.0000  -0.0000   0.0000  -0.0000  -0.0000
    28  -0.0000  -0.0000   0.0000  -0.0970  -0.1116  -0.0000   0.0000  -0.0000   0.0000  -0.0000
    29   0.6051   0.3334   0.0663  -0.0000  -0.0000  -0.0496  -0.1115   0.1585  -0.2043  -0.0209
    30  -0.0754   0.0036   0.0931   0.0000  -0.0000   0.1203   0.3902  -0.6927   0.7868   0.1206
    31   0.0087   0.0099   0.0269   0.0000   0.0000  -0.0310   0.0020   0.0103   0.0035   0.0101
    32   0.2027  -0.0102   0.1433   0.0000   0.0000  -0.1439  -0.0212   0.1052   0.0774   0.0603
    33  -0.0140  -0.0256   0.0238   0.0000   0.0000   0.0417   0.0729  -0.1065  -0.1569  -0.0023
    34   0.0007   0.0004   0.0014  -0.0000   0.0000  -0.0016   0.0003   0.0002  -0.0001   0.0005
    35   0.0024   0.0806  -0.0152   0.0000   0.0000  -0.0347   0.0998   0.0584   0.0174  -0.1913
    36  -0.0358  -0.0169  -0.0306   0.0000  -0.0000  -0.0416  -0.6881  -0.4026  -0.1055   0.8520
    37  -0.0000   0.0000   0.0000  -0.0881   0.0932   0.0000   0.0000  -0.0000  -0.0000   0.0000
    38   0.0000   0.0000  -0.0000  -0.0970   0.1116   0.0000   0.0000   0.0000   0.0000  -0.0000
    39   0.6051  -0.3334   0.0663  -0.0000   0.0000   0.0496  -0.1115   0.1585   0.2043   0.0209
    40  -0.0754  -0.0036   0.0931   0.0000  -0.0000  -0.1203   0.3902  -0.6927  -0.7868  -0.1206
    41  -0.0897   0.0989   0.6691  -0.8227  -1.0043   0.8962  -0.1803   0.2006  -0.2806   0.0520
    42   0.0036  -0.3693  -0.3991   0.6979   0.7985  -0.3538   0.0604  -0.0894   0.1217   0.0334
    43  -0.0897  -0.0989   0.6691  -0.8227   1.0043  -0.8962  -0.1803   0.2006   0.2806  -0.0520
    44   0.0036   0.3693  -0.3991   0.6979  -0.7985   0.3538   0.0604  -0.0894  -0.1217  -0.0334
    45  -0.0897   0.0989   0.6691   0.8227   1.0043   0.8962  -0.1803   0.2006  -0.2806   0.0520
    46   0.0036  -0.3693  -0.3991  -0.6979  -0.7985  -0.3538   0.0604  -0.0894   0.1217   0.0334
    47  -0.0897  -0.0989   0.6691   0.8227  -1.0043  -0.8962  -0.1803   0.2006   0.2806  -0.0520
    48   0.0036   0.3693  -0.3991  -0.6979   0.7985   0.3538   0.0604  -0.0894  -0.1217  -0.0334

 MOs :     41       42       43       44       45       46       47       48
 occup:   0.00     0.00     0.00     0.00     0.00     0.00     0.00     0.00
 CF+SFO
     1  -0.0000   0.0000  -0.3410   0.3854  -0.0377   0.0633   0.1120  -0.1284
     2  -0.0000   0.0000  -1.6568   1.9651  -0.2802   0.4548   0.5386  -0.6448
     3  -0.0000   0.0000  -0.5439   0.7670  -0.2536   0.3717   0.2001  -0.2648
     4  -0.0000  -0.0000   0.0165  -0.0166   0.7323  -0.7407  -0.0381   0.0542
     5   0.0000   0.0000  -0.0110  -0.0693  -0.0104  -0.0265   0.0050   0.0221
     6  -0.0000  -0.0000   0.0144   0.1175   0.0136   0.0347  -0.0049  -0.0287
     7   1.2811  -1.4103  -0.0000  -0.0000   0.0000  -0.0000   0.0000   0.0000
     8  -1.0458   1.1636   0.0000   0.0000  -0.0000   0.0000  -0.0000  -0.0000
     9  -0.0000  -0.0000   0.8028  -0.8919  -0.1136   0.1018  -0.2826   0.3291
    10   0.0000   0.0000  -0.2520   0.3081   0.0724  -0.0738   0.1501  -0.1770
    11   0.0000   0.0000  -0.3410  -0.3854  -0.0377  -0.0633   0.1120   0.1284
    12   0.0000   0.0000  -1.6568  -1.9651  -0.2802  -0.4548   0.5386   0.6448
    13   0.0000   0.0000  -0.5439  -0.7670  -0.2536  -0.3717   0.2001   0.2648
    14  -0.0000  -0.0000   0.0165   0.0166   0.7323   0.7407  -0.0381  -0.0542
    15   0.0000   0.0000   0.0110  -0.0693   0.0104  -0.0265  -0.0050   0.0221
    16  -0.0000  -0.0000  -0.0144   0.1175  -0.0136   0.0347   0.0049  -0.0287
    17   1.2811   1.4103   0.0000   0.0000  -0.0000  -0.0000  -0.0000  -0.0000
    18  -1.0458  -1.1636  -0.0000  -0.0000   0.0000   0.0000   0.0000   0.0000
    19  -0.0000  -0.0000   0.8028   0.8919  -0.1136  -0.1018  -0.2826  -0.3291
    20  -0.0000  -0.0000  -0.2520  -0.3081   0.0724   0.0738   0.1501   0.1770
    21  -0.0000  -0.0000   0.1720  -0.1999  -0.0025  -0.0085  -0.0625   0.0732
    22  -0.0000  -0.0000   1.2484  -1.4170  -0.0235  -0.0472  -0.4507   0.5173
    23  -0.0000  -0.0000   1.3912  -1.4575   0.0149  -0.0587  -0.3532   0.3926
    24   0.0000  -0.0000   0.0030  -0.0037  -0.0180   0.0267  -0.7378   0.7400
    25  -0.0000  -0.0000  -0.0085   0.0053   0.0031   0.0067   0.0029  -0.0000
    26   0.0000   0.0000   0.0188   0.0219  -0.0013  -0.0029  -0.0038  -0.0037
    27  -0.4136   0.4511   0.0000   0.0000  -0.0000   0.0000  -0.0000  -0.0000
    28   0.9520  -0.9592  -0.0000  -0.0000   0.0000  -0.0000   0.0000  -0.0000
    29   0.0000  -0.0000   0.6499  -0.7082  -0.0785   0.0577  -0.1975   0.2231
    30  -0.0000   0.0000  -0.6063   0.6650   0.0109   0.0028   0.1766  -0.1982
    31  -0.0000  -0.0000   0.1720   0.1999  -0.0025   0.0085  -0.0625  -0.0732
    32  -0.0000  -0.0000   1.2484   1.4170  -0.0235   0.0472  -0.4507  -0.5173
    33  -0.0000  -0.0000   1.3911   1.4575   0.0149   0.0587  -0.3532  -0.3926
    34  -0.0000  -0.0000   0.0030   0.0037  -0.0180  -0.0267  -0.7378  -0.7400
    35  -0.0000  -0.0000   0.0085   0.0053  -0.0031   0.0067  -0.0029  -0.0000
    36   0.0000   0.0000  -0.0188   0.0219   0.0013  -0.0029   0.0038  -0.0037
    37  -0.4136  -0.4511  -0.0000  -0.0000   0.0000   0.0000   0.0000   0.0000
    38   0.9519   0.9592   0.0000   0.0000  -0.0000  -0.0000  -0.0000  -0.0000
    39  -0.0000  -0.0000   0.6499   0.7082  -0.0785  -0.0577  -0.1975  -0.2231
    40   0.0000   0.0000  -0.6063  -0.6650   0.0109  -0.0028   0.1766   0.1982
    41  -1.0780   1.1711   0.1354  -0.2211   0.2173  -0.3017  -0.0230   0.0417
    42   0.2992  -0.3085   0.0182  -0.0332  -0.1331   0.1550  -0.0072   0.0097
    43  -1.0780  -1.1711   0.1354   0.2211   0.2173   0.3017  -0.0230  -0.0417
    44   0.2992   0.3085   0.0182   0.0332  -0.1331  -0.1550  -0.0072  -0.0097
    45   1.0780  -1.1711   0.1354  -0.2211   0.2173  -0.3017  -0.0230   0.0417
    46  -0.2992   0.3085   0.0182  -0.0332  -0.1331   0.1550  -0.0072   0.0097
    47   1.0780   1.1711   0.1354   0.2211   0.2173   0.3017  -0.0230  -0.0417
    48  -0.2992  -0.3085   0.0182   0.0332  -0.1331  -0.1550  -0.0072  -0.0097
1



 ===========================
 B O N D I N G   E N E R G Y  ***  (decomposition)  ***
 ===========================
  
*** IMPORTANT NOTE ***

The bond energy is computed as an energy difference between molecule and
fragments. In particular when the fragments are single atoms, they are usually
computed as SPHERICALLY SYMMETRIC and SPIN-RESTRICTED. Obviously, this usually
does NOT represent the true atomic groundstate.

To obtain the 'real' bond energy, (atomic) correction terms must be applied
for the true (multiplet) fragment ground state. See ref: E.J.Baerends,
V.Branchadell, M.Sodupe, Chem.Phys.Lett.265 (1997) 481

General theoretical background on the bond energy decomposition scheme used
here (Morokuma-Ziegler) can be found in the review paper:
F.M. Bickelhaupt and E.J. Baerends,
"Kohn-Sham Density Functional Theory: Predicting and Understanding Chemistry"
In: Rev. Comput. Chem.; Lipkowitz, K. B. and Boyd, D. B., Eds.;
Wiley-VCH: New York, 2000, Vol. 15, 1-86.

Symbols used in the Bickelhaupt-Baerends (BB) paper are given below to make
the direct connection to that paper, where detailed explanations can be found
on the meaning of the various terms.


                                                   hartree              eV         kcal/mol           kJ/mol
                                      --------------------     -----------       ----------      -----------

Pauli Repulsion
  Kinetic (Delta T^0):                  15.602575897435090        424.5677          9790.77         40964.56
  Delta V^Pauli Coulomb:                -7.722710131150476       -210.1456         -4846.07        -20275.97
  Delta V^Pauli LDA-XC:                 -1.873378593104087        -50.9772         -1175.56         -4918.55
  Delta V^Pauli GGA-Exchange:            0.064744077558005          1.7618            40.63           169.99
  Delta V^Pauli GGA-Correlation:        -0.010578338467006         -0.2879            -6.64           -27.77
                                      --------------------     -----------       ----------      -----------
  Total Pauli Repulsion:                 6.060652912271524        164.9188          3803.12         15912.24
 (Total Pauli Repulsion =
  Delta E^Pauli in BB paper)

Steric Interaction
  Pauli Repulsion (Delta E^Pauli):       6.060652912271524        164.9188          3803.12         15912.24
  Electrostatic Interaction:            -1.116130408887243        -30.3715          -700.38         -2930.40
 (Electrostatic Interaction =
  Delta V_elstat in the BB paper)
                                      --------------------     -----------       ----------      -----------
  Total Steric Interaction:              4.944522503384281        134.5473          3102.74         12981.84
 (Total Steric Interaction =
  Delta E^0 in the BB paper)

Orbital Interactions
  A:                                    -6.444107647941560       -175.3531         -4043.74        -16919.00
                                      --------------------     -----------       ----------      -----------
  Total Orbital Interactions:           -6.444107647941560       -175.3531         -4043.74        -16919.00

Alternative Decomposition Orb.Int.
  Kinetic:                             -13.445047402123553       -365.8584         -8436.90        -35299.97
  Coulomb:                               6.654976201601841        181.0911          4176.06         17472.64
  XC:                                    0.345963552580156          9.4141           217.10           908.33
                                      --------------------     -----------       ----------      -----------
  Total Orbital Interactions:           -6.444107647941557       -175.3531         -4043.74        -16919.00

  Residu (E=Steric+OrbInt+Res):         -0.000074304638253         -0.0020            -0.05            -0.20

Total Bonding Energy:                   -1.499659449195531        -40.8078          -941.05         -3937.36


Summary of Bonding Energy (energy terms are taken from the energy decomposition above)
======================================================================================

  Electrostatic Energy:                 -1.116130408887243        -30.3715          -700.38         -2930.40
  Kinetic Energy:                        2.157528495311537         58.7093          1353.87          5664.59
  Coulomb (Steric+OrbInt) Energy:       -1.067808234186889        -29.0565          -670.06         -2803.53
  XC Energy:                            -1.473249301432933        -40.0892          -924.48         -3868.02
                                      --------------------     -----------       ----------      -----------
  Total Bonding Energy:                 -1.499659449195528        -40.8078          -941.05         -3937.36


Correction terms (incorporated in energies above; only for test purposes):

1. Indication of fit-quality: 1st-order fit-correction used in the energy (hartree):   0.0000641186
2. Electrostatic (Fit correction):   0.0000000000



 =========================================
 F R A G M E N T   E N E R G Y   T E R M S  ***  (summed over all fragments)  ***
 =========================================
  

The energy terms below are (parts of) the Total Energy of the fragments from which the molecule
 is built.

Exchange and Correlation
  Exchange LDA:                        -23.978590517232860       -652.4906        -15046.79        -62955.78
  Exchange GGA:                         -2.799031882447539        -76.1655         -1756.42         -7348.86
  Correlation LDA:                      -1.991974216387325        -54.2044         -1249.98         -5229.93
  Correlation GGA:                       1.140120662102317         31.0243           715.44          2993.39
                                      --------------------     -----------       ----------      -----------
  Total XC:                            -27.629475953965411       -751.8363        -17337.76        -72541.18
1



 =======================================================
 S F O   P O P U L A T I O N S ,   M O   A N A L Y S I S
 =======================================================
  
 This section contains the SFO overlap matrices. This data is relevant to determine the bonding/anti-
 bonding nature of the SFO coefficients in the Molecular Orbitals (earlier section).
 A Mulliken population analysis is performed on (input-)selected MOs. All populations refer to SFOs.
 BAS populations may have been printed directly after the SCF part.


                                       === A ===


 ======  SFO Overlap Matrix (valence part only)

 column           1                     2                     3                     4
 row
    1    9.99999999999989E-01
    2   -1.27155230789100E-15  9.99999999999992E-01
    3    9.05699126807491E-15 -2.55351295663786E-15  1.00000000000000E+00
    4   -2.18873313570511E-15 -5.29090660172926E-17 -3.40005801291454E-16  9.99999999999998E-01
    5   -4.02137362038452E-16  2.17816216452338E-16 -6.08237418764368E-17  2.15485181781494E-17
    6   -2.19286665648771E-16 -1.29833210155139E-16 -2.23779328401008E-16  9.22872889219661E-16
    7   -1.41852696692107E-16 -1.50594696365879E-15  1.11629344781361E-16 -2.26375336234506E-16
    8    7.89015111867400E-17  1.91612263198753E-16  2.66994969342057E-15 -1.09670991985670E-15
    9    6.25454549263438E-15 -1.97758476261356E-15  1.04083408558608E-15 -2.65412691824451E-16
   10    9.13939063318381E-15 -1.13797860024079E-15  3.58046925441613E-15 -6.82830528231371E-16
   11    2.93756820145667E-06  5.58184098431464E-04  2.58386124073258E-03 -9.28591540086987E-04
   12    5.58184098429699E-04  1.93501616497383E-02  5.39766572761965E-02 -1.68371305698275E-02
   13    2.58386124073402E-03  5.39766572761954E-02  1.07586897794330E-01 -2.92069530293286E-02
   14   -9.28591540087397E-04 -1.68371305698272E-02 -2.92069530293285E-02  7.34229177568614E-03
   15    4.11215886393902E-03  6.25378235882024E-02  1.08750516744468E-01 -2.83595193862674E-02
   16   -8.16394285873033E-03 -1.10551288098903E-01 -1.64795742534751E-01  3.91577304936027E-02
   17   -2.34229133389790E-16  6.07684201715441E-16 -7.06543008393620E-16  1.96144557131333E-16
   18   -1.36410769341558E-18  2.12452951183383E-16  1.92150544853030E-15 -1.59340470870926E-15
   19   -2.81021814976454E-16  9.36316996158482E-16  3.29597460435593E-17  5.46437894932694E-17
   20    5.42507662057434E-16  1.30104260698261E-16 -4.33680868994202E-17 -7.16440795578421E-16
   21    1.24443950915013E-04  4.56575316956334E-02  3.98610916430161E-02  1.71953439578486E-03
   22    4.66238897540424E-02  4.06729553520239E-01  2.27304189011507E-01 -2.29356559697841E-03
   23    8.78033576605752E-02  3.81922368677131E-01  2.19652804475756E-01 -6.07510639019996E-02
   24    2.09446305875680E-02  7.00261169830783E-02  6.21370496708985E-02 -2.40045342794114E-02
   25   -4.86486596991929E-16  6.54207590877753E-16 -1.26255342985937E-16  3.78657608740562E-17
   26   -5.12116119909950E-17 -1.18665927778538E-16 -1.24336305140638E-15  5.34728511469851E-16
   27   -4.32311132221222E-16 -1.28235120949362E-15  8.23480252570976E-17 -1.12749380725840E-16
   28    1.35239974290250E-17  1.71035085335275E-16  2.44986268227046E-15 -9.85803557979256E-16
   29    9.48413418144380E-02  3.97430841869540E-01 -1.29614559862897E-01  8.25590096262232E-02
   30   -1.31119802162340E-01 -4.13279070813412E-01  2.52163949100384E-02 -4.34146817338475E-03
   31    6.12918500236308E-07  2.14584712984712E-04  1.04579957126167E-03 -3.79896673619502E-04
   32    4.61792425384501E-05  5.37556070467313E-03  2.03505508278011E-02 -6.92236813174662E-03
   33    1.79240462207995E-04  1.34312039409720E-02  4.25885152370512E-02 -1.36685949731765E-02
[...]
      -6.600  2.00    15 A         35.48%     1 P:y            -9.147  1.33     3 O
                                   35.48%     1 P:y            -9.147  1.33     4 O
                                    6.86%     1 S              -6.514  1.00     5 H
                                    6.86%     1 S              -6.514  1.00     7 H
                                    6.86%     1 S              -6.514  1.00     8 H
                                    6.86%     1 S              -6.514  1.00     6 H
      -6.534  2.00    16 A         35.61%     1 P:y            -9.147  1.33     4 O
                                   35.61%     1 P:y            -9.147  1.33     3 O
                                    6.72%     1 S              -6.514  1.00     8 H
                                    6.72%     1 S              -6.514  1.00     6 H
                                    6.72%     1 S              -6.514  1.00     7 H
                                    6.72%     1 S              -6.514  1.00     5 H
      -3.256  0.00    17 A         31.59%     1 P:x            -5.386  0.67     1 C
                                   31.59%     1 P:x            -5.386  0.67     2 C
                                   19.80%     1 P:x            -9.147  1.33     3 O
                                   19.80%     1 P:x            -9.147  1.33     4 O
                                   -1.48%     2 P:x            22.445  0.00     3 O
                                   -1.48%     2 P:x            22.445  0.00     4 O
      -2.629  0.00    18 A         33.39%     1 P:x            -5.386  0.67     2 C
                                   33.39%     1 P:x            -5.386  0.67     1 C
                                   19.04%     1 P:x            -9.147  1.33     4 O
                                   19.04%     1 P:x            -9.147  1.33     3 O
                                   -1.38%     2 P:x            22.445  0.00     4 O
                                   -1.38%     2 P:x            22.445  0.00     3 O
                                   -1.15%     2 P:x            12.196  0.00     2 C
                                   -1.15%     2 P:x            12.196  0.00     1 C
       0.091  0.00    19 A         20.37%     1 S              -6.514  1.00     8 H
                                   20.37%     1 S              -6.514  1.00     6 H
                                   20.37%     1 S              -6.514  1.00     5 H
                                   20.37%     1 S              -6.514  1.00     7 H
                                  -14.21%     3 S              11.200  0.00     2 C
                                  -14.21%     3 S              11.200  0.00     1 C
                                    9.72%     2 S              10.620  0.00     8 H
                                    9.72%     2 S              10.620  0.00     6 H
                                    9.72%     2 S              10.620  0.00     5 H
                                    9.72%     2 S              10.620  0.00     7 H
                                    4.52%     2 S             -13.907  2.00     2 C
                                    4.52%     2 S             -13.907  2.00     1 C
                                   -2.00%     2 P:z            12.196  0.00     2 C
                                   -2.00%     2 P:z            12.196  0.00     1 C
       1.167  0.00    20 A         22.49%     1 S              -6.514  1.00     5 H
                                   22.49%     1 S              -6.514  1.00     7 H
                                   22.49%     1 S              -6.514  1.00     8 H
                                   22.49%     1 S              -6.514  1.00     6 H
                                  -14.17%     3 S              11.200  0.00     1 C
                                  -14.17%     3 S              11.200  0.00     2 C
                                    8.32%     2 S             -13.907  2.00     1 C
                                    8.32%     2 S             -13.907  2.00     2 C
                                    5.63%     2 S              10.620  0.00     5 H
                                    5.63%     2 S              10.620  0.00     7 H
                                    5.63%     2 S              10.620  0.00     8 H
                                    5.63%     2 S              10.620  0.00     6 H
                                   -2.46%     2 P:z            12.196  0.00     1 C
                                   -2.46%     2 P:z            12.196  0.00     2 C
                                    1.30%     1 P:z            -5.386  0.67     1 C
                                    1.30%     1 P:z            -5.386  0.67     2 C



 =======================================
 OCCUPIED-VIRTUAL DIPOLE MATRIX ELEMENTS  ***  (numeric integrals)  ***
 =======================================
  

**************************************************************************
*                                                                        *
*        EXCITATION ENERGY CALCULATION, a part of the ADF-RESPONSE code  *
*                                                                        *
*        RESPONSE, extension of the ADF program for linear and nonlinear *
*        response calculations, by:                                      *
*        S.J.A. van Gisbergen, J.G. Snijders and E.J. Baerends,          *
*                   with contributions by:                               *
*        J.A. Groeneveld, F. Kootstra, and V.P. Osinga                   *
*              version of February 1999, in ADF99                        *
*                                                                        *
*        The most extensive description of the used algorithms is        *
*        given in: S.J.A. van Gisbergen, J.G. Snijders, E.J. Baerends    *
*                  Comp. Phys. Commun. 118 (1999) p.119-138              *
*        and in: S.J.A. van Gisbergen, Ph.D. thesis Amsterdam (1998)     *
*                                                                        *
**************************************************************************


**************************************************************************
*                                                                        *
*             Data for EXCITATION program part                           *
*                                                                        *
* Relevant references are:                                               *
*   S.J.A. van Gisbergen, J.G. Snijders, E.J. Baerends,                  *
*     Comput. Phys. Commun. 118, p.119 (1999)                            *
*   S.J.A. van Gisbergen, F. Kootstra, P.R.T. Schipper, O.V. Gritsenko,  *
*   J. G. Snijders, E.J. Baerends, Phys. Rev. A57 p.2556 (1998)          *
*                                                                        *
*   Ch. Jamorski, M.E. Casida, and D.R. Salahub                          *
*        J. Chem. Phys. 104, p.5134 (1996)                               *
*   R. Bauernschmitt and R. Ahlrichs Chem. Phys. Lett. 256, p.454 (1996) *
*                                                                        *
*   Maximum number of cycles in Davidson part, ndvcyc =              200 *
*                                                                        *
*   The exchange correlation kernel f_xc which is used, is               *
*   Adiabatic LDA, which is frequency-independent.                       *
*                                                                        *
*   Tails of functions are neglected                                     *
*         tailbas =    0.1000000000E-15                                  *
*         tailfit =    0.1000000000E-15                                  *
*   Dipole-allowed irreps are = A                                        *
*                               A                                        *
*                               A                                        *
*                                                                        *
*   Nr of excitation energies per irrep to be calculated                 *
*   Excitations calculated with the davidson method                      *
*       3 of      512 excitations in irrep A    column   1               *
*                                                                        *
**************************************************************************

 The Clebsch-Gordan series for each direct product
                               A
                         -------
 A * A                        X


**************************************************************************
*****  STARTING CALCULATION OF SINGLET-SINGLET EXCITATION ENERGIES  ******
**************************************************************************


Eigenvalues of small (approximate) problem
   i, eigenvalue(i) in dvdson     1    0.1273190131E+00
   i, eigenvalue(i) in dvdson     2    0.1276296566E+00
   i, eigenvalue(i) in dvdson     3    0.1521717540E+00
Eigenvalues of small (approximate) problem
   i, eigenvalue(i) in dvdson     1    0.1255339017E+00
   i, eigenvalue(i) in dvdson     2    0.1276101338E+00
   i, eigenvalue(i) in dvdson     3    0.1521187383E+00
Eigenvalues of small (approximate) problem
   i, eigenvalue(i) in dvdson     1    0.1255335831E+00
   i, eigenvalue(i) in dvdson     2    0.1276101183E+00
   i, eigenvalue(i) in dvdson     3    0.1521183703E+00


**************************************************************************
*                                                                        *
*   Final excitation energies from Davidson algorithm                    *
*                                                                        *
**************************************************************************

    Number of loops in Davidson routine     =    3                    
    Number of matrix-vector multiplications =    9                    
    Type of excitations = SINGLET-SINGLET                                 
                                                                          

 Symmetry A    

 Excitation energies E in a.u. and eV, dE wrt prev. cycle,
 oscillator strengths f in a.u.

 no.  E/a.u.        E/eV      f           dE/a.u.
 -----------------------------------------------------
   1 0.12553      3.4159     0.10605E-13  0.80E-07
   2 0.12761      3.4724     0.53208E-04  0.40E-08
   3 0.15212      4.1394     0.12454E-03  0.11E-06
 
 Transition dipole moments mu (x,y,z) in a.u.
 (weak excitations are not printed)

 no.  E/eV          f                       mu (x,y,z)
 ------------------------------------------------------------------
   2  3.4724     0.53208E-04 -0.21952E-07 -0.25009E-01  0.86682E-07
   3  4.1394     0.12454E-03  0.10323E-07 -0.35044E-01 -0.25470E-06
 
                                                        
 Major MO -> MO transitions for the above excitations   
                                                        
    Excitation  Occupied to virtual  Contribution       

     Nr.          orbitals           weight        contributions to     
                                     (sum=1) transition dipole moment   
                                              x       y       z       


     1:  16a       ->  17a          0.9447 -0.0000  0.0000  0.0000
     1:  15a       ->  18a          0.0552 -0.0000 -0.0000 -0.0000


     2:  15a       ->  17a          0.9191 -0.0000 -0.0181  0.0000
     2:  16a       ->  18a          0.0809 -0.0000 -0.0097 -0.0000


     3:  16a       ->  18a          0.9190 -0.0000 -0.0299 -0.0000
     3:  15a       ->  17a          0.0809  0.0000  0.0049 -0.0000
 

 All SINGLET-SINGLET excitation energies 

 no.     E/a.u.        E/eV      f           Symmetry
 -----------------------------------------------------
   1:     0.12553      3.41594   0.1061E-13  A           
   2:     0.12761      3.47245   0.5321E-04  A           
   3:     0.15212      4.13935   0.1245E-03  A           


**************************************************************************
*****  STARTING CALCULATION OF SINGLET-TRIPLET EXCITATION ENERGIES  ******
**************************************************************************


Eigenvalues of small (approximate) problem
   i, eigenvalue(i) in dvdson     1    0.1147867244E+00
   i, eigenvalue(i) in dvdson     2    0.1156028644E+00
   i, eigenvalue(i) in dvdson     3    0.1392878330E+00
Eigenvalues of small (approximate) problem
   i, eigenvalue(i) in dvdson     1    0.1132906261E+00
   i, eigenvalue(i) in dvdson     2    0.1154294258E+00
   i, eigenvalue(i) in dvdson     3    0.1392278646E+00
Eigenvalues of small (approximate) problem
   i, eigenvalue(i) in dvdson     1    0.1132892922E+00
   i, eigenvalue(i) in dvdson     2    0.1154292860E+00
   i, eigenvalue(i) in dvdson     3    0.1392278101E+00


**************************************************************************
*                                                                        *
*   Final excitation energies from Davidson algorithm                    *
*                                                                        *
**************************************************************************

    Number of loops in Davidson routine     =    3                    
    Number of matrix-vector multiplications =    9                    
    Type of excitations = SINGLET-TRIPLET                                 
                                                                          

 Symmetry A    

 Excitation energies E in a.u. and eV, dE wrt prev. cycle,
 oscillator strengths f in a.u.

 no.  E/a.u.        E/eV      f           dE/a.u.
 -----------------------------------------------------
   1 0.11329      3.0828      0.0000      0.30E-06
   2 0.11543      3.1410      0.0000      0.32E-07
   3 0.13923      3.7886      0.0000      0.15E-07
 
                                                        
 Major MO -> MO transitions for the above excitations   
                                                        
    Excitation  Occupied to virtual  Contribution       

     Nr.          orbitals           weight        contributions to     
                                     (sum=1) transition dipole moment   
                                              x       y       z       


     1:  16a       ->  17a          0.9560
     1:  15a       ->  18a          0.0439


     2:  15a       ->  17a          0.9370
     2:  16a       ->  18a          0.0629


     3:  16a       ->  18a          0.9370
     3:  15a       ->  17a          0.0629
 

 All SINGLET-TRIPLET excitation energies 

 no.     E/a.u.        E/eV      f           Symmetry
 -----------------------------------------------------
   1:     0.11329      3.08276    0.000      A           
   2:     0.11543      3.14099    0.000      A           
   3:     0.13923      3.78858    0.000      A           


 Normal termination of EXCITATION program part





 =======================================================================
 Electrostatic potential at the Nuclei due to electrons and other nuclei
 =======================================================================
  
         Atom                  Potential
         ----                  ---------
     1)   C                  14.66500655
     2)   C                  14.66500682
     3)   O                  22.28043089
     4)   O                  22.28043023
     5)   H                   1.05928552
     6)   H                   1.05928561
     7)   H                   1.05928552
     8)   H                   1.05928561
 
 
 ========================
 No memory problems found
 ========================
 
 Maximum number of active allocate calls:         820
 
 *******************************************************************************

                             A D F   E X I T
 NORMAL TERMINATION



 =================
 Timing Statistics
 =================
  
 Total Used :                     CPU=       19.48      System=        0.13     Elapsed=       19.62

 Calls  Section                     ( Mean, Percentage )
 ---------------------------------------------------------------------------------------------------
     3  ><      ................      0.00    0.01             0.00    0.00             0.00    0.00
     1  INIT    ................      0.40    2.05             0.02   13.74             0.42    2.14
     1  GEOMET  ................      0.01    0.05             0.00    2.29             0.01    0.07
     1  FRAGM   ................      0.01    0.05             0.01    3.82             0.01    0.07
     1  INPUTA  ................      0.00    0.00             0.00    0.00             0.00    0.00
     1  ATDEN   ................      0.00    0.02             0.00    0.76             0.00    0.02
     1  MAINSY  ................      0.01    0.03             0.00    3.82             0.01    0.05
     1  SYMFIT  ................      0.00    0.02             0.00    0.00             0.00    0.02
     1  CORORT  ................      0.00    0.00             0.00    0.00             0.00    0.00
     1  SYMORB  ................      0.00    0.01             0.00    0.00             0.00    0.00
     1  CLSMAT  ................      0.00    0.02             0.00    0.76             0.00    0.02
     1  ORTHON  ................      0.00    0.01             0.00    0.76             0.00    0.02
     1  GENPT   ................      0.18    0.91             0.01    5.34             0.19    0.95
     1  PTBAS   ................      0.07    0.38             0.00    1.53             0.08    0.39
    11  FOCKY   ................      0.82   46.28             0.00   14.50             0.82   46.05
    11  FOCKTR  ................      0.00    0.06             0.00    3.05             0.00    0.06
    11  SDIIS   ................      0.00    0.04             0.00    0.76             0.00    0.07
     1  COREPS  ................      0.77    3.97             0.00    0.76             0.78    3.95
     1  TOTEN   ................      3.66   18.79             0.01   11.45             3.68   18.74
     1  POPAN   ................      0.00    0.01             0.00    0.00             0.00    0.01
     1  DEBYE   ................      0.00    0.01             0.00    0.76             0.00    0.02
     1  INPUTE  ................      0.00    0.01             0.00    0.00             0.00    0.00
     1  SYMORE  ................      0.00    0.00             0.00    0.00             0.00    0.00
     1  METS    ................      0.00    0.01             0.00    0.00             0.00    0.00
     1  CETS    ................      0.00    0.01             0.00    1.53             0.00    0.02
     1  ELNRGY  ................      0.01    0.05             0.00    0.00             0.01    0.05
     1  POPUL   ................      0.00    0.02             0.00    0.76             0.01    0.03
     1  EXCITATIONS ............      5.28   27.11             0.04   32.06             5.33   27.14
     1  EXIT PROCEDURE .........      0.02    0.10             0.00    1.53             0.02    0.11


 Currently Open Files (EXIT00)
 ====================

 Unit    Access Format  Status   Type       Ident (file)
 -------------------------------------------------------
   3      SEQ    FORM   TRANSP  NORMAL      LOGFILE
                                          ( logfile )


 Buffered I/O statistics
 =======================
 Memory available:                     67108864
 Number of records fitting in memory:     16131
 Input :   0.3% of                        33199  *4k bytes
 Output:   4.0% of                        13232  *4k bytes
 Records from serial files evicted:           0
                    others evicted:           0
 Hash table lookups:     128409 with        371 conflicts (  0.29%)
