 argument  1 = dvb_sp_ks.nw
                                         
                                         


              Northwest Computational Chemistry Package (NWChem) 6.5
              ------------------------------------------------------


                    Environmental Molecular Sciences Laboratory
                       Pacific Northwest National Laboratory
                                Richland, WA 99352

                              Copyright (c) 1994-2014
                       Pacific Northwest National Laboratory
                            Battelle Memorial Institute

             NWChem is an open-source computational chemistry package
                        distributed under the terms of the
                      Educational Community License (ECL) 2.0
             A copy of the license is included with this distribution
                              in the LICENSE.TXT file

                                  ACKNOWLEDGMENT
                                  --------------

            This software and its documentation were developed at the
            EMSL at Pacific Northwest National Laboratory, a multiprogram
            national laboratory, operated for the U.S. Department of Energy
            by Battelle under Contract Number DE-AC05-76RL01830. Support
            for this work was provided by the Department of Energy Office
            of Biological and Environmental Research, Office of Basic
            Energy Sciences, and the Office of Advanced Scientific Computing.


           Job information
           ---------------

    hostname        = boman
    program         = /usr/lib64/mpich/bin/nwchem_mpich
    date            = Thu Jan 22 19:53:54 2015

    compiled        = Sat_Dec_06_13:02:58_2014
    source          = /builddir/build/BUILD/Nwchem-6.5.revision26243-src.2014-09-10
    nwchem branch   = 6.5
    nwchem revision = 26243
    ga revision     = 10506
    input           = dvb_sp_ks.nw
    prefix          = dvb.
    data base       = ./dvb.db
    status          = startup
    nproc           =        1
    time left       =     -1s



           Memory information
           ------------------

    heap     =   13107194 doubles =    100.0 Mbytes
    stack    =   13107199 doubles =    100.0 Mbytes
    global   =   26214400 doubles =    200.0 Mbytes (distinct from heap & stack)
    total    =   52428793 doubles =    400.0 Mbytes
    verify   = yes
    hardfail = no 


           Directory information
           ---------------------

  0 permanent = .
  0 scratch   = .




                                NWChem Input Module
                                -------------------


                        Divinylbenzene in STO-3G basis set
                        ----------------------------------

 Scaling coordinates for geometry "geometry" by  1.889725989
 (inverse scale =  0.529177249)

 C2H symmetry detected

          ------
          auto-z
          ------


                             Geometry "geometry" -> ""
                             -------------------------

 Output coordinates in angstroms (scale by  1.889725989 to convert to a.u.)

  No.       Tag          Charge          X              Y              Z
 ---- ---------------- ---------- -------------- -------------- --------------
    1 C                    6.0000     0.23680554     1.41416660     0.00000000
    2 C                    6.0000    -0.23680554    -1.41416660     0.00000000
    3 C                    6.0000     1.31675086     0.48901061     0.00000000
    4 C                    6.0000    -1.31675086    -0.48901061     0.00000000
    5 C                    6.0000     1.08679847    -0.89447642     0.00000000
    6 C                    6.0000    -1.08679847     0.89447642     0.00000000
    7 H                    1.0000     2.34780221     0.86863451     0.00000000
    8 H                    1.0000    -2.34780221    -0.86863451     0.00000000
    9 H                    1.0000     1.93764188    -1.58693865     0.00000000
   10 H                    1.0000    -1.93764188     1.58693865     0.00000000
   11 C                    6.0000    -0.53450789    -2.88212824     0.00000000
   12 C                    6.0000     0.53450789     2.88212824     0.00000000
   13 H                    1.0000    -1.60655769    -3.13289308     0.00000000
   14 H                    1.0000     1.60655769     3.13289308     0.00000000
   15 C                    6.0000     0.36419263    -3.88177971     0.00000000
   16 C                    6.0000    -0.36419263     3.88177971     0.00000000
   17 H                    1.0000     1.44522900    -3.70144241     0.00000000
   18 H                    1.0000    -1.44522900     3.70144241     0.00000000
   19 H                    1.0000     0.04815351    -4.93192286     0.00000000
   20 H                    1.0000    -0.04815351     4.93192286     0.00000000

      Atomic Mass 
      ----------- 

      C                 12.000000
      H                  1.007825


 Effective nuclear repulsion energy (a.u.)     445.9370121674

            Nuclear Dipole moment (a.u.) 
            ----------------------------
        X                 Y               Z
 ---------------- ---------------- ----------------
     0.0000000000     0.0000000000     0.0000000000

      Symmetry information
      --------------------

 Group name             C2h       
 Group number             21
 Group order               4
 No. of unique centers    10

      Symmetry unique atoms

     1    3    5    7    9   11   13   15   17   19



                                Z-matrix (autoz)
                                -------- 

 Units are Angstrom for bonds and degrees for angles

      Type          Name      I     J     K     L     M      Value
      ----------- --------  ----- ----- ----- ----- ----- ----------
    1 Stretch                  1     3                       1.42204
    2 Stretch                  1     6                       1.42197
    3 Stretch                  1    12                       1.49784
    4 Stretch                  2     4                       1.42204
    5 Stretch                  2     5                       1.42197
    6 Stretch                  2    11                       1.49784
    7 Stretch                  3     5                       1.40247
    8 Stretch                  3     7                       1.09872
    9 Stretch                  4     6                       1.40247
   10 Stretch                  4     8                       1.09872
   11 Stretch                  5     9                       1.09701
   12 Stretch                  6    10                       1.09701
   13 Stretch                 11    13                       1.10099
   14 Stretch                 11    15                       1.34423
   15 Stretch                 12    14                       1.10099
   16 Stretch                 12    16                       1.34423
   17 Stretch                 15    17                       1.09597
   18 Stretch                 15    19                       1.09667
   19 Stretch                 16    18                       1.09597
   20 Stretch                 16    20                       1.09667
   21 Bend                     1     3     5               121.14867
   22 Bend                     1     3     7               119.20109
   23 Bend                     1     6     4               120.87358
   24 Bend                     1     6    10               119.42285
   25 Bend                     1    12    14               114.62953
   26 Bend                     1    12    16               126.57992
   27 Bend                     2     4     6               121.14867
   28 Bend                     2     4     8               119.20109
   29 Bend                     2     5     3               120.87358
   30 Bend                     2     5     9               119.42285
   31 Bend                     2    11    13               114.62953
   32 Bend                     2    11    15               126.57992
   33 Bend                     3     1     6               117.97776
   34 Bend                     3     1    12               119.12155
   35 Bend                     3     5     9               119.70357
   36 Bend                     4     2     5               117.97776
   37 Bend                     4     2    11               119.12155
   38 Bend                     4     6    10               119.70357
   39 Bend                     5     2    11               122.90069
   40 Bend                     5     3     7               119.65024
   41 Bend                     6     1    12               122.90069
   42 Bend                     6     4     8               119.65024
   43 Bend                    11    15    17               122.48517
   44 Bend                    11    15    19               121.29492
   45 Bend                    12    16    18               122.48517
   46 Bend                    12    16    20               121.29492
   47 Bend                    13    11    15               118.79054
   48 Bend                    14    12    16               118.79054
   49 Bend                    17    15    19               116.21990
   50 Bend                    18    16    20               116.21990
   51 Torsion                  1     3     5     2           0.00000
   52 Torsion                  1     3     5     9         180.00000
   53 Torsion                  1     6     4     2           0.00000
   54 Torsion                  1     6     4     8         180.00000
   55 Torsion                  1    12    16    18           0.00000
   56 Torsion                  1    12    16    20         180.00000
   57 Torsion                  2     4     6    10         180.00000
   58 Torsion                  2     5     3     7         180.00000
   59 Torsion                  2    11    15    17           0.00000
   60 Torsion                  2    11    15    19         180.00000
   61 Torsion                  3     1     6     4           0.00000
   62 Torsion                  3     1     6    10         180.00000
   63 Torsion                  3     1    12    14           0.00000
   64 Torsion                  3     1    12    16         180.00000
   65 Torsion                  3     5     2     4           0.00000
   66 Torsion                  3     5     2    11         180.00000
   67 Torsion                  4     2     5     9         180.00000
   68 Torsion                  4     2    11    13           0.00000
   69 Torsion                  4     2    11    15         180.00000
   70 Torsion                  4     6     1    12         180.00000
   71 Torsion                  5     2     4     6          -0.00000
   72 Torsion                  5     2     4     8         180.00000
   73 Torsion                  5     2    11    13         180.00000
   74 Torsion                  5     2    11    15           0.00000
   75 Torsion                  5     3     1     6           0.00000
   76 Torsion                  5     3     1    12         180.00000
   77 Torsion                  6     1     3     7         180.00000
   78 Torsion                  6     1    12    14         180.00000
   79 Torsion                  6     1    12    16           0.00000
   80 Torsion                  6     4     2    11         180.00000
   81 Torsion                  7     3     1    12          -0.00000
   82 Torsion                  7     3     5     9           0.00000
   83 Torsion                  8     4     2    11          -0.00000
   84 Torsion                  8     4     6    10           0.00000
   85 Torsion                  9     5     2    11           0.00000
   86 Torsion                 10     6     1    12           0.00000
   87 Torsion                 13    11    15    17         180.00000
   88 Torsion                 13    11    15    19          -0.00000
   89 Torsion                 14    12    16    18         180.00000
   90 Torsion                 14    12    16    20          -0.00000


            XYZ format geometry
            -------------------
    20
 geometry
 C                     0.23680554     1.41416660     0.00000000
 C                    -0.23680554    -1.41416660     0.00000000
 C                     1.31675086     0.48901061     0.00000000
 C                    -1.31675086    -0.48901061     0.00000000
 C                     1.08679847    -0.89447642     0.00000000
 C                    -1.08679847     0.89447642     0.00000000
 H                     2.34780221     0.86863451     0.00000000
 H                    -2.34780221    -0.86863451     0.00000000
 H                     1.93764188    -1.58693865     0.00000000
 H                    -1.93764188     1.58693865     0.00000000
 C                    -0.53450789    -2.88212824     0.00000000
 C                     0.53450789     2.88212824     0.00000000
 H                    -1.60655769    -3.13289308     0.00000000
 H                     1.60655769     3.13289308     0.00000000
 C                     0.36419263    -3.88177971     0.00000000
 C                    -0.36419263     3.88177971     0.00000000
 H                     1.44522900    -3.70144241     0.00000000
 H                    -1.44522900     3.70144241     0.00000000
 H                     0.04815351    -4.93192286     0.00000000
 H                    -0.04815351     4.93192286     0.00000000

 ==============================================================================
                                internuclear distances
 ------------------------------------------------------------------------------
       center one      |      center two      | atomic units |  angstroms
 ------------------------------------------------------------------------------
    3 C                |   1 C                |     2.68726  |     1.42204
    4 C                |   2 C                |     2.68726  |     1.42204
    5 C                |   2 C                |     2.68714  |     1.42197
    5 C                |   3 C                |     2.65028  |     1.40247
    6 C                |   1 C                |     2.68714  |     1.42197
    6 C                |   4 C                |     2.65028  |     1.40247
    7 H                |   3 C                |     2.07628  |     1.09872
    8 H                |   4 C                |     2.07628  |     1.09872
    9 H                |   5 C                |     2.07305  |     1.09701
   10 H                |   6 C                |     2.07305  |     1.09701
   11 C                |   2 C                |     2.83052  |     1.49784
   12 C                |   1 C                |     2.83052  |     1.49784
   13 H                |  11 C                |     2.08056  |     1.10099
   14 H                |  12 C                |     2.08056  |     1.10099
   15 C                |  11 C                |     2.54023  |     1.34423
   16 C                |  12 C                |     2.54023  |     1.34423
   17 H                |  15 C                |     2.07109  |     1.09597
   18 H                |  16 C                |     2.07109  |     1.09597
   19 H                |  15 C                |     2.07240  |     1.09667
   20 H                |  16 C                |     2.07240  |     1.09667
 ------------------------------------------------------------------------------
                         number of included internuclear distances:         20
 ==============================================================================



 ==============================================================================
                                 internuclear angles
 ------------------------------------------------------------------------------
        center 1       |       center 2       |       center 3       |  degrees
 ------------------------------------------------------------------------------
    3 C                |   1 C                |   6 C                |   117.98
    3 C                |   1 C                |  12 C                |   119.12
    6 C                |   1 C                |  12 C                |   122.90
    4 C                |   2 C                |   5 C                |   117.98
    4 C                |   2 C                |  11 C                |   119.12
    5 C                |   2 C                |  11 C                |   122.90
    1 C                |   3 C                |   5 C                |   121.15
    1 C                |   3 C                |   7 H                |   119.20
    5 C                |   3 C                |   7 H                |   119.65
    2 C                |   4 C                |   6 C                |   121.15
    2 C                |   4 C                |   8 H                |   119.20
    6 C                |   4 C                |   8 H                |   119.65
    2 C                |   5 C                |   3 C                |   120.87
    2 C                |   5 C                |   9 H                |   119.42
    3 C                |   5 C                |   9 H                |   119.70
    1 C                |   6 C                |   4 C                |   120.87
    1 C                |   6 C                |  10 H                |   119.42
    4 C                |   6 C                |  10 H                |   119.70
    2 C                |  11 C                |  13 H                |   114.63
    2 C                |  11 C                |  15 C                |   126.58
   13 H                |  11 C                |  15 C                |   118.79
    1 C                |  12 C                |  14 H                |   114.63
    1 C                |  12 C                |  16 C                |   126.58
   14 H                |  12 C                |  16 C                |   118.79
   11 C                |  15 C                |  17 H                |   122.49
   11 C                |  15 C                |  19 H                |   121.29
   17 H                |  15 C                |  19 H                |   116.22
   12 C                |  16 C                |  18 H                |   122.49
   12 C                |  16 C                |  20 H                |   121.29
   18 H                |  16 C                |  20 H                |   116.22
 ------------------------------------------------------------------------------
                            number of included internuclear angles:         30
 ==============================================================================



  library name resolved from: environment
  library file name is: </usr/share/nwchem/libraries/>
  


 Summary of "ao basis" -> "" (cartesian)
 ------------------------------------------------------------------------------
       Tag                 Description            Shells   Functions and Types
 ---------------- ------------------------------  ------  ---------------------
 *                           sto-3g                   on all atoms 


                              NWChem Property Module
                              ----------------------


                        Divinylbenzene in STO-3G basis set

  itol2e modified to match energy
  convergence criterion.

                                 NWChem DFT Module
                                 -----------------


                        Divinylbenzene in STO-3G basis set


                      Basis "ao basis" -> "ao basis" (cartesian)
                      -----
  C (Carbon)
  ----------
            Exponent  Coefficients 
       -------------- ---------------------------------------------------------
  1 S  7.16168370E+01  0.154329
  1 S  1.30450960E+01  0.535328
  1 S  3.53051220E+00  0.444635

  2 S  2.94124940E+00 -0.099967
  2 S  6.83483100E-01  0.399513
  2 S  2.22289900E-01  0.700115

  3 P  2.94124940E+00  0.155916
  3 P  6.83483100E-01  0.607684
  3 P  2.22289900E-01  0.391957

  H (Hydrogen)
  ------------
            Exponent  Coefficients 
       -------------- ---------------------------------------------------------
  1 S  3.42525091E+00  0.154329
  1 S  6.23913730E-01  0.535328
  1 S  1.68855400E-01  0.444635



 Summary of "ao basis" -> "ao basis" (cartesian)
 ------------------------------------------------------------------------------
       Tag                 Description            Shells   Functions and Types
 ---------------- ------------------------------  ------  ---------------------
 C                           sto-3g                  3        5   2s1p
 H                           sto-3g                  1        1   1s




 Summary of "ao basis" -> "ao basis" (cartesian)
 ------------------------------------------------------------------------------
       Tag                 Description            Shells   Functions and Types
 ---------------- ------------------------------  ------  ---------------------
 C                           sto-3g                  3        5   2s1p
 H                           sto-3g                  1        1   1s


      Symmetry analysis of basis
      --------------------------

        ag         25
        au          5
        bg          5
        bu         25

  Caching 1-el integrals 
  itol2e modified to match energy
  convergence criterion.

            General Information
            -------------------
          SCF calculation type: DFT
          Wavefunction type:  closed shell.
          No. of atoms     :    20
          No. of electrons :    70
           Alpha electrons :    35
            Beta electrons :    35
          Charge           :     0
          Spin multiplicity:     1
          Use of symmetry is: on ; symmetry adaption is: on 
          Maximum number of iterations:  30
          AO basis - number of functions:    60
                     number of shells:    40
          Convergence on energy requested: 1.00D-07
          Convergence on density requested: 1.00D-05
          Convergence on gradient requested: 5.00D-04

              XC Information
              --------------
                         B3LYP Method XC Potential
                     Hartree-Fock (Exact) Exchange  0.200          
                        Slater Exchange Functional  0.800 local    
                    Becke 1988 Exchange Functional  0.720 non-local
              Lee-Yang-Parr Correlation Functional  0.810          
                  VWN I RPA Correlation Functional  0.190 local    

             Grid Information
             ----------------
          Grid used for XC integration:  xfine     
          Radial quadrature: Mura-Knowles        
          Angular quadrature: Lebedev. 
          Tag              B.-S. Rad. Rad. Pts. Rad. Cut. Ang. Pts.
          ---              ---------- --------- --------- ---------
          C                   0.70      100          13.0      1454
          H                   0.35      100          13.0      1202
          Grid pruning is: on 
          Number of quadrature shells:  1000
          Spatial weights used:  Erf1

          Convergence Information
          -----------------------
          Convergence aids based upon iterative change in 
          total energy or number of iterations. 
          Levelshifting, if invoked, occurs when the 
          HOMO/LUMO gap drops below (HL_TOL): 1.00D-02
          DIIS, if invoked, will attempt to extrapolate 
          using up to (NFOCK): 10 stored Fock matrices.

                    Damping( 0%)  Levelshifting(0.5)       DIIS
                  --------------- ------------------- ---------------
          dE  on:    start            ASAP                start   
          dE off:    2 iters         30 iters            30 iters 


      Screening Tolerance Information
      -------------------------------
          Density screening/tol_rho: 1.00D-11
          AO Gaussian exp screening on grid/accAOfunc:  16
          CD Gaussian exp screening on grid/accCDfunc:  20
          XC Gaussian exp screening on grid/accXCfunc:  20
          Schwarz screening/accCoul: 1.00D-08


 global array: Temp Over[1:60,1:60],  handle: -989 

            1           2           3           4           5           6  
       ----------- ----------- ----------- ----------- ----------- -----------
   1       1.00000     0.24836    -0.00000    -0.00000     0.00000     0.00000
   2       0.24836     1.00000     0.00000    -0.00000     0.00000     0.00030
   3      -0.00000     0.00000     1.00000     0.00000     0.00000    -0.00014
   4      -0.00000    -0.00000     0.00000     1.00000     0.00000    -0.00081
   5       0.00000     0.00000     0.00000     0.00000     1.00000     0.00000
   6       0.00000     0.00030    -0.00014    -0.00081     0.00000     1.00000
   7       0.00030     0.02187    -0.00590    -0.03524     0.00000     0.24836
   8       0.00014     0.00590     0.00661    -0.01021     0.00000     0.00000
   9       0.00081     0.03524    -0.01021    -0.05268     0.00000     0.00000
  10       0.00000     0.00000     0.00000     0.00000     0.00832     0.00000
  11       0.00000     0.03557     0.04482    -0.03839     0.00000     0.00000
  12       0.03557     0.35371     0.28849    -0.24714     0.00000     0.00159
  13      -0.04482    -0.28849    -0.10190     0.26261     0.00000    -0.00235
  14       0.03839     0.24714     0.26261    -0.02032     0.00000    -0.00288
  15       0.00000     0.00000     0.00000     0.00000     0.20465     0.00000
  16       0.00000     0.00159    -0.00235    -0.00288     0.00000     0.00000
  17       0.00159     0.05619    -0.05280    -0.06468     0.00000     0.03557
  18       0.00235     0.05280    -0.03131    -0.06691     0.00000     0.04482
  19       0.00288     0.06468    -0.06691    -0.05866     0.00000    -0.03839
  20       0.00000     0.00000     0.00000     0.00000     0.02331     0.00000
  21       0.00000     0.00157     0.00127    -0.00344     0.00000     0.00000
  22       0.00157     0.05578     0.02866    -0.07785     0.00000     0.03558
  23      -0.00127    -0.02866     0.00691     0.04403     0.00000    -0.05494
  24       0.00344     0.07785     0.04403    -0.09646     0.00000    -0.02157
  25       0.00000     0.00000     0.00000     0.00000     0.02312     0.00000
  26       0.00000     0.03558    -0.05494    -0.02157     0.00000     0.00000
  27       0.03558     0.35374    -0.35362    -0.13884     0.00000     0.00157
  28       0.05494     0.35362    -0.25587    -0.18083     0.00000     0.00127
  29       0.02157     0.13884    -0.18083     0.13368     0.00000    -0.00344
  30       0.00000     0.00000     0.00000     0.00000     0.20467     0.00000
  31       0.00509     0.09301     0.11685    -0.03020     0.00000     0.00008
  32       0.00008     0.00590    -0.00738    -0.00652     0.00000     0.00509
  33       0.00008     0.00588     0.00484    -0.00854     0.00000     0.00508
  34       0.00508     0.09284    -0.12012     0.00954     0.00000     0.00008
  35       0.00000     0.00000    -0.00000    -0.00000     0.00000     0.00000
  36       0.00000     0.00026    -0.00010    -0.00057     0.00000     0.02955
  37       0.00000     0.00010     0.00004    -0.00022     0.00000     0.00980
  38       0.00000     0.00057    -0.00022    -0.00117     0.00000     0.04831
  39       0.00000     0.00000     0.00000     0.00000     0.00008     0.00000
  40       0.00000     0.02955     0.00980     0.04831     0.00000     0.00000
  41       0.02955     0.31761     0.06996     0.34497     0.00000     0.00000
  42      -0.00980    -0.06996     0.15824    -0.09697     0.00000    -0.00000
  43      -0.04831    -0.34497    -0.09697    -0.30023     0.00000    -0.00000
  44       0.00000     0.00000     0.00000     0.00000     0.17791     0.00000
  45       0.00000     0.00008    -0.00007    -0.00016     0.00000     0.00487
  46       0.00487     0.09007     0.07314     0.09177     0.00000     0.00000
  47       0.00000     0.00000     0.00000    -0.00000     0.00000     0.00000
  48       0.00000     0.00001     0.00000    -0.00002     0.00000     0.00116
  49      -0.00000    -0.00000     0.00000     0.00000     0.00000    -0.00066
  50       0.00000     0.00002     0.00000    -0.00005     0.00000     0.00272
  51       0.00000     0.00000     0.00000     0.00000     0.00000     0.00000
  52       0.00000     0.00116    -0.00066     0.00272     0.00000     0.00000
  53       0.00116     0.04688    -0.01682     0.06907     0.00000     0.00000
  54       0.00066     0.01682     0.01248     0.02713     0.00000     0.00000
  55      -0.00272    -0.06907     0.02713    -0.09229     0.00000    -0.00000
  56       0.00000     0.00000     0.00000     0.00000     0.01908     0.00000
  57       0.00000     0.00002     0.00001    -0.00005     0.00000     0.00074
  58       0.00074     0.02468    -0.02186     0.02972     0.00000     0.00000
  59       0.00000     0.00000    -0.00000    -0.00000     0.00000     0.00006
  60       0.00006     0.00481    -0.00066     0.00811     0.00000     0.00000

            7           8           9          10          11          12  
       ----------- ----------- ----------- ----------- ----------- -----------
   1       0.00030     0.00014     0.00081     0.00000     0.00000     0.03557
   2       0.02187     0.00590     0.03524     0.00000     0.03557     0.35371
   3      -0.00590     0.00661    -0.01021     0.00000     0.04482     0.28849
   4      -0.03524    -0.01021    -0.05268     0.00000    -0.03839    -0.24714
   5       0.00000     0.00000     0.00000     0.00832     0.00000     0.00000
   6       0.24836     0.00000     0.00000     0.00000     0.00000     0.00159
   7       1.00000    -0.00000     0.00000     0.00000     0.00159     0.05619
   8      -0.00000     1.00000     0.00000     0.00000     0.00235     0.05280
   9       0.00000     0.00000     1.00000     0.00000     0.00288     0.06468
  10       0.00000     0.00000     0.00000     1.00000     0.00000     0.00000
  11       0.00159     0.00235     0.00288     0.00000     1.00000     0.24836
  12       0.05619     0.05280     0.06468     0.00000     0.24836     1.00000
  13      -0.05280    -0.03131    -0.06691     0.00000     0.00000     0.00000
  14      -0.06468    -0.06691    -0.05866     0.00000    -0.00000    -0.00000
  15       0.00000     0.00000     0.00000     0.02331     0.00000     0.00000
  16       0.03557    -0.04482     0.03839     0.00000     0.00000     0.00039
  17       0.35371    -0.28849     0.24714     0.00000     0.00039     0.02519
  18       0.28849    -0.10190     0.26261     0.00000     0.00097     0.03810
  19      -0.24714     0.26261    -0.02032     0.00000     0.00036     0.01415
  20       0.00000     0.00000     0.00000     0.20465     0.00000     0.00000
  21       0.03558     0.05494     0.02157     0.00000     0.00000     0.03729
  22       0.35374     0.35362     0.13884     0.00000     0.03729     0.36341
  23      -0.35362    -0.25587    -0.18083     0.00000     0.01014     0.06345
  24      -0.13884    -0.18083     0.13368     0.00000     0.06099     0.38176
  25       0.00000     0.00000     0.00000     0.20467     0.00000     0.00000
  26       0.00157    -0.00127     0.00344     0.00000     0.00000     0.00170
  27       0.05578    -0.02866     0.07785     0.00000     0.00170     0.05856
  28       0.02866     0.00691     0.04403     0.00000     0.00390     0.08539
  29      -0.07785     0.04403    -0.09646     0.00000    -0.00066    -0.01441
  30       0.00000     0.00000     0.00000     0.02312     0.00000     0.00000
  31       0.00590     0.00738     0.00652     0.00000     0.06102     0.48575
  32       0.09301    -0.11685     0.03020     0.00000     0.00001     0.00175
  33       0.09284     0.12012    -0.00954     0.00000     0.00527     0.09535
  34       0.00588    -0.00484     0.00854     0.00000     0.00008     0.00611
  35       0.02955    -0.00980    -0.04831     0.00000     0.00000     0.00000
  36       0.31761    -0.06996    -0.34497     0.00000     0.00000     0.00144
  37       0.06996     0.15824    -0.09697     0.00000     0.00000     0.00139
  38       0.34497    -0.09697    -0.30023     0.00000     0.00001     0.00253
  39       0.00000     0.00000     0.00000     0.17791     0.00000     0.00000
  40       0.00000     0.00000     0.00000     0.00000     0.00000     0.00126
  41       0.00026     0.00010     0.00057     0.00000     0.00126     0.04921
  42      -0.00010     0.00004    -0.00022     0.00000     0.00094     0.02306
  43      -0.00057    -0.00022    -0.00117     0.00000    -0.00287    -0.07056
  44       0.00000     0.00000     0.00000     0.00008     0.00000     0.00000
  45       0.09007    -0.07314    -0.09177     0.00000     0.00000     0.00019
  46       0.00008     0.00007     0.00016     0.00000     0.00132     0.03624
  47       0.00116     0.00066    -0.00272     0.00000     0.00000     0.00000
  48       0.04688     0.01682    -0.06907     0.00000     0.00000     0.00018
  49      -0.01682     0.01248     0.02713     0.00000     0.00000     0.00009
  50       0.06907     0.02713    -0.09229     0.00000     0.00000     0.00039
  51       0.00000     0.00000     0.00000     0.01908     0.00000     0.00000
  52       0.00000    -0.00000     0.00000     0.00000     0.00000     0.00000
  53       0.00001    -0.00000     0.00002     0.00000     0.00000     0.00174
  54       0.00000     0.00000     0.00000     0.00000     0.00000     0.00152
  55      -0.00002     0.00000    -0.00005     0.00000    -0.00001    -0.00307
  56       0.00000     0.00000     0.00000     0.00000     0.00000     0.00000
  57       0.02468     0.02186    -0.02972     0.00000     0.00000     0.00078
  58       0.00002    -0.00001     0.00005     0.00000     0.00000     0.00068
  59       0.00481     0.00066    -0.00811     0.00000     0.00000     0.00001
  60       0.00000     0.00000     0.00000     0.00000     0.00000     0.00019

           13          14          15          16          17          18  
       ----------- ----------- ----------- ----------- ----------- -----------
   1      -0.04482     0.03839     0.00000     0.00000     0.00159     0.00235
   2      -0.28849     0.24714     0.00000     0.00159     0.05619     0.05280
   3      -0.10190     0.26261     0.00000    -0.00235    -0.05280    -0.03131
   4       0.26261    -0.02032     0.00000    -0.00288    -0.06468    -0.06691
   5       0.00000     0.00000     0.20465     0.00000     0.00000     0.00000
   6      -0.00235    -0.00288     0.00000     0.00000     0.03557     0.04482
   7      -0.05280    -0.06468     0.00000     0.03557     0.35371     0.28849
   8      -0.03131    -0.06691     0.00000    -0.04482    -0.28849    -0.10190
   9      -0.06691    -0.05866     0.00000     0.03839     0.24714     0.26261
  10       0.00000     0.00000     0.02331     0.00000     0.00000     0.00000
  11       0.00000    -0.00000     0.00000     0.00000     0.00039     0.00097
  12       0.00000    -0.00000     0.00000     0.00039     0.02519     0.03810
  13       1.00000     0.00000     0.00000    -0.00097    -0.03810    -0.05238
  14       0.00000     1.00000     0.00000    -0.00036    -0.01415    -0.02305
  15       0.00000     0.00000     1.00000     0.00000     0.00000     0.00000
  16      -0.00097    -0.00036     0.00000     1.00000     0.24836    -0.00000
  17      -0.03810    -0.01415     0.00000     0.24836     1.00000    -0.00000
  18      -0.05238    -0.02305     0.00000    -0.00000    -0.00000     1.00000
  19      -0.02305     0.00113     0.00000     0.00000     0.00000     0.00000
  20       0.00000     0.00000     0.00969     0.00000     0.00000     0.00000
  21      -0.01014    -0.06099     0.00000     0.00000     0.00170     0.00390
  22      -0.06345    -0.38176     0.00000     0.00170     0.05856     0.08539
  23       0.19756    -0.08733     0.00000    -0.00390    -0.08539    -0.11288
  24      -0.08733    -0.31332     0.00000     0.00066     0.01441     0.02316
  25       0.00000     0.00000     0.21207     0.00000     0.00000     0.00000
  26      -0.00390     0.00066     0.00000     0.00000     0.03729     0.01014
  27      -0.08539     0.01441     0.00000     0.03729     0.36341     0.06345
  28      -0.11288     0.02316     0.00000    -0.01014    -0.06345     0.19756
  29       0.02316     0.02049     0.00000    -0.06099    -0.38176    -0.08733
  30       0.00000     0.00000     0.02440     0.00000     0.00000     0.00000
  31       0.43567     0.16041     0.00000     0.00001     0.00175     0.00297
  32      -0.00297    -0.00110     0.00000     0.06102     0.48575    -0.43567
  33       0.03534    -0.11815     0.00000     0.00008     0.00611     0.00963
  34      -0.00963     0.00325     0.00000     0.00527     0.09535    -0.03534
  35      -0.00000    -0.00001     0.00000     0.00000     0.00126     0.00094
  36      -0.00139    -0.00253     0.00000     0.00126     0.04921     0.02306
  37      -0.00089    -0.00250     0.00000    -0.00094    -0.02306     0.00828
  38      -0.00250    -0.00407     0.00000     0.00287     0.07056     0.03624
  39       0.00000     0.00000     0.00048     0.00000     0.00000     0.00000
  40      -0.00094     0.00287     0.00000     0.00000     0.00000     0.00000
  41      -0.02306     0.07056     0.00000     0.00000     0.00144     0.00139
  42       0.00828     0.03624     0.00000    -0.00000    -0.00139    -0.00089
  43       0.03624    -0.09075     0.00000    -0.00001    -0.00253    -0.00250
  44       0.00000     0.00000     0.02013     0.00000     0.00000     0.00000
  45      -0.00024    -0.00030     0.00000     0.00132     0.03624    -0.00570
  46       0.00570     0.05196     0.00000     0.00000     0.00019     0.00024
  47      -0.00000    -0.00000     0.00000     0.00000     0.00000     0.00000
  48      -0.00009    -0.00039     0.00000     0.00000     0.00174     0.00152
  49       0.00002    -0.00019     0.00000    -0.00000    -0.00152    -0.00079
  50      -0.00019    -0.00082     0.00000     0.00001     0.00307     0.00277
  51       0.00000     0.00000     0.00006     0.00000     0.00000     0.00000
  52      -0.00000     0.00001     0.00000     0.00000     0.00000     0.00000
  53      -0.00152     0.00307     0.00000     0.00000     0.00018     0.00009
  54      -0.00079     0.00277     0.00000    -0.00000    -0.00009     0.00002
  55       0.00277    -0.00501     0.00000    -0.00000    -0.00039    -0.00019
  56       0.00000     0.00000     0.00058     0.00000     0.00000     0.00000
  57       0.00005    -0.00148     0.00000     0.00000     0.00068     0.00085
  58      -0.00085     0.00099     0.00000     0.00000     0.00078    -0.00005
  59      -0.00000    -0.00002     0.00000     0.00000     0.00019     0.00012
  60      -0.00012     0.00038     0.00000     0.00000     0.00001     0.00000

           19          20          21          22          23          24  
       ----------- ----------- ----------- ----------- ----------- -----------
   1       0.00288     0.00000     0.00000     0.00157    -0.00127     0.00344
   2       0.06468     0.00000     0.00157     0.05578    -0.02866     0.07785
   3      -0.06691     0.00000     0.00127     0.02866     0.00691     0.04403
   4      -0.05866     0.00000    -0.00344    -0.07785     0.04403    -0.09646
   5       0.00000     0.02331     0.00000     0.00000     0.00000     0.00000
   6      -0.03839     0.00000     0.00000     0.03558    -0.05494    -0.02157
   7      -0.24714     0.00000     0.03558     0.35374    -0.35362    -0.13884
   8       0.26261     0.00000     0.05494     0.35362    -0.25587    -0.18083
   9      -0.02032     0.00000     0.02157     0.13884    -0.18083     0.13368
  10       0.00000     0.20465     0.00000     0.00000     0.00000     0.00000
  11       0.00036     0.00000     0.00000     0.03729     0.01014     0.06099
  12       0.01415     0.00000     0.03729     0.36341     0.06345     0.38176
  13      -0.02305     0.00000    -0.01014    -0.06345     0.19756    -0.08733
  14       0.00113     0.00000    -0.06099    -0.38176    -0.08733    -0.31332
  15       0.00000     0.00969     0.00000     0.00000     0.00000     0.00000
  16       0.00000     0.00000     0.00000     0.00170    -0.00390     0.00066
  17       0.00000     0.00000     0.00170     0.05856    -0.08539     0.01441
  18       0.00000     0.00000     0.00390     0.08539    -0.11288     0.02316
  19       1.00000     0.00000    -0.00066    -0.01441     0.02316     0.02049
  20       0.00000     1.00000     0.00000     0.00000     0.00000     0.00000
  21      -0.00066     0.00000     1.00000     0.24836    -0.00000    -0.00000
  22      -0.01441     0.00000     0.24836     1.00000     0.00000    -0.00000
  23       0.02316     0.00000    -0.00000     0.00000     1.00000     0.00000
  24       0.02049     0.00000    -0.00000    -0.00000     0.00000     1.00000
  25       0.00000     0.02440     0.00000     0.00000     0.00000     0.00000
  26       0.06099     0.00000     0.00000     0.00038    -0.00078     0.00065
  27       0.38176     0.00000     0.00038     0.02484    -0.03098     0.02550
  28      -0.08733     0.00000     0.00078     0.03098    -0.03207     0.03425
  29      -0.31332     0.00000    -0.00065    -0.02550     0.03425    -0.01864
  30       0.00000     0.21207     0.00000     0.00000     0.00000     0.00000
  31       0.00110     0.00000     0.00526     0.09520     0.07165     0.10018
  32      -0.16041     0.00000     0.00008     0.00611    -0.01016     0.00008
  33      -0.00325     0.00000     0.06126     0.48673     0.36054    -0.29343
  34       0.11815     0.00000     0.00001     0.00173    -0.00242     0.00199
  35      -0.00287     0.00000     0.00000     0.00105    -0.00162    -0.00199
  36      -0.07056     0.00000     0.00105     0.04432    -0.04274    -0.05240
  37       0.03624     0.00000     0.00162     0.04274    -0.02709    -0.05521
  38      -0.09075     0.00000     0.00199     0.05240    -0.05521    -0.04974
  39       0.00000     0.02013     0.00000     0.00000     0.00000     0.00000
  40       0.00001     0.00000     0.00000     0.00000    -0.00000     0.00001
  41       0.00253     0.00000     0.00000     0.00158    -0.00045     0.00311
  42      -0.00250     0.00000     0.00000     0.00045     0.00039     0.00092
  43      -0.00407     0.00000    -0.00001    -0.00311     0.00092    -0.00575
  44       0.00000     0.00048     0.00000     0.00000     0.00000     0.00000
  45      -0.05196     0.00000     0.00006     0.00515    -0.00667    -0.00554
  46       0.00030     0.00000     0.00001     0.00114     0.00027     0.00210
  47      -0.00001     0.00000     0.00000     0.00012    -0.00008    -0.00034
  48      -0.00307     0.00000     0.00012     0.01305    -0.00524    -0.02165
  49       0.00277     0.00000     0.00008     0.00524     0.00255    -0.00924
  50      -0.00501     0.00000     0.00034     0.02165    -0.00924    -0.03340
  51       0.00000     0.00058     0.00000     0.00000     0.00000     0.00000
  52       0.00000     0.00000     0.00000     0.00000    -0.00000     0.00000
  53       0.00039     0.00000     0.00000     0.00002    -0.00002     0.00006
  54      -0.00019     0.00000     0.00000     0.00002    -0.00001     0.00004
  55      -0.00082     0.00000    -0.00000    -0.00006     0.00004    -0.00014
  56       0.00000     0.00006     0.00000     0.00000     0.00000     0.00000
  57      -0.00099     0.00000     0.00076     0.02519     0.00476    -0.03729
  58       0.00148     0.00000     0.00000     0.00002    -0.00003     0.00005
  59      -0.00038     0.00000     0.00000     0.00083    -0.00039    -0.00153
  60       0.00002     0.00000     0.00000     0.00000    -0.00000     0.00000

           25          26          27          28          29          30  
       ----------- ----------- ----------- ----------- ----------- -----------
   1       0.00000     0.00000     0.03558     0.05494     0.02157     0.00000
   2       0.00000     0.03558     0.35374     0.35362     0.13884     0.00000
   3       0.00000    -0.05494    -0.35362    -0.25587    -0.18083     0.00000
   4       0.00000    -0.02157    -0.13884    -0.18083     0.13368     0.00000
   5       0.02312     0.00000     0.00000     0.00000     0.00000     0.20467
   6       0.00000     0.00000     0.00157     0.00127    -0.00344     0.00000
   7       0.00000     0.00157     0.05578     0.02866    -0.07785     0.00000
   8       0.00000    -0.00127    -0.02866     0.00691     0.04403     0.00000
   9       0.00000     0.00344     0.07785     0.04403    -0.09646     0.00000
  10       0.20467     0.00000     0.00000     0.00000     0.00000     0.02312
  11       0.00000     0.00000     0.00170     0.00390    -0.00066     0.00000
  12       0.00000     0.00170     0.05856     0.08539    -0.01441     0.00000
  13       0.00000    -0.00390    -0.08539    -0.11288     0.02316     0.00000
  14       0.00000     0.00066     0.01441     0.02316     0.02049     0.00000
  15       0.21207     0.00000     0.00000     0.00000     0.00000     0.02440
  16       0.00000     0.00000     0.03729    -0.01014    -0.06099     0.00000
  17       0.00000     0.03729     0.36341    -0.06345    -0.38176     0.00000
  18       0.00000     0.01014     0.06345     0.19756    -0.08733     0.00000
  19       0.00000     0.06099     0.38176    -0.08733    -0.31332     0.00000
  20       0.02440     0.00000     0.00000     0.00000     0.00000     0.21207
  21       0.00000     0.00000     0.00038     0.00078    -0.00065     0.00000
  22       0.00000     0.00038     0.02484     0.03098    -0.02550     0.00000
  23       0.00000    -0.00078    -0.03098    -0.03207     0.03425     0.00000
  24       0.00000     0.00065     0.02550     0.03425    -0.01864     0.00000
  25       1.00000     0.00000     0.00000     0.00000     0.00000     0.00954
  26       0.00000     1.00000     0.24836     0.00000     0.00000     0.00000
  27       0.00000     0.24836     1.00000     0.00000     0.00000     0.00000
  28       0.00000     0.00000     0.00000     1.00000     0.00000     0.00000
  29       0.00000     0.00000     0.00000     0.00000     1.00000     0.00000
  30       0.00954     0.00000     0.00000     0.00000     0.00000     1.00000
  31       0.00000     0.00008     0.00611     0.01016    -0.00008     0.00000
  32       0.00000     0.00526     0.09520    -0.07165    -0.10018     0.00000
  33       0.00000     0.00001     0.00173     0.00242    -0.00199     0.00000
  34       0.00000     0.06126     0.48673    -0.36054     0.29343     0.00000
  35       0.00000     0.00000     0.00000     0.00000    -0.00001     0.00000
  36       0.00000     0.00000     0.00158     0.00045    -0.00311     0.00000
  37       0.00000    -0.00000    -0.00045     0.00039     0.00092     0.00000
  38       0.00000     0.00001     0.00311     0.00092    -0.00575     0.00000
  39       0.01794     0.00000     0.00000     0.00000     0.00000     0.00053
  40       0.00000     0.00000     0.00105     0.00162     0.00199     0.00000
  41       0.00000     0.00105     0.04432     0.04274     0.05240     0.00000
  42       0.00000    -0.00162    -0.04274    -0.02709    -0.05521     0.00000
  43       0.00000    -0.00199    -0.05240    -0.05521    -0.04974     0.00000
  44       0.00053     0.00000     0.00000     0.00000     0.00000     0.01794
  45       0.00000     0.00001     0.00114    -0.00027    -0.00210     0.00000
  46       0.00000     0.00006     0.00515     0.00667     0.00554     0.00000
  47       0.00000     0.00000     0.00000     0.00000    -0.00000     0.00000
  48       0.00000     0.00000     0.00002     0.00002    -0.00006     0.00000
  49       0.00000    -0.00000    -0.00002    -0.00001     0.00004     0.00000
  50       0.00000     0.00000     0.00006     0.00004    -0.00014     0.00000
  51       0.00478     0.00000     0.00000     0.00000     0.00000     0.00001
  52       0.00000     0.00000     0.00012     0.00008     0.00034     0.00000
  53       0.00000     0.00012     0.01305     0.00524     0.02165     0.00000
  54       0.00000    -0.00008    -0.00524     0.00255    -0.00924     0.00000
  55       0.00000    -0.00034    -0.02165    -0.00924    -0.03340     0.00000
  56       0.00001     0.00000     0.00000     0.00000     0.00000     0.00478
  57       0.00000     0.00000     0.00002     0.00003    -0.00005     0.00000
  58       0.00000     0.00076     0.02519    -0.00476     0.03729     0.00000
  59       0.00000     0.00000     0.00000     0.00000    -0.00000     0.00000
  60       0.00000     0.00000     0.00083     0.00039     0.00153     0.00000

           31          32          33          34          35          36  
       ----------- ----------- ----------- ----------- ----------- -----------
   1       0.00509     0.00008     0.00008     0.00508     0.00000     0.00000
   2       0.09301     0.00590     0.00588     0.09284     0.00000     0.00026
   3       0.11685    -0.00738     0.00484    -0.12012    -0.00000    -0.00010
   4      -0.03020    -0.00652    -0.00854     0.00954    -0.00000    -0.00057
   5       0.00000     0.00000     0.00000     0.00000     0.00000     0.00000
   6       0.00008     0.00509     0.00508     0.00008     0.00000     0.02955
   7       0.00590     0.09301     0.09284     0.00588     0.02955     0.31761
   8       0.00738    -0.11685     0.12012    -0.00484    -0.00980    -0.06996
   9       0.00652     0.03020    -0.00954     0.00854    -0.04831    -0.34497
  10       0.00000     0.00000     0.00000     0.00000     0.00000     0.00000
  11       0.06102     0.00001     0.00527     0.00008     0.00000     0.00000
  12       0.48575     0.00175     0.09535     0.00611     0.00000     0.00144
  13       0.43567    -0.00297     0.03534    -0.00963    -0.00000    -0.00139
  14       0.16041    -0.00110    -0.11815     0.00325    -0.00001    -0.00253
  15       0.00000     0.00000     0.00000     0.00000     0.00000     0.00000
  16       0.00001     0.06102     0.00008     0.00527     0.00000     0.00126
  17       0.00175     0.48575     0.00611     0.09535     0.00126     0.04921
  18       0.00297    -0.43567     0.00963    -0.03534     0.00094     0.02306
  19       0.00110    -0.16041    -0.00325     0.11815    -0.00287    -0.07056
  20       0.00000     0.00000     0.00000     0.00000     0.00000     0.00000
  21       0.00526     0.00008     0.06126     0.00001     0.00000     0.00105
  22       0.09520     0.00611     0.48673     0.00173     0.00105     0.04432
  23       0.07165    -0.01016     0.36054    -0.00242    -0.00162    -0.04274
  24       0.10018     0.00008    -0.29343     0.00199    -0.00199    -0.05240
  25       0.00000     0.00000     0.00000     0.00000     0.00000     0.00000
  26       0.00008     0.00526     0.00001     0.06126     0.00000     0.00000
  27       0.00611     0.09520     0.00173     0.48673     0.00000     0.00158
  28       0.01016    -0.07165     0.00242    -0.36054     0.00000     0.00045
  29      -0.00008    -0.10018    -0.00199     0.29343    -0.00001    -0.00311
  30       0.00000     0.00000     0.00000     0.00000     0.00000     0.00000
  31       1.00000     0.00011     0.05049     0.00071     0.00000     0.00015
  32       0.00011     1.00000     0.00071     0.05049     0.00113     0.03262
  33       0.05049     0.00071     1.00000     0.00010     0.00087     0.02741
  34       0.00071     0.05049     0.00010     1.00000     0.00000     0.00017
  35       0.00000     0.00113     0.00087     0.00000     1.00000     0.24836
  36       0.00015     0.03262     0.02741     0.00017     0.24836     1.00000
  37       0.00019    -0.03181     0.03596    -0.00011    -0.00000    -0.00000
  38       0.00024     0.03532     0.01884     0.00034    -0.00000    -0.00000
  39       0.00000     0.00000     0.00000     0.00000     0.00000     0.00000
  40       0.00113     0.00000     0.00000     0.00087     0.00000     0.00000
  41       0.03262     0.00015     0.00017     0.02741     0.00000     0.00000
  42       0.03181    -0.00019     0.00011    -0.03596    -0.00000    -0.00000
  43      -0.03532    -0.00024    -0.00034    -0.01884    -0.00000    -0.00000
  44       0.00000     0.00000     0.00000     0.00000     0.00000     0.00000
  45       0.00001     0.06153     0.00248     0.00024     0.06070     0.48445
  46       0.06153     0.00001     0.00024     0.00248     0.00000     0.00000
  47       0.00000     0.00001     0.00089     0.00000     0.00000     0.04284
  48       0.00004     0.00116     0.02792     0.00000     0.04284     0.39315
  49       0.00003    -0.00144     0.02334    -0.00000    -0.04749    -0.27266
  50       0.00007     0.00160     0.03404     0.00000     0.05283     0.30328
  51       0.00000     0.00000     0.00000     0.00000     0.00000     0.00000
  52       0.00001     0.00000     0.00000     0.00089     0.00000     0.00000
  53       0.00116     0.00004     0.00000     0.02792     0.00000     0.00000
  54       0.00144    -0.00003     0.00000    -0.02334    -0.00000    -0.00000
  55      -0.00160    -0.00007    -0.00000    -0.03404    -0.00000    -0.00000
  56       0.00000     0.00000     0.00000     0.00000     0.00000     0.00000
  57       0.00030     0.00024     0.08944     0.00000     0.00561     0.09966
  58       0.00024     0.00030     0.00000     0.08944     0.00000     0.00000
  59       0.00000     0.00025     0.00264     0.00000     0.00577     0.10177
  60       0.00025     0.00000     0.00000     0.00264     0.00000     0.00000

           37          38          39          40          41          42  
       ----------- ----------- ----------- ----------- ----------- -----------
   1       0.00000     0.00000     0.00000     0.00000     0.02955    -0.00980
   2       0.00010     0.00057     0.00000     0.02955     0.31761    -0.06996
   3       0.00004    -0.00022     0.00000     0.00980     0.06996     0.15824
   4      -0.00022    -0.00117     0.00000     0.04831     0.34497    -0.09697
   5       0.00000     0.00000     0.00008     0.00000     0.00000     0.00000
   6       0.00980     0.04831     0.00000     0.00000     0.00000    -0.00000
   7       0.06996     0.34497     0.00000     0.00000     0.00026    -0.00010
   8       0.15824    -0.09697     0.00000     0.00000     0.00010     0.00004
   9      -0.09697    -0.30023     0.00000     0.00000     0.00057    -0.00022
  10       0.00000     0.00000     0.17791     0.00000     0.00000     0.00000
  11       0.00000     0.00001     0.00000     0.00000     0.00126     0.00094
  12       0.00139     0.00253     0.00000     0.00126     0.04921     0.02306
  13      -0.00089    -0.00250     0.00000    -0.00094    -0.02306     0.00828
  14      -0.00250    -0.00407     0.00000     0.00287     0.07056     0.03624
  15       0.00000     0.00000     0.00048     0.00000     0.00000     0.00000
  16      -0.00094     0.00287     0.00000     0.00000     0.00000    -0.00000
  17      -0.02306     0.07056     0.00000     0.00000     0.00144    -0.00139
  18       0.00828     0.03624     0.00000     0.00000     0.00139    -0.00089
  19       0.03624    -0.09075     0.00000     0.00001     0.00253    -0.00250
  20       0.00000     0.00000     0.02013     0.00000     0.00000     0.00000
  21       0.00162     0.00199     0.00000     0.00000     0.00000     0.00000
  22       0.04274     0.05240     0.00000     0.00000     0.00158     0.00045
  23      -0.02709    -0.05521     0.00000    -0.00000    -0.00045     0.00039
  24      -0.05521    -0.04974     0.00000     0.00001     0.00311     0.00092
  25       0.00000     0.00000     0.01794     0.00000     0.00000     0.00000
  26      -0.00000     0.00001     0.00000     0.00000     0.00105    -0.00162
  27      -0.00045     0.00311     0.00000     0.00105     0.04432    -0.04274
  28       0.00039     0.00092     0.00000     0.00162     0.04274    -0.02709
  29       0.00092    -0.00575     0.00000     0.00199     0.05240    -0.05521
  30       0.00000     0.00000     0.00053     0.00000     0.00000     0.00000
  31       0.00019     0.00024     0.00000     0.00113     0.03262     0.03181
  32      -0.03181     0.03532     0.00000     0.00000     0.00015    -0.00019
  33       0.03596     0.01884     0.00000     0.00000     0.00017     0.00011
  34      -0.00011     0.00034     0.00000     0.00087     0.02741    -0.03596
  35      -0.00000    -0.00000     0.00000     0.00000     0.00000    -0.00000
  36      -0.00000    -0.00000     0.00000     0.00000     0.00000    -0.00000
  37       1.00000     0.00000     0.00000     0.00000     0.00000     0.00000
  38       0.00000     1.00000     0.00000     0.00000     0.00000    -0.00000
  39       0.00000     0.00000     1.00000     0.00000     0.00000     0.00000
  40       0.00000     0.00000     0.00000     1.00000     0.24836     0.00000
  41       0.00000     0.00000     0.00000     0.24836     1.00000     0.00000
  42       0.00000    -0.00000     0.00000     0.00000     0.00000     1.00000
  43      -0.00000    -0.00000     0.00000     0.00000     0.00000     0.00000
  44       0.00000     0.00000     0.00000     0.00000     0.00000     0.00000
  45      -0.45129    -0.10556     0.00000     0.00000     0.00000    -0.00000
  46       0.00000     0.00000     0.00000     0.06070     0.48445     0.45129
  47       0.04749    -0.05283     0.00000     0.00000     0.00000    -0.00000
  48       0.27266    -0.30328     0.00000     0.00000     0.00000    -0.00000
  49      -0.01650     0.28029     0.00000     0.00000     0.00000     0.00000
  50       0.28029    -0.07629     0.00000     0.00000     0.00000    -0.00000
  51       0.00000     0.00000     0.23549     0.00000     0.00000     0.00000
  52       0.00000     0.00000     0.00000     0.00000     0.04284    -0.04749
  53       0.00000     0.00000     0.00000     0.04284     0.39315    -0.27266
  54       0.00000    -0.00000     0.00000     0.04749     0.27266    -0.01650
  55      -0.00000    -0.00000     0.00000    -0.05283    -0.30328     0.28029
  56       0.00000     0.00000     0.00000     0.00000     0.00000     0.00000
  57       0.11842    -0.04901     0.00000     0.00000     0.00000     0.00000
  58      -0.00000     0.00000     0.00000     0.00561     0.09966    -0.11842
  59       0.03569    -0.12555     0.00000     0.00000     0.00000    -0.00000
  60       0.00000     0.00000     0.00000     0.00577     0.10177    -0.03569

           43          44          45          46          47          48  
       ----------- ----------- ----------- ----------- ----------- -----------
   1      -0.04831     0.00000     0.00000     0.00487     0.00000     0.00000
   2      -0.34497     0.00000     0.00008     0.09007     0.00000     0.00001
   3      -0.09697     0.00000    -0.00007     0.07314     0.00000     0.00000
   4      -0.30023     0.00000    -0.00016     0.09177    -0.00000    -0.00002
   5       0.00000     0.17791     0.00000     0.00000     0.00000     0.00000
   6      -0.00000     0.00000     0.00487     0.00000     0.00000     0.00116
   7      -0.00057     0.00000     0.09007     0.00008     0.00116     0.04688
   8      -0.00022     0.00000    -0.07314     0.00007     0.00066     0.01682
   9      -0.00117     0.00000    -0.09177     0.00016    -0.00272    -0.06907
  10       0.00000     0.00008     0.00000     0.00000     0.00000     0.00000
  11      -0.00287     0.00000     0.00000     0.00132     0.00000     0.00000
  12      -0.07056     0.00000     0.00019     0.03624     0.00000     0.00018
  13       0.03624     0.00000    -0.00024     0.00570    -0.00000    -0.00009
  14      -0.09075     0.00000    -0.00030     0.05196    -0.00000    -0.00039
  15       0.00000     0.02013     0.00000     0.00000     0.00000     0.00000
  16      -0.00001     0.00000     0.00132     0.00000     0.00000     0.00000
  17      -0.00253     0.00000     0.03624     0.00019     0.00000     0.00174
  18      -0.00250     0.00000    -0.00570     0.00024     0.00000     0.00152
  19      -0.00407     0.00000    -0.05196     0.00030    -0.00001    -0.00307
  20       0.00000     0.00048     0.00000     0.00000     0.00000     0.00000
  21      -0.00001     0.00000     0.00006     0.00001     0.00000     0.00012
  22      -0.00311     0.00000     0.00515     0.00114     0.00012     0.01305
  23       0.00092     0.00000    -0.00667     0.00027    -0.00008    -0.00524
  24      -0.00575     0.00000    -0.00554     0.00210    -0.00034    -0.02165
  25       0.00000     0.00053     0.00000     0.00000     0.00000     0.00000
  26      -0.00199     0.00000     0.00001     0.00006     0.00000     0.00000
  27      -0.05240     0.00000     0.00114     0.00515     0.00000     0.00002
  28      -0.05521     0.00000    -0.00027     0.00667     0.00000     0.00002
  29      -0.04974     0.00000    -0.00210     0.00554    -0.00000    -0.00006
  30       0.00000     0.01794     0.00000     0.00000     0.00000     0.00000
  31      -0.03532     0.00000     0.00001     0.06153     0.00000     0.00004
  32      -0.00024     0.00000     0.06153     0.00001     0.00001     0.00116
  33      -0.00034     0.00000     0.00248     0.00024     0.00089     0.02792
  34      -0.01884     0.00000     0.00024     0.00248     0.00000     0.00000
  35      -0.00000     0.00000     0.06070     0.00000     0.00000     0.04284
  36      -0.00000     0.00000     0.48445     0.00000     0.04284     0.39315
  37      -0.00000     0.00000    -0.45129     0.00000     0.04749     0.27266
  38      -0.00000     0.00000    -0.10556     0.00000    -0.05283    -0.30328
  39       0.00000     0.00000     0.00000     0.00000     0.00000     0.00000
  40       0.00000     0.00000     0.00000     0.06070     0.00000     0.00000
  41       0.00000     0.00000     0.00000     0.48445     0.00000     0.00000
  42       0.00000     0.00000    -0.00000     0.45129    -0.00000    -0.00000
  43       1.00000     0.00000    -0.00000     0.10556    -0.00000    -0.00000
  44       0.00000     1.00000     0.00000     0.00000     0.00000     0.00000
  45      -0.00000     0.00000     1.00000     0.00000     0.00611     0.10604
  46       0.10556     0.00000     0.00000     1.00000     0.00000     0.00000
  47      -0.00000     0.00000     0.00611     0.00000     1.00000     0.24836
  48      -0.00000     0.00000     0.10604     0.00000     0.24836     1.00000
  49      -0.00000     0.00000    -0.12645     0.00000    -0.00000     0.00000
  50      -0.00000     0.00000     0.04805     0.00000    -0.00000    -0.00000
  51       0.00000     0.00000     0.00000     0.00000     0.00000     0.00000
  52       0.05283     0.00000     0.00000     0.00611     0.00000     0.00000
  53       0.30328     0.00000     0.00000     0.10604     0.00000     0.00000
  54       0.28029     0.00000    -0.00000     0.12645     0.00000     0.00000
  55      -0.07629     0.00000    -0.00000    -0.04805     0.00000    -0.00000
  56       0.00000     0.23549     0.00000     0.00000     0.00000     0.00000
  57      -0.00000     0.00000     0.01462     0.00000     0.06141     0.48732
  58       0.04901     0.00000     0.00000     0.01462     0.00000     0.00000
  59      -0.00000     0.00000     0.05493     0.00000     0.06131     0.48692
  60       0.12555     0.00000     0.00000     0.05493     0.00000     0.00000

           49          50          51          52          53          54  
       ----------- ----------- ----------- ----------- ----------- -----------
   1      -0.00000     0.00000     0.00000     0.00000     0.00116     0.00066
   2      -0.00000     0.00002     0.00000     0.00116     0.04688     0.01682
   3       0.00000     0.00000     0.00000    -0.00066    -0.01682     0.01248
   4       0.00000    -0.00005     0.00000     0.00272     0.06907     0.02713
   5       0.00000     0.00000     0.00000     0.00000     0.00000     0.00000
   6      -0.00066     0.00272     0.00000     0.00000     0.00000     0.00000
   7      -0.01682     0.06907     0.00000     0.00000     0.00001     0.00000
   8       0.01248     0.02713     0.00000    -0.00000    -0.00000     0.00000
   9       0.02713    -0.09229     0.00000     0.00000     0.00002     0.00000
  10       0.00000     0.00000     0.01908     0.00000     0.00000     0.00000
  11       0.00000     0.00000     0.00000     0.00000     0.00000     0.00000
  12       0.00009     0.00039     0.00000     0.00000     0.00174     0.00152
  13       0.00002    -0.00019     0.00000    -0.00000    -0.00152    -0.00079
  14      -0.00019    -0.00082     0.00000     0.00001     0.00307     0.00277
  15       0.00000     0.00000     0.00006     0.00000     0.00000     0.00000
  16      -0.00000     0.00001     0.00000     0.00000     0.00000    -0.00000
  17      -0.00152     0.00307     0.00000     0.00000     0.00018    -0.00009
  18      -0.00079     0.00277     0.00000     0.00000     0.00009     0.00002
  19       0.00277    -0.00501     0.00000     0.00000     0.00039    -0.00019
  20       0.00000     0.00000     0.00058     0.00000     0.00000     0.00000
  21       0.00008     0.00034     0.00000     0.00000     0.00000     0.00000
  22       0.00524     0.02165     0.00000     0.00000     0.00002     0.00002
  23       0.00255    -0.00924     0.00000    -0.00000    -0.00002    -0.00001
  24      -0.00924    -0.03340     0.00000     0.00000     0.00006     0.00004
  25       0.00000     0.00000     0.00478     0.00000     0.00000     0.00000
  26      -0.00000     0.00000     0.00000     0.00000     0.00012    -0.00008
  27      -0.00002     0.00006     0.00000     0.00012     0.01305    -0.00524
  28      -0.00001     0.00004     0.00000     0.00008     0.00524     0.00255
  29       0.00004    -0.00014     0.00000     0.00034     0.02165    -0.00924
  30       0.00000     0.00000     0.00001     0.00000     0.00000     0.00000
  31       0.00003     0.00007     0.00000     0.00001     0.00116     0.00144
  32      -0.00144     0.00160     0.00000     0.00000     0.00004    -0.00003
  33       0.02334     0.03404     0.00000     0.00000     0.00000     0.00000
  34      -0.00000     0.00000     0.00000     0.00089     0.02792    -0.02334
  35      -0.04749     0.05283     0.00000     0.00000     0.00000    -0.00000
  36      -0.27266     0.30328     0.00000     0.00000     0.00000    -0.00000
  37      -0.01650     0.28029     0.00000     0.00000     0.00000     0.00000
  38       0.28029    -0.07629     0.00000     0.00000     0.00000    -0.00000
  39       0.00000     0.00000     0.23549     0.00000     0.00000     0.00000
  40       0.00000     0.00000     0.00000     0.00000     0.04284     0.04749
  41       0.00000     0.00000     0.00000     0.04284     0.39315     0.27266
  42       0.00000    -0.00000     0.00000    -0.04749    -0.27266    -0.01650
  43      -0.00000    -0.00000     0.00000     0.05283     0.30328     0.28029
  44       0.00000     0.00000     0.00000     0.00000     0.00000     0.00000
  45      -0.12645     0.04805     0.00000     0.00000     0.00000    -0.00000
  46       0.00000     0.00000     0.00000     0.00611     0.10604     0.12645
  47      -0.00000    -0.00000     0.00000     0.00000     0.00000     0.00000
  48       0.00000    -0.00000     0.00000     0.00000     0.00000     0.00000
  49       1.00000    -0.00000     0.00000     0.00000    -0.00000     0.00000
  50      -0.00000     1.00000     0.00000     0.00000     0.00000     0.00000
  51       0.00000     0.00000     1.00000     0.00000     0.00000     0.00000
  52       0.00000     0.00000     0.00000     1.00000     0.24836     0.00000
  53      -0.00000     0.00000     0.00000     0.24836     1.00000    -0.00000
  54       0.00000     0.00000     0.00000     0.00000    -0.00000     1.00000
  55       0.00000    -0.00000     0.00000     0.00000     0.00000    -0.00000
  56       0.00000     0.00000     0.00000     0.00000     0.00000     0.00000
  57       0.45887     0.07655     0.00000     0.00000     0.00000     0.00000
  58      -0.00000     0.00000     0.00000     0.06141     0.48732    -0.45887
  59      -0.13400    -0.44525     0.00000     0.00000     0.00000     0.00000
  60      -0.00000     0.00000     0.00000     0.06131     0.48692     0.13400

           55          56          57          58          59          60  
       ----------- ----------- ----------- ----------- ----------- -----------
   1      -0.00272     0.00000     0.00000     0.00074     0.00000     0.00006
   2      -0.06907     0.00000     0.00002     0.02468     0.00000     0.00481
   3       0.02713     0.00000     0.00001    -0.02186    -0.00000    -0.00066
   4      -0.09229     0.00000    -0.00005     0.02972    -0.00000     0.00811
   5       0.00000     0.01908     0.00000     0.00000     0.00000     0.00000
   6      -0.00000     0.00000     0.00074     0.00000     0.00006     0.00000
   7      -0.00002     0.00000     0.02468     0.00002     0.00481     0.00000
   8       0.00000     0.00000     0.02186    -0.00001     0.00066     0.00000
   9      -0.00005     0.00000    -0.02972     0.00005    -0.00811     0.00000
  10       0.00000     0.00000     0.00000     0.00000     0.00000     0.00000
  11      -0.00001     0.00000     0.00000     0.00000     0.00000     0.00000
  12      -0.00307     0.00000     0.00078     0.00068     0.00001     0.00019
  13       0.00277     0.00000     0.00005    -0.00085    -0.00000    -0.00012
  14      -0.00501     0.00000    -0.00148     0.00099    -0.00002     0.00038
  15       0.00000     0.00058     0.00000     0.00000     0.00000     0.00000
  16      -0.00000     0.00000     0.00000     0.00000     0.00000     0.00000
  17      -0.00039     0.00000     0.00068     0.00078     0.00019     0.00001
  18      -0.00019     0.00000     0.00085    -0.00005     0.00012     0.00000
  19      -0.00082     0.00000    -0.00099     0.00148    -0.00038     0.00002
  20       0.00000     0.00006     0.00000     0.00000     0.00000     0.00000
  21      -0.00000     0.00000     0.00076     0.00000     0.00000     0.00000
  22      -0.00006     0.00000     0.02519     0.00002     0.00083     0.00000
  23       0.00004     0.00000     0.00476    -0.00003    -0.00039    -0.00000
  24      -0.00014     0.00000    -0.03729     0.00005    -0.00153     0.00000
  25       0.00000     0.00001     0.00000     0.00000     0.00000     0.00000
  26      -0.00034     0.00000     0.00000     0.00076     0.00000     0.00000
  27      -0.02165     0.00000     0.00002     0.02519     0.00000     0.00083
  28      -0.00924     0.00000     0.00003    -0.00476     0.00000     0.00039
  29      -0.03340     0.00000    -0.00005     0.03729    -0.00000     0.00153
  30       0.00000     0.00478     0.00000     0.00000     0.00000     0.00000
  31      -0.00160     0.00000     0.00030     0.00024     0.00000     0.00025
  32      -0.00007     0.00000     0.00024     0.00030     0.00025     0.00000
  33      -0.00000     0.00000     0.08944     0.00000     0.00264     0.00000
  34      -0.03404     0.00000     0.00000     0.08944     0.00000     0.00264
  35      -0.00000     0.00000     0.00561     0.00000     0.00577     0.00000
  36      -0.00000     0.00000     0.09966     0.00000     0.10177     0.00000
  37      -0.00000     0.00000     0.11842    -0.00000     0.03569     0.00000
  38      -0.00000     0.00000    -0.04901     0.00000    -0.12555     0.00000
  39       0.00000     0.00000     0.00000     0.00000     0.00000     0.00000
  40      -0.05283     0.00000     0.00000     0.00561     0.00000     0.00577
  41      -0.30328     0.00000     0.00000     0.09966     0.00000     0.10177
  42       0.28029     0.00000     0.00000    -0.11842    -0.00000    -0.03569
  43      -0.07629     0.00000    -0.00000     0.04901    -0.00000     0.12555
  44       0.00000     0.23549     0.00000     0.00000     0.00000     0.00000
  45      -0.00000     0.00000     0.01462     0.00000     0.05493     0.00000
  46      -0.04805     0.00000     0.00000     0.01462     0.00000     0.05493
  47       0.00000     0.00000     0.06141     0.00000     0.06131     0.00000
  48      -0.00000     0.00000     0.48732     0.00000     0.48692     0.00000
  49       0.00000     0.00000     0.45887    -0.00000    -0.13400    -0.00000
  50      -0.00000     0.00000     0.07655     0.00000    -0.44525     0.00000
  51       0.00000     0.00000     0.00000     0.00000     0.00000     0.00000
  52       0.00000     0.00000     0.00000     0.06141     0.00000     0.06131
  53       0.00000     0.00000     0.00000     0.48732     0.00000     0.48692
  54      -0.00000     0.00000     0.00000    -0.45887     0.00000     0.13400
  55       1.00000     0.00000    -0.00000    -0.07655    -0.00000     0.44525
  56       0.00000     1.00000     0.00000     0.00000     0.00000     0.00000
  57      -0.00000     0.00000     1.00000     0.00000     0.14897     0.00000
  58      -0.07655     0.00000     0.00000     1.00000     0.00000     0.14897
  59      -0.00000     0.00000     0.14897     0.00000     1.00000     0.00000
  60       0.44525     0.00000     0.00000     0.14897     0.00000     1.00000

      Superposition of Atomic Density Guess
      -------------------------------------

 Sum of atomic energies:        -376.44825176

 global array: Temp HCore[1:60,1:60],  handle: -988 

            1           2           3           4           5           6  
       ----------- ----------- ----------- ----------- ----------- -----------
   1       1.00000     0.24836    -0.00000    -0.00000     0.00000     0.00000
   2       0.24836     1.00000     0.00000    -0.00000     0.00000     0.00030
   3      -0.00000     0.00000     1.00000     0.00000     0.00000    -0.00014
   4      -0.00000    -0.00000     0.00000     1.00000     0.00000    -0.00081
   5       0.00000     0.00000     0.00000     0.00000     1.00000     0.00000
   6       0.00000     0.00030    -0.00014    -0.00081     0.00000     1.00000
   7       0.00030     0.02187    -0.00590    -0.03524     0.00000     0.24836
   8       0.00014     0.00590     0.00661    -0.01021     0.00000     0.00000
   9       0.00081     0.03524    -0.01021    -0.05268     0.00000     0.00000
  10       0.00000     0.00000     0.00000     0.00000     0.00832     0.00000
  11       0.00000     0.03557     0.04482    -0.03839     0.00000     0.00000
  12       0.03557     0.35371     0.28849    -0.24714     0.00000     0.00159
  13      -0.04482    -0.28849    -0.10190     0.26261     0.00000    -0.00235
  14       0.03839     0.24714     0.26261    -0.02032     0.00000    -0.00288
  15       0.00000     0.00000     0.00000     0.00000     0.20465     0.00000
  16       0.00000     0.00159    -0.00235    -0.00288     0.00000     0.00000
  17       0.00159     0.05619    -0.05280    -0.06468     0.00000     0.03557
  18       0.00235     0.05280    -0.03131    -0.06691     0.00000     0.04482
  19       0.00288     0.06468    -0.06691    -0.05866     0.00000    -0.03839
  20       0.00000     0.00000     0.00000     0.00000     0.02331     0.00000
  21       0.00000     0.00157     0.00127    -0.00344     0.00000     0.00000
  22       0.00157     0.05578     0.02866    -0.07785     0.00000     0.03558
  23      -0.00127    -0.02866     0.00691     0.04403     0.00000    -0.05494
  24       0.00344     0.07785     0.04403    -0.09646     0.00000    -0.02157
  25       0.00000     0.00000     0.00000     0.00000     0.02312     0.00000
  26       0.00000     0.03558    -0.05494    -0.02157     0.00000     0.00000
  27       0.03558     0.35374    -0.35362    -0.13884     0.00000     0.00157
  28       0.05494     0.35362    -0.25587    -0.18083     0.00000     0.00127
  29       0.02157     0.13884    -0.18083     0.13368     0.00000    -0.00344
  30       0.00000     0.00000     0.00000     0.00000     0.20467     0.00000
  31       0.00509     0.09301     0.11685    -0.03020     0.00000     0.00008
  32       0.00008     0.00590    -0.00738    -0.00652     0.00000     0.00509
  33       0.00008     0.00588     0.00484    -0.00854     0.00000     0.00508
  34       0.00508     0.09284    -0.12012     0.00954     0.00000     0.00008
  35       0.00000     0.00000    -0.00000    -0.00000     0.00000     0.00000
  36       0.00000     0.00026    -0.00010    -0.00057     0.00000     0.02955
  37       0.00000     0.00010     0.00004    -0.00022     0.00000     0.00980
  38       0.00000     0.00057    -0.00022    -0.00117     0.00000     0.04831
  39       0.00000     0.00000     0.00000     0.00000     0.00008     0.00000
  40       0.00000     0.02955     0.00980     0.04831     0.00000     0.00000
  41       0.02955     0.31761     0.06996     0.34497     0.00000     0.00000
  42      -0.00980    -0.06996     0.15824    -0.09697     0.00000    -0.00000
  43      -0.04831    -0.34497    -0.09697    -0.30023     0.00000    -0.00000
  44       0.00000     0.00000     0.00000     0.00000     0.17791     0.00000
  45       0.00000     0.00008    -0.00007    -0.00016     0.00000     0.00487
  46       0.00487     0.09007     0.07314     0.09177     0.00000     0.00000
  47       0.00000     0.00000     0.00000    -0.00000     0.00000     0.00000
  48       0.00000     0.00001     0.00000    -0.00002     0.00000     0.00116
  49      -0.00000    -0.00000     0.00000     0.00000     0.00000    -0.00066
  50       0.00000     0.00002     0.00000    -0.00005     0.00000     0.00272
  51       0.00000     0.00000     0.00000     0.00000     0.00000     0.00000
  52       0.00000     0.00116    -0.00066     0.00272     0.00000     0.00000
  53       0.00116     0.04688    -0.01682     0.06907     0.00000     0.00000
  54       0.00066     0.01682     0.01248     0.02713     0.00000     0.00000
  55      -0.00272    -0.06907     0.02713    -0.09229     0.00000    -0.00000
  56       0.00000     0.00000     0.00000     0.00000     0.01908     0.00000
  57       0.00000     0.00002     0.00001    -0.00005     0.00000     0.00074
  58       0.00074     0.02468    -0.02186     0.02972     0.00000     0.00000
  59       0.00000     0.00000    -0.00000    -0.00000     0.00000     0.00006
  60       0.00006     0.00481    -0.00066     0.00811     0.00000     0.00000

            7           8           9          10          11          12  
       ----------- ----------- ----------- ----------- ----------- -----------
   1       0.00030     0.00014     0.00081     0.00000     0.00000     0.03557
   2       0.02187     0.00590     0.03524     0.00000     0.03557     0.35371
   3      -0.00590     0.00661    -0.01021     0.00000     0.04482     0.28849
   4      -0.03524    -0.01021    -0.05268     0.00000    -0.03839    -0.24714
   5       0.00000     0.00000     0.00000     0.00832     0.00000     0.00000
   6       0.24836     0.00000     0.00000     0.00000     0.00000     0.00159
   7       1.00000    -0.00000     0.00000     0.00000     0.00159     0.05619
   8      -0.00000     1.00000     0.00000     0.00000     0.00235     0.05280
   9       0.00000     0.00000     1.00000     0.00000     0.00288     0.06468
  10       0.00000     0.00000     0.00000     1.00000     0.00000     0.00000
  11       0.00159     0.00235     0.00288     0.00000     1.00000     0.24836
  12       0.05619     0.05280     0.06468     0.00000     0.24836     1.00000
  13      -0.05280    -0.03131    -0.06691     0.00000     0.00000     0.00000
  14      -0.06468    -0.06691    -0.05866     0.00000    -0.00000    -0.00000
  15       0.00000     0.00000     0.00000     0.02331     0.00000     0.00000
  16       0.03557    -0.04482     0.03839     0.00000     0.00000     0.00039
  17       0.35371    -0.28849     0.24714     0.00000     0.00039     0.02519
  18       0.28849    -0.10190     0.26261     0.00000     0.00097     0.03810
  19      -0.24714     0.26261    -0.02032     0.00000     0.00036     0.01415
  20       0.00000     0.00000     0.00000     0.20465     0.00000     0.00000
  21       0.03558     0.05494     0.02157     0.00000     0.00000     0.03729
[...]

   Component  Electronic+nuclear     Point charges             Total
  --------------------------------------------------------------------------
      XX            3.3038851887          0.0000000000          3.3038851887
      YY            2.7524937236          0.0000000000          2.7524937236
      ZZ           -6.0563789123          0.0000000000         -6.0563789123
      XY            0.0997831429          0.0000000000          0.0997831429
      XZ           -0.0000000000          0.0000000000         -0.0000000000
      YZ            0.0000000000          0.0000000000          0.0000000000

   Quadrupole moments in buckingham(s)

   Component  Electronic+nuclear     Point charges             Total
  --------------------------------------------------------------------------
      XX            4.4434315330          0.0000000000          4.4434315330
      YY            3.7018590864          0.0000000000          3.7018590864
      ZZ           -8.1452906193          0.0000000000         -8.1452906193
      XY            0.1341994465          0.0000000000          0.1341994465
      XZ           -0.0000000000          0.0000000000         -0.0000000000
      YZ            0.0000000000          0.0000000000          0.0000000000

 1 a.u. = 1.344911 Buckinghams = 1.344911 10**(-26) esu*cm**2 

          ---------------
          Octupole Moment
          ---------------

 Center of charge (in au) is the expansion point
         X =       0.0000000 Y =       0.0000000 Z =       0.0000000

   Third moments in atomic units

   Component  Electronic+nuclear     Point charges             Total
  --------------------------------------------------------------------------
      XXX          -0.0000000000          0.0000000000         -0.0000000000
      YYY          -0.0000000000          0.0000000000         -0.0000000000
      ZZZ           0.0000000000          0.0000000000          0.0000000000
      XXY           0.0000000000          0.0000000000          0.0000000000
      XXZ           0.0000000000          0.0000000000          0.0000000000
      YYX           0.0000000000          0.0000000000          0.0000000000
      YYZ          -0.0000000000          0.0000000000         -0.0000000000
      ZZX           0.0000000000          0.0000000000          0.0000000000
      ZZY           0.0000000000          0.0000000000          0.0000000000
      XYZ           0.0000000000          0.0000000000          0.0000000000

   Third moments in 10**(-34) esu*cm**3

   Component  Electronic+nuclear     Point charges             Total
  --------------------------------------------------------------------------
      XXX          -0.0000000000          0.0000000000         -0.0000000000
      YYY          -0.0000000000          0.0000000000         -0.0000000000
      ZZZ           0.0000000000          0.0000000000          0.0000000000
      XXY           0.0000000000          0.0000000000          0.0000000000
      XXZ           0.0000000000          0.0000000000          0.0000000000
      YYX           0.0000000000          0.0000000000          0.0000000000
      YYZ          -0.0000000000          0.0000000000         -0.0000000000
      ZZX           0.0000000000          0.0000000000          0.0000000000
      ZZY           0.0000000000          0.0000000000          0.0000000000
      XYZ           0.0000000000          0.0000000000          0.0000000000

   Octupole moments in atomic units

   Component  Electronic+nuclear     Point charges             Total
  --------------------------------------------------------------------------
      XXX          -0.0000000000          0.0000000000         -0.0000000000
      YYY          -0.0000000000          0.0000000000         -0.0000000000
      ZZZ           0.0000000000          0.0000000000          0.0000000000
      XXY           0.0000000000          0.0000000000          0.0000000000
      XXZ           0.0000000000          0.0000000000          0.0000000000
      YYX           0.0000000000          0.0000000000          0.0000000000
      YYZ          -0.0000000000          0.0000000000         -0.0000000000
      ZZX           0.0000000000          0.0000000000          0.0000000000
      ZZY           0.0000000000          0.0000000000          0.0000000000
      XYZ           0.0000000000          0.0000000000          0.0000000000

   Octupole moments in 10**(-34) esu*cm**3

   Component  Electronic+nuclear     Point charges             Total
  --------------------------------------------------------------------------
      XXX          -0.0000000000          0.0000000000         -0.0000000000
      YYY          -0.0000000000          0.0000000000         -0.0000000000
      ZZZ           0.0000000000          0.0000000000          0.0000000000
      XXY           0.0000000000          0.0000000000          0.0000000000
      XXZ           0.0000000000          0.0000000000          0.0000000000
      YYX           0.0000000000          0.0000000000          0.0000000000
      YYZ          -0.0000000000          0.0000000000         -0.0000000000
      ZZX           0.0000000000          0.0000000000          0.0000000000
      ZZY           0.0000000000          0.0000000000          0.0000000000
      XYZ           0.0000000000          0.0000000000          0.0000000000

 1 a.u. = 0.711688 10**(-34) esu*cm**3 


          ----------------------------
          Mulliken population analysis
          ----------------------------

 Total      S,P,D,... shell population
 --------------------------------
    Atom          S        P
 --------------------------------------------------------------------------------------
     1 C      3.13683   2.86758
     2 C      3.13683   2.86758
     3 C      3.15099   2.92571
     4 C      3.15099   2.92571
     5 C      3.14877   2.92836
     6 C      3.14877   2.92836
     7 H      0.92201   0.00000
     8 H      0.92201   0.00000
     9 H      0.92068   0.00000
    10 H      0.92068   0.00000
    11 C      3.15391   2.92242
    12 C      3.15391   2.92242
    13 H      0.92331   0.00000
    14 H      0.92331   0.00000
    15 C      3.16903   2.98580
    16 C      3.16903   2.98580
    17 H      0.92389   0.00000
    18 H      0.92389   0.00000
    19 H      0.92070   0.00000
    20 H      0.92070   0.00000

          ----- Total      gross population on atoms ----

              1  C    6.0     6.00441
              2  C    6.0     6.00441
              3  C    6.0     6.07670
              4  C    6.0     6.07670
              5  C    6.0     6.07713
              6  C    6.0     6.07713
              7  H    1.0     0.92201
              8  H    1.0     0.92201
              9  H    1.0     0.92068
             10  H    1.0     0.92068
             11  C    6.0     6.07633
             12  C    6.0     6.07633
             13  H    1.0     0.92331
             14  H    1.0     0.92331
             15  C    6.0     6.15483
             16  C    6.0     6.15483
             17  H    1.0     0.92389
             18  H    1.0     0.92389
             19  H    1.0     0.92070
             20  H    1.0     0.92070

          ----- Bond indices -----
  1- 1   0.00000  1- 2   0.09858  1- 3   1.36307  1- 4   0.00313  1- 5   0.00305  1- 6   1.36519  1- 7   0.00447  1- 8   0.00733
  2- 1   0.09858  2- 2   0.00000  2- 3   0.00313  2- 4   1.36307  2- 5   1.36519  2- 6   0.00305  2- 7   0.00733  2- 8   0.00447
  3- 1   1.36307  3- 2   0.00313  3- 3   0.00000  3- 4   0.09865  3- 5   1.46517  3- 6   0.00361  3- 7   0.96133  3- 8   0.00021
  4- 1   0.00313  4- 2   1.36307  4- 3   0.09865  4- 4   0.00000  4- 5   0.00361  4- 6   1.46517  4- 7   0.00021  4- 8   0.96133
  5- 1   0.00305  5- 2   1.36519  5- 3   1.46517  5- 4   0.00361  5- 5   0.00000  5- 6   0.10218  5- 7   0.00381  5- 8   0.00699
  6- 1   1.36519  6- 2   0.00305  6- 3   0.00361  6- 4   1.46517  6- 5   0.10218  6- 6   0.00000  6- 7   0.00699  6- 8   0.00381
  7- 1   0.00447  7- 2   0.00733  7- 3   0.96133  7- 4   0.00021  7- 5   0.00381  7- 6   0.00699  7- 7   0.00000  7- 8   0.00007
  8- 1   0.00733  8- 2   0.00447  8- 3   0.00021  8- 4   0.96133  8- 5   0.00699  8- 6   0.00381  8- 7   0.00007  8- 8   0.00000
  9- 1   0.00729  9- 2   0.00424  9- 3   0.00373  9- 4   0.00702  9- 5   0.95945  9- 6   0.00019  9- 7   0.00292  9- 8   0.00118
 10- 1   0.00424 10- 2   0.00729 10- 3   0.00702 10- 4   0.00373 10- 5   0.00019 10- 6   0.95945 10- 7   0.00118 10- 8   0.00292
 11- 1   0.00023 11- 2   1.06640 11- 3   0.00888 11- 4   0.00560 11- 5   0.00473 11- 6   0.00771 11- 7   0.00097 11- 8   0.00271
 12- 1   1.06640 12- 2   0.00023 12- 3   0.00560 12- 4   0.00888 12- 5   0.00771 12- 6   0.00473 12- 7   0.00271 12- 8   0.00097
 13- 1   0.00004 13- 2   0.00563 13- 3   0.00073 13- 4   0.00197 13- 5   0.00605 13- 6   0.00007 13- 7   0.00029 13- 8   0.00141
 14- 1   0.00563 14- 2   0.00004 14- 3   0.00197 14- 4   0.00073 14- 5   0.00007 14- 6   0.00605 14- 7   0.00141 14- 8   0.00029
 15- 1   0.02591 15- 2   0.00353 15- 3   0.00033 15- 4   0.04473 15- 5   0.04010 15- 6   0.00077 15- 7   0.00002 15- 8   0.00009
 16- 1   0.00353 16- 2   0.02591 16- 3   0.04473 16- 4   0.00033 16- 5   0.00077 16- 6   0.04010 16- 7   0.00009 16- 8   0.00002
 17- 1   0.00001 17- 2   0.00446 17- 3   0.00011 17- 4   0.00015 17- 5   0.00034 17- 6   0.00002 17- 7   0.00002 17- 8   0.00002
 18- 1   0.00446 18- 2   0.00001 18- 3   0.00015 18- 4   0.00011 18- 5   0.00002 18- 6   0.00034 18- 7   0.00002 18- 8   0.00002
 19- 1   0.00003 19- 2   0.01046 19- 3   0.00000 19- 4   0.00080 19- 5   0.00042 19- 6   0.00023 19- 7   0.00002 19- 8   0.00006
 20- 1   0.01046 20- 2   0.00003 20- 3   0.00080 20- 4   0.00000 20- 5   0.00023 20- 6   0.00042 20- 7   0.00006 20- 8   0.00002
  1- 9   0.00729  1-10   0.00424  1-11   0.00023  1-12   1.06640  1-13   0.00004  1-14   0.00563  1-15   0.02591  1-16   0.00353
  2- 9   0.00424  2-10   0.00729  2-11   1.06640  2-12   0.00023  2-13   0.00563  2-14   0.00004  2-15   0.00353  2-16   0.02591
  3- 9   0.00373  3-10   0.00702  3-11   0.00888  3-12   0.00560  3-13   0.00073  3-14   0.00197  3-15   0.00033  3-16   0.04473
  4- 9   0.00702  4-10   0.00373  4-11   0.00560  4-12   0.00888  4-13   0.00197  4-14   0.00073  4-15   0.04473  4-16   0.00033
  5- 9   0.95945  5-10   0.00019  5-11   0.00473  5-12   0.00771  5-13   0.00605  5-14   0.00007  5-15   0.04010  5-16   0.00077
  6- 9   0.00019  6-10   0.95945  6-11   0.00771  6-12   0.00473  6-13   0.00007  6-14   0.00605  6-15   0.00077  6-16   0.04010
  7- 9   0.00292  7-10   0.00118  7-11   0.00097  7-12   0.00271  7-13   0.00029  7-14   0.00141  7-15   0.00002  7-16   0.00009
  8- 9   0.00118  8-10   0.00292  8-11   0.00271  8-12   0.00097  8-13   0.00141  8-14   0.00029  8-15   0.00009  8-16   0.00002
  9- 9   0.00000  9-10   0.00008  9-11   0.00301  9-12   0.00095  9-13   0.00010  9-14   0.00004  9-15   0.00040  9-16   0.00016
 10- 9   0.00008 10-10   0.00000 10-11   0.00095 10-12   0.00301 10-13   0.00004 10-14   0.00010 10-15   0.00016 10-16   0.00040
 11- 9   0.00301 11-10   0.00095 11-11   0.00000 11-12   0.00044 11-13   0.95915 11-14   0.00000 11-15   1.90133 11-16   0.00003
 12- 9   0.00095 12-10   0.00301 12-11   0.00044 12-12   0.00000 12-13   0.00000 12-14   0.95915 12-15   0.00003 12-16   1.90133
 13- 9   0.00010 13-10   0.00004 13-11   0.95915 13-12   0.00000 13-13   0.00000 13-14   0.00000 13-15   0.00281 13-16   0.00000
 14- 9   0.00004 14-10   0.00010 14-11   0.00000 14-12   0.95915 14-13   0.00000 14-14   0.00000 14-15   0.00000 14-16   0.00281
 15- 9   0.00040 15-10   0.00016 15-11   1.90133 15-12   0.00003 15-13   0.00281 15-14   0.00000 15-15   0.00000 15-16   0.00895
 16- 9   0.00016 16-10   0.00040 16-11   0.00003 16-12   1.90133 16-13   0.00000 16-14   0.00281 16-15   0.00895 16-16   0.00000
 17- 9   0.00273 17-10   0.00002 17-11   0.00313 17-12   0.00000 17-13   0.01161 17-14   0.00000 17-15   0.96639 17-16   0.00000
 18- 9   0.00002 18-10   0.00273 18-11   0.00000 18-12   0.00313 18-13   0.00000 18-14   0.01161 18-15   0.00000 18-16   0.96639
 19- 9   0.00012 19-10   0.00007 19-11   0.00283 19-12   0.00000 19-13   0.00423 19-14   0.00000 19-15   0.96924 19-16   0.00000
 20- 9   0.00007 20-10   0.00012 20-11   0.00000 20-12   0.00283 20-13   0.00000 20-14   0.00423 20-15   0.00000 20-16   0.96924
  1-17   0.00001  1-18   0.00446  1-19   0.00003  1-20   0.01046
  2-17   0.00446  2-18   0.00001  2-19   0.01046  2-20   0.00003
  3-17   0.00011  3-18   0.00015  3-19   0.00000  3-20   0.00080
  4-17   0.00015  4-18   0.00011  4-19   0.00080  4-20   0.00000
  5-17   0.00034  5-18   0.00002  5-19   0.00042  5-20   0.00023
  6-17   0.00002  6-18   0.00034  6-19   0.00023  6-20   0.00042
  7-17   0.00002  7-18   0.00002  7-19   0.00002  7-20   0.00006
  8-17   0.00002  8-18   0.00002  8-19   0.00006  8-20   0.00002
  9-17   0.00273  9-18   0.00002  9-19   0.00012  9-20   0.00007
 10-17   0.00002 10-18   0.00273 10-19   0.00007 10-20   0.00012
 11-17   0.00313 11-18   0.00000 11-19   0.00283 11-20   0.00000
 12-17   0.00000 12-18   0.00313 12-19   0.00000 12-20   0.00283
 13-17   0.01161 13-18   0.00000 13-19   0.00423 13-20   0.00000
 14-17   0.00000 14-18   0.01161 14-19   0.00000 14-20   0.00423
 15-17   0.96639 15-18   0.00000 15-19   0.96924 15-20   0.00000
 16-17   0.00000 16-18   0.96639 16-19   0.00000 16-20   0.96924
 17-17   0.00000 17-18   0.00000 17-19   0.00520 17-20   0.00000
 18-17   0.00000 18-18   0.00000 18-19   0.00000 18-20   0.00520
 19-17   0.00520 19-18   0.00000 19-19   0.00000 19-20   0.00000
 20-17   0.00000 20-18   0.00520 20-19   0.00000 20-20   0.00000

 Large bond indices
 ------------------
  1   C -  3   C    1.36307
  1   C -  6   C    1.36519
  1   C - 12   C    1.06640
  2   C -  4   C    1.36307
  2   C -  5   C    1.36519
  2   C - 11   C    1.06640
  3   C -  5   C    1.46517
  3   C -  7   H    0.96133
  4   C -  6   C    1.46517
  4   C -  8   H    0.96133
  5   C -  6   C    0.10218
  5   C -  9   H    0.95945
  6   C - 10   H    0.95945
 11   C - 13   H    0.95915
 11   C - 15   C    1.90133
 12   C - 14   H    0.95915
 12   C - 16   C    1.90133
 15   C - 17   H    0.96639
 15   C - 19   H    0.96924
 16   C - 18   H    0.96639
 16   C - 20   H    0.96924

                                                                Free electrons             Valency
                              Number of         Sum of          + Bond indices         - Bond indices    
                Valency     Free electrons    Bond indices     =Mulliken charge     = Net spin population
     1  C       3.97306        2.03135          3.97306           6.00441                 0.00000
     2  C       3.97306        2.03135          3.97306           6.00441                -0.00000
     3  C       3.96923        2.10747          3.96923           6.07670                -0.00000
     4  C       3.96923        2.10747          3.96923           6.07670                -0.00000
     5  C       3.97007        2.10706          3.97007           6.07713                -0.00000
     6  C       3.97007        2.10706          3.97007           6.07713                -0.00000
     7  H       0.99392       -0.07191          0.99392           0.92201                -0.00000
     8  H       0.99392       -0.07191          0.99392           0.92201                -0.00000
     9  H       0.99371       -0.07303          0.99371           0.92068                -0.00000
    10  H       0.99371       -0.07303          0.99371           0.92068                -0.00000
    11  C       3.96810        2.10823          3.96810           6.07633                 0.00000
    12  C       3.96810        2.10823          3.96810           6.07633                 0.00000
    13  H       0.99412       -0.07081          0.99412           0.92331                -0.00000
    14  H       0.99412       -0.07081          0.99412           0.92331                 0.00000
    15  C       3.96478        2.19006          3.96478           6.15483                -0.00000
    16  C       3.96478        2.19006          3.96478           6.15483                -0.00000
    17  H       0.99421       -0.07032          0.99421           0.92389                -0.00000
    18  H       0.99421       -0.07032          0.99421           0.92389                -0.00000
    19  H       0.99371       -0.07301          0.99371           0.92070                 0.00000
    20  H       0.99371       -0.07301          0.99371           0.92070                -0.00000

 Task  times  cpu:       48.4s     wall:       49.2s
 Summary of allocated global arrays
-----------------------------------
  No active global arrays



                         GA Statistics for process    0
                         ------------------------------

       create   destroy   get      put      acc     scatter   gather  read&inc
calls:  668      668     2.18e+05 4760     1.54e+05  420        0     8364     
number of processes/call 1.00e+00 1.00e+00 1.00e+00 1.00e+00 0.00e+00
bytes total:             3.09e+07 6.60e+06 1.62e+07 3.09e+04 0.00e+00 6.69e+04
bytes remote:            0.00e+00 0.00e+00 0.00e+00 0.00e+00 0.00e+00 0.00e+00
Max memory consumed for GA by this process: 1123200 bytes
MA_summarize_allocated_blocks: starting scan ...
MA_summarize_allocated_blocks: scan completed: 0 heap blocks, 0 stack blocks
MA usage statistics:

	allocation statistics:
					      heap	     stack
					      ----	     -----
	current number of blocks	         0	         0
	maximum number of blocks	        24	        54
	current total bytes		         0	         0
	maximum total bytes		  61308712	  22516376
	maximum total K-bytes		     61309	     22517
	maximum total M-bytes		        62	        23


                                NWChem Input Module
                                -------------------





                                     CITATION
                                     --------
                Please cite the following reference when publishing
                           results obtained with NWChem:

                 M. Valiev, E.J. Bylaska, N. Govind, K. Kowalski,
              T.P. Straatsma, H.J.J. van Dam, D. Wang, J. Nieplocha,
                        E. Apra, T.L. Windus, W.A. de Jong
                 "NWChem: a comprehensive and scalable open-source
                  solution for large scale molecular simulations"
                      Comput. Phys. Commun. 181, 1477 (2010)
                           doi:10.1016/j.cpc.2010.04.018

                                      AUTHORS
                                      -------
          E. Apra, E. J. Bylaska, W. A. de Jong, N. Govind, K. Kowalski,
       T. P. Straatsma, M. Valiev, H. J. J. van Dam, D. Wang, T. L. Windus,
        J. Hammond, J. Autschbach, K. Bhaskaran-Nair, J. Brabec, K. Lopata,
        S. Krishnamoorthy, W. Ma, M. Klemm, O. Villa, Y. Chen, V. Anisimov,
    F. Aquino, S. Hirata, M. T. Hackler, T. Risthaus, M. Malagoli, A. Marenich,
   A. Otero-de-la-Roza, J. Mullin, P. Nichols, R. Peverati, J. Pittner, Y. Zhao,
         P.-D. Fan, A. Fonari, R. J. Harrison, M. Dupuis, D. Silverstein,
    D. M. A. Smith, J. Nieplocha, V. Tipparaju, M. Krishnan, B. E. Van Kuiken,
        A. Vazquez-Mayagoitia, L. Jensen, M. Swart, Q. Wu, T. Van Voorhis,
     A. A. Auer, M. Nooijen, L. D. Crosby, E. Brown, G. Cisneros, G. I. Fann,
   H. Fruchtl, J. Garza, K. Hirao, R. A. Kendall, J. A. Nichols, K. Tsemekhman,
    K. Wolinski, J. Anchell, D. E. Bernholdt, P. Borowski, T. Clark, D. Clerc,
   H. Dachsel, M. J. O. Deegan, K. Dyall, D. Elwood, E. Glendening, M. Gutowski,
   A. C. Hess, J. Jaffe, B. G. Johnson, J. Ju, R. Kobayashi, R. Kutteh, Z. Lin,
   R. Littlefield, X. Long, B. Meng, T. Nakajima, S. Niu, L. Pollack, M. Rosing,
   K. Glaesemann, G. Sandrone, M. Stave, H. Taylor, G. Thomas, J. H. van Lenthe,
                               A. T. Wong, Z. Zhang.

 Total times  cpu:       48.5s     wall:       51.1s
