Title card required                                                     
SP        RHF                                                         Aug-CC-pVQZ         
Number of atoms                            I                1
Info1-9                                    I   N=           9
           8           8           0           0           0         111
           1           1           2
Full Title                                 C   N=           2
Title card required     
Route                                      C   N=           5
#p HF/aug-cc-pVQZ pop=full iop(3/33=1,3/36=-1) gfinput      
Charge                                     I                0
Multiplicity                               I                1
Number of electrons                        I                6
Number of alpha electrons                  I                3
Number of beta electrons                   I                3
Number of basis functions                  I               80
Number of independent functions            I               80
Number of point charges in /Mol/           I                0
Number of translation vectors              I                0
Atomic numbers                             I   N=           1
           6
Nuclear charges                            R   N=           1
  6.00000000E+00
Current cartesian coordinates              R   N=           3
  0.00000000E+00  0.00000000E+00  0.00000000E+00
Number of symbols in /Mol/                 I                0
Force Field                                I                0
Atom Types                                 C   N=           1
            
Int Atom Types                             I   N=           1
           0
MM charges                                 R   N=           1
  0.00000000E+00
Integer atomic weights                     I   N=           1
          12
Real atomic weights                        R   N=           1
  1.20000000E+01
Atom fragment info                         I   N=           1
           0
Atom residue num                           I   N=           1
           0
Nuclear spins                              I   N=           1
           0
Nuclear ZEff                               R   N=           1
 -3.60000000E+00
Nuclear ZNuc                               R   N=           1
  6.00000000E+00
Nuclear QMom                               R   N=           1
  0.00000000E+00
Nuclear GFac                               R   N=           1
  0.00000000E+00
MicOpt                                     I   N=           1
          -1
Number of residues                         I                0
Number of secondary structures             I                0
SymInf integers                            I   N=          26
           1           8           1           1           1           1
          -1          -1          -1           1          -1          -1
          -1           1          -1          -1          -1          -1
           1           1           1          -1           1           1
           1          -1
RotTr to input orientation                 R   N=          12
  0.00000000E+00  0.00000000E+00 -1.00000000E+00  0.00000000E+00  1.00000000E+00
  0.00000000E+00  1.00000000E+00  0.00000000E+00  0.00000000E+00  0.00000000E+00
  0.00000000E+00  0.00000000E+00
Number of contracted shells                I               20
Number of primitive shells                 I               35
Pure/Cartesian d shells                    I                0
Pure/Cartesian f shells                    I                0
Highest angular momentum                   I                4
Largest degree of contraction              I                8
Shell types                                I   N=          20
           0           0           0           0           0           0
           1           1           1           1           1          -2
          -2          -2          -2          -3          -3          -3
          -4          -4
Number of primitives per shell             I   N=          20
           8           7           1           1           1           1
           3           1           1           1           1           1
           1           1           1           1           1           1
           1           1
Shell to atom map                          I   N=          20
           1           1           1           1           1           1
           1           1           1           1           1           1
           1           1           1           1           1           1
           1           1
Primitive exponents                        R   N=          35
  3.39800000E+04  5.08900000E+03  1.15700000E+03  3.26600000E+02  1.06100000E+02
  3.81100000E+01  1.47500000E+01  6.03500000E+00  5.08900000E+03  3.26600000E+02
  1.06100000E+02  3.81100000E+01  1.47500000E+01  6.03500000E+00  2.53000000E+00
  7.35500000E-01  2.90500000E-01  1.11100000E-01  4.14500000E-02  3.45100000E+01
  7.91500000E+00  2.36800000E+00  8.13200000E-01  2.89000000E-01  1.00700000E-01
  3.21800000E-02  1.84800000E+00  6.49000000E-01  2.28000000E-01  7.66000000E-02
  1.41900000E+00  4.85000000E-01  1.87000000E-01  1.01100000E+00  4.24000000E-01
Contraction coefficients                   R   N=          35
  1.46812411E-04  1.11646002E-03  5.89088711E-03  2.42172555E-02  8.31716388E-02
  2.20568478E-01  4.28731497E-01  3.64361422E-01 -1.00226536E-05 -4.36589437E-04
 -1.93231273E-03 -2.14839477E-02 -9.03091657E-02 -4.18791512E-01 -5.31801906E-01
  1.00000000E+00  1.00000000E+00  1.00000000E+00  1.00000000E+00  3.16878552E-02
  2.12894307E-01  8.39586752E-01  1.00000000E+00  1.00000000E+00  1.00000000E+00
  1.00000000E+00  1.00000000E+00  1.00000000E+00  1.00000000E+00  1.00000000E+00
  1.00000000E+00  1.00000000E+00  1.00000000E+00  1.00000000E+00  1.00000000E+00
Coordinates of each shell                  R   N=          60
  0.00000000E+00  0.00000000E+00  0.00000000E+00  0.00000000E+00  0.00000000E+00
  0.00000000E+00  0.00000000E+00  0.00000000E+00  0.00000000E+00  0.00000000E+00
  0.00000000E+00  0.00000000E+00  0.00000000E+00  0.00000000E+00  0.00000000E+00
  0.00000000E+00  0.00000000E+00  0.00000000E+00  0.00000000E+00  0.00000000E+00
  0.00000000E+00  0.00000000E+00  0.00000000E+00  0.00000000E+00  0.00000000E+00
  0.00000000E+00  0.00000000E+00  0.00000000E+00  0.00000000E+00  0.00000000E+00
  0.00000000E+00  0.00000000E+00  0.00000000E+00  0.00000000E+00  0.00000000E+00
  0.00000000E+00  0.00000000E+00  0.00000000E+00  0.00000000E+00  0.00000000E+00
  0.00000000E+00  0.00000000E+00  0.00000000E+00  0.00000000E+00  0.00000000E+00
  0.00000000E+00  0.00000000E+00  0.00000000E+00  0.00000000E+00  0.00000000E+00
  0.00000000E+00  0.00000000E+00  0.00000000E+00  0.00000000E+00  0.00000000E+00
  0.00000000E+00  0.00000000E+00  0.00000000E+00  0.00000000E+00  0.00000000E+00
Num ILSW                                   I              100
ILSW                                       I   N=         100
           0           0           0           0           2           0
           0           0           0           0           0          -1
           5           0           0           0           0           0
           0           0           0           0           0           0
           1           0           0           0           0           0
           0           0      100000           0          -1           0
           0           0           0           0           0           0
           0           0           0           1           0           0
           0 -2000000000           1           0           0           0
           0           1           4          52           0           0
           0           0           0           0           0           0
           0           0           0           1           0           1
           0           0           0           0           0           0
           0           0           0           0           0           0
           0           0           0           0           0           0
           0           0           0           0           0           0
           0           0           0           0
Num RLSW                                   I               52
RLSW                                       R   N=          52
  1.00000000E+00  1.00000000E+00  1.00000000E+00  1.00000000E+00  1.00000000E+00
  0.00000000E+00  0.00000000E+00  1.00000000E+00  0.00000000E+00  0.00000000E+00
  0.00000000E+00  0.00000000E+00  1.00000000E+00  0.00000000E+00  0.00000000E+00
  0.00000000E+00  0.00000000E+00  1.00000000E+00  0.00000000E+00  0.00000000E+00
  0.00000000E+00  0.00000000E+00  1.00000000E+00  0.00000000E+00  0.00000000E+00
  0.00000000E+00  0.00000000E+00  1.00000000E+00  0.00000000E+00  0.00000000E+00
  0.00000000E+00  0.00000000E+00  1.00000000E+00  0.00000000E+00  0.00000000E+00
  0.00000000E+00  0.00000000E+00  0.00000000E+00  1.00000000E+00  1.00000000E+00
  0.00000000E+00  1.00000000E+00  0.00000000E+00  0.00000000E+00  0.00000000E+00
  0.00000000E+00  0.00000000E+00  0.00000000E+00  0.00000000E+00  0.00000000E+00
  0.00000000E+00  0.00000000E+00
MxBond                                     I                1
NBond                                      I   N=           1
           0
IBond                                      I   N=           1
           0
RBond                                      R   N=           1
  0.00000000E+00
Virial Ratio                               R      2.000024255554548E+00
SCF Energy                                 R     -3.760454245753391E+01
Total Energy                               R     -3.760454245753391E+01
RMS Density                                R      4.217073492819002E-09
Job Status                                 I                1
Nuclear derivative order                   I                0
External E-field                           R   N=          35
  0.00000000E+00  0.00000000E+00  0.00000000E+00  0.00000000E+00  0.00000000E+00
  0.00000000E+00  0.00000000E+00  0.00000000E+00  0.00000000E+00  0.00000000E+00
  0.00000000E+00  0.00000000E+00  0.00000000E+00  0.00000000E+00  0.00000000E+00
  0.00000000E+00  0.00000000E+00  0.00000000E+00  0.00000000E+00  0.00000000E+00
  0.00000000E+00  0.00000000E+00  0.00000000E+00  0.00000000E+00  0.00000000E+00
  0.00000000E+00  0.00000000E+00  0.00000000E+00  0.00000000E+00  0.00000000E+00
  0.00000000E+00  0.00000000E+00  0.00000000E+00  0.00000000E+00  0.00000000E+00
IOpCl                                      I                0
IROHF                                      I                0
Alpha Orbital Energies                     R   N=          80
 -1.13649902E+01 -7.25629627E-01 -3.58430162E-01  1.88580582E-02  1.88580582E-02
  8.34191603E-02  8.99004187E-02  1.08244560E-01  1.08244560E-01  2.32374115E-01
  2.32374115E-01  2.41640387E-01  2.41640387E-01  2.45417723E-01  4.45331313E-01
  4.63968355E-01  4.63968355E-01  5.03207381E-01  7.44144654E-01  7.44144654E-01
  7.62264534E-01  7.62264534E-01  7.73568385E-01  7.73568385E-01  7.75669733E-01
  7.75669733E-01  7.77426190E-01  7.91144919E-01  7.91144919E-01  7.98435020E-01
  1.59145176E+00  1.59145176E+00  1.60860603E+00  2.08998959E+00  2.08998959E+00
  2.10755981E+00  2.11833460E+00  2.11833460E+00  2.13862784E+00  2.13862784E+00
  2.15082191E+00  2.15082191E+00  2.15489042E+00  2.19726991E+00  2.19726991E+00
  2.23152627E+00  2.23152627E+00  2.24477458E+00  2.24517044E+00  2.24517044E+00
  2.28314372E+00  2.28314372E+00  2.30666432E+00  2.30666432E+00  2.31466558E+00
  5.76711536E+00  5.76711536E+00  5.81420947E+00  5.87388386E+00  5.87388386E+00
  5.92115787E+00  5.92115787E+00  5.95483224E+00  5.95483224E+00  5.97500139E+00
  5.97500139E+00  5.98171859E+00  6.32804635E+00  6.32804635E+00  6.38281482E+00
  6.38281482E+00  6.40137032E+00  6.41813127E+00  6.41813127E+00  6.47304784E+00
  6.47304784E+00  6.50666321E+00  6.50666321E+00  6.51803143E+00  2.04222936E+01
Alpha MO coefficients                      R   N=        6400
  6.27010291E-01 -4.08154694E-01  1.57484428E-02 -3.47791011E-03  1.60600087E-03
 -4.03524458E-04  0.00000000E+00  0.00000000E+00  0.00000000E+00  0.00000000E+00
  0.00000000E+00  0.00000000E+00  0.00000000E+00  0.00000000E+00  0.00000000E+00
  0.00000000E+00  0.00000000E+00  0.00000000E+00  0.00000000E+00  0.00000000E+00
  0.00000000E+00  1.06424620E-04  0.00000000E+00  0.00000000E+00 -1.84332849E-04
  0.00000000E+00 -5.07994817E-04  0.00000000E+00  0.00000000E+00  8.79872834E-04
  0.00000000E+00  4.97704082E-05  0.00000000E+00  0.00000000E+00 -8.62048757E-05
  0.00000000E+00 -4.34211385E-05  0.00000000E+00  0.00000000E+00  7.52076181E-05
  0.00000000E+00  0.00000000E+00  0.00000000E+00  0.00000000E+00  0.00000000E+00
  0.00000000E+00  0.00000000E+00  0.00000000E+00  0.00000000E+00  0.00000000E+00
  0.00000000E+00  0.00000000E+00  0.00000000E+00  0.00000000E+00  0.00000000E+00
  0.00000000E+00  0.00000000E+00  0.00000000E+00  0.00000000E+00  0.00000000E+00
  0.00000000E+00  0.00000000E+00 -5.06674997E-06  0.00000000E+00  0.00000000E+00
  7.55306491E-06  0.00000000E+00  0.00000000E+00  0.00000000E+00 -9.99176569E-06
  0.00000000E+00 -1.25790016E-06  0.00000000E+00  0.00000000E+00  1.87516685E-06
  0.00000000E+00  0.00000000E+00  0.00000000E+00 -2.48061257E-06  0.00000000E+00
 -1.34298769E-01  2.24016838E-01  2.80957738E-01  5.91928781E-01  2.71475242E-01
  2.92913924E-03  0.00000000E+00  0.00000000E+00  0.00000000E+00  0.00000000E+00
  0.00000000E+00  0.00000000E+00  0.00000000E+00  0.00000000E+00  0.00000000E+00
  0.00000000E+00  0.00000000E+00  0.00000000E+00  0.00000000E+00  0.00000000E+00
  0.00000000E+00 -1.10988472E-03  0.00000000E+00  0.00000000E+00  1.92237673E-03
  0.00000000E+00  3.33854687E-04  0.00000000E+00  0.00000000E+00 -5.78253280E-04
  0.00000000E+00 -4.29086812E-03  0.00000000E+00  0.00000000E+00  7.43200159E-03
  0.00000000E+00 -2.18298568E-03  0.00000000E+00  0.00000000E+00  3.78104210E-03
  0.00000000E+00  0.00000000E+00  0.00000000E+00  0.00000000E+00  0.00000000E+00
  0.00000000E+00  0.00000000E+00  0.00000000E+00  0.00000000E+00  0.00000000E+00
  0.00000000E+00  0.00000000E+00  0.00000000E+00  0.00000000E+00  0.00000000E+00
  0.00000000E+00  0.00000000E+00  0.00000000E+00  0.00000000E+00  0.00000000E+00
  0.00000000E+00  0.00000000E+00 -2.49371374E-05  0.00000000E+00  0.00000000E+00
  3.71740896E-05  0.00000000E+00  0.00000000E+00  0.00000000E+00 -4.91766981E-05
  0.00000000E+00 -1.51076991E-04  0.00000000E+00  0.00000000E+00  2.25212281E-04
  0.00000000E+00  0.00000000E+00  0.00000000E+00 -2.97927844E-04  0.00000000E+00
  0.00000000E+00  0.00000000E+00  0.00000000E+00  0.00000000E+00  0.00000000E+00
  0.00000000E+00  1.66555684E-01  0.00000000E+00  0.00000000E+00  3.25426242E-01
  0.00000000E+00  0.00000000E+00  4.41848755E-01  0.00000000E+00  0.00000000E+00
  2.88966315E-01  0.00000000E+00  0.00000000E+00  2.37799814E-02  0.00000000E+00
  0.00000000E+00  0.00000000E+00  0.00000000E+00  0.00000000E+00  0.00000000E+00
  0.00000000E+00  0.00000000E+00  0.00000000E+00  0.00000000E+00  0.00000000E+00
  0.00000000E+00  0.00000000E+00  0.00000000E+00  0.00000000E+00  0.00000000E+00
  0.00000000E+00  0.00000000E+00  0.00000000E+00  0.00000000E+00  0.00000000E+00
  0.00000000E+00  0.00000000E+00  2.53103405E-03  0.00000000E+00  0.00000000E+00
  0.00000000E+00 -3.26755090E-03  0.00000000E+00  0.00000000E+00  5.71323157E-03
  0.00000000E+00  0.00000000E+00  0.00000000E+00 -7.37575024E-03  0.00000000E+00
  0.00000000E+00  4.75309813E-03  0.00000000E+00  0.00000000E+00  0.00000000E+00
 -6.13622330E-03  0.00000000E+00  0.00000000E+00  0.00000000E+00  0.00000000E+00
  0.00000000E+00  0.00000000E+00  0.00000000E+00  0.00000000E+00  0.00000000E+00
  0.00000000E+00  0.00000000E+00  0.00000000E+00  0.00000000E+00  0.00000000E+00
  0.00000000E+00  0.00000000E+00  0.00000000E+00  0.00000000E+00  0.00000000E+00
  0.00000000E+00  0.00000000E+00  0.00000000E+00  0.00000000E+00  0.00000000E+00
  0.00000000E+00  0.00000000E+00  0.00000000E+00  9.66383844E-02  0.00000000E+00
  0.00000000E+00  1.83336420E-01  0.00000000E+00  0.00000000E+00  3.00122862E-01
  0.00000000E+00  0.00000000E+00  2.37741924E-01  0.00000000E+00  0.00000000E+00
  5.28019083E-01  0.00000000E+00  0.00000000E+00  0.00000000E+00  0.00000000E+00
  0.00000000E+00  0.00000000E+00  0.00000000E+00  0.00000000E+00  0.00000000E+00
  0.00000000E+00  0.00000000E+00  0.00000000E+00  0.00000000E+00  0.00000000E+00
  0.00000000E+00  0.00000000E+00  0.00000000E+00  0.00000000E+00  0.00000000E+00
  0.00000000E+00  1.28956179E-03  0.00000000E+00  0.00000000E+00 -1.66481711E-03
  0.00000000E+00  0.00000000E+00  0.00000000E+00  2.39795290E-03  0.00000000E+00
  0.00000000E+00 -3.09574388E-03  0.00000000E+00  0.00000000E+00  0.00000000E+00
  7.22802450E-03  0.00000000E+00  0.00000000E+00 -9.33133950E-03  0.00000000E+00
  0.00000000E+00  0.00000000E+00  0.00000000E+00  0.00000000E+00  0.00000000E+00
  0.00000000E+00  0.00000000E+00  0.00000000E+00  0.00000000E+00  0.00000000E+00
  0.00000000E+00  0.00000000E+00  0.00000000E+00  0.00000000E+00  0.00000000E+00
  0.00000000E+00  0.00000000E+00  0.00000000E+00  0.00000000E+00  0.00000000E+00
  0.00000000E+00  0.00000000E+00  0.00000000E+00  0.00000000E+00  0.00000000E+00
  0.00000000E+00  0.00000000E+00  9.66383844E-02  0.00000000E+00  0.00000000E+00
  1.83336420E-01  0.00000000E+00  0.00000000E+00  3.00122862E-01  0.00000000E+00
  0.00000000E+00  2.37741924E-01  0.00000000E+00  0.00000000E+00  5.28019083E-01
  0.00000000E+00  0.00000000E+00  0.00000000E+00  0.00000000E+00  0.00000000E+00
  0.00000000E+00  0.00000000E+00  0.00000000E+00  0.00000000E+00  0.00000000E+00
  0.00000000E+00  0.00000000E+00  0.00000000E+00  0.00000000E+00  0.00000000E+00
  0.00000000E+00  0.00000000E+00  0.00000000E+00  0.00000000E+00  0.00000000E+00
  0.00000000E+00  0.00000000E+00  0.00000000E+00  5.26461397E-04  0.00000000E+00
  0.00000000E+00  0.00000000E+00 -2.03897622E-03  0.00000000E+00  0.00000000E+00
  9.78960171E-04  0.00000000E+00  0.00000000E+00  0.00000000E+00 -3.79149644E-03
  0.00000000E+00  0.00000000E+00  2.95082864E-03  0.00000000E+00  0.00000000E+00
  0.00000000E+00 -1.14285102E-02  0.00000000E+00  0.00000000E+00  0.00000000E+00
  0.00000000E+00  0.00000000E+00  0.00000000E+00  0.00000000E+00  0.00000000E+00
  0.00000000E+00  0.00000000E+00  0.00000000E+00  0.00000000E+00  0.00000000E+00
  0.00000000E+00  0.00000000E+00  0.00000000E+00  0.00000000E+00  0.00000000E+00
  2.90042588E-02 -6.54208588E-02 -1.74345359E-01  2.24985865E-01 -1.35882301E+00
  1.81403365E+00  0.00000000E+00  0.00000000E+00  0.00000000E+00  0.00000000E+00
  0.00000000E+00  0.00000000E+00  0.00000000E+00  0.00000000E+00  0.00000000E+00
  0.00000000E+00  0.00000000E+00  0.00000000E+00  0.00000000E+00  0.00000000E+00
  0.00000000E+00 -2.43854833E-04  0.00000000E+00  0.00000000E+00  4.22368960E-04
  0.00000000E+00 -3.10717190E-06  0.00000000E+00  0.00000000E+00  5.38177960E-06
  0.00000000E+00 -5.31638451E-03  0.00000000E+00  0.00000000E+00  9.20824809E-03
  0.00000000E+00  3.11275309E-02  0.00000000E+00  0.00000000E+00 -5.39144650E-02
  0.00000000E+00  0.00000000E+00  0.00000000E+00  0.00000000E+00  0.00000000E+00
  0.00000000E+00  0.00000000E+00  0.00000000E+00  0.00000000E+00  0.00000000E+00
  0.00000000E+00  0.00000000E+00  0.00000000E+00  0.00000000E+00  0.00000000E+00
  0.00000000E+00  0.00000000E+00  0.00000000E+00  0.00000000E+00  0.00000000E+00
  0.00000000E+00  0.00000000E+00 -3.27835827E-05  0.00000000E+00  0.00000000E+00
  4.88708797E-05  0.00000000E+00  0.00000000E+00  0.00000000E+00 -6.46500970E-05
  0.00000000E+00  1.14306565E-04  0.00000000E+00  0.00000000E+00 -1.70398166E-04
  0.00000000E+00  0.00000000E+00  0.00000000E+00  2.25415586E-04  0.00000000E+00
  0.00000000E+00  0.00000000E+00  0.00000000E+00  0.00000000E+00  0.00000000E+00
  0.00000000E+00 -3.31096288E-02  0.00000000E+00  0.00000000E+00 -1.05006399E-01
  0.00000000E+00  0.00000000E+00  2.04113697E-02  0.00000000E+00  0.00000000E+00
 -5.29661219E-01  0.00000000E+00  0.00000000E+00  1.26811274E+00  0.00000000E+00
  0.00000000E+00  0.00000000E+00  0.00000000E+00  0.00000000E+00  0.00000000E+00
  0.00000000E+00  0.00000000E+00  0.00000000E+00  0.00000000E+00  0.00000000E+00
  0.00000000E+00  0.00000000E+00  0.00000000E+00  0.00000000E+00  0.00000000E+00
  0.00000000E+00  0.00000000E+00  0.00000000E+00  0.00000000E+00  0.00000000E+00
  0.00000000E+00  0.00000000E+00 -3.64942798E-04  0.00000000E+00  0.00000000E+00
  0.00000000E+00  4.71139126E-04  0.00000000E+00  0.00000000E+00 -2.60229808E-03
  0.00000000E+00  0.00000000E+00  0.00000000E+00  3.35955237E-03  0.00000000E+00
  0.00000000E+00  3.94135254E-03  0.00000000E+00  0.00000000E+00  0.00000000E+00
 -5.08826424E-03  0.00000000E+00  0.00000000E+00  0.00000000E+00  0.00000000E+00
  0.00000000E+00  0.00000000E+00  0.00000000E+00  0.00000000E+00  0.00000000E+00
  0.00000000E+00  0.00000000E+00  0.00000000E+00  0.00000000E+00  0.00000000E+00
  0.00000000E+00  0.00000000E+00  0.00000000E+00  0.00000000E+00  0.00000000E+00
  0.00000000E+00  0.00000000E+00  0.00000000E+00  0.00000000E+00  0.00000000E+00
  0.00000000E+00  0.00000000E+00 -7.99907914E-02  0.00000000E+00  0.00000000E+00
 -2.02838929E-01  0.00000000E+00  0.00000000E+00 -1.12587915E-01  0.00000000E+00
  0.00000000E+00 -8.07325749E-01  0.00000000E+00  0.00000000E+00  1.18807155E+00
  0.00000000E+00  0.00000000E+00  0.00000000E+00  0.00000000E+00  0.00000000E+00
  0.00000000E+00  0.00000000E+00  0.00000000E+00  0.00000000E+00  0.00000000E+00
  0.00000000E+00  0.00000000E+00  0.00000000E+00  0.00000000E+00  0.00000000E+00
  0.00000000E+00  0.00000000E+00  0.00000000E+00  0.00000000E+00  0.00000000E+00
  0.00000000E+00  0.00000000E+00  0.00000000E+00 -3.79749647E-04  0.00000000E+00
  0.00000000E+00  0.00000000E+00  1.47076406E-03  0.00000000E+00  0.00000000E+00
 -1.43489939E-03  0.00000000E+00  0.00000000E+00  0.00000000E+00  5.55734143E-03
  0.00000000E+00  0.00000000E+00 -5.03030157E-04  0.00000000E+00  0.00000000E+00
  0.00000000E+00  1.94822742E-03  0.00000000E+00  0.00000000E+00  0.00000000E+00
  0.00000000E+00  0.00000000E+00  0.00000000E+00  0.00000000E+00  0.00000000E+00
  0.00000000E+00  0.00000000E+00  0.00000000E+00  0.00000000E+00  0.00000000E+00
  0.00000000E+00  0.00000000E+00  0.00000000E+00  0.00000000E+00  0.00000000E+00
  0.00000000E+00  0.00000000E+00  0.00000000E+00  0.00000000E+00  0.00000000E+00
  0.00000000E+00  0.00000000E+00  0.00000000E+00 -7.99907914E-02  0.00000000E+00
  0.00000000E+00 -2.02838929E-01  0.00000000E+00  0.00000000E+00 -1.12587915E-01
  0.00000000E+00  0.00000000E+00 -8.07325749E-01  0.00000000E+00  0.00000000E+00
  1.18807155E+00  0.00000000E+00  0.00000000E+00  0.00000000E+00  0.00000000E+00
  0.00000000E+00  0.00000000E+00  0.00000000E+00  0.00000000E+00  0.00000000E+00
  0.00000000E+00  0.00000000E+00  0.00000000E+00  0.00000000E+00  0.00000000E+00
  0.00000000E+00  0.00000000E+00  0.00000000E+00  0.00000000E+00  0.00000000E+00
  0.00000000E+00 -9.30192865E-04  0.00000000E+00  0.00000000E+00  1.20087382E-03
  0.00000000E+00  0.00000000E+00  0.00000000E+00 -3.51477133E-03  0.00000000E+00
  0.00000000E+00  4.53755028E-03  0.00000000E+00  0.00000000E+00  0.00000000E+00
 -1.23216721E-03  0.00000000E+00  0.00000000E+00  1.59072103E-03  0.00000000E+00
  0.00000000E+00  0.00000000E+00  0.00000000E+00  0.00000000E+00  0.00000000E+00
  0.00000000E+00  0.00000000E+00  0.00000000E+00  0.00000000E+00  0.00000000E+00
  0.00000000E+00  0.00000000E+00  0.00000000E+00  0.00000000E+00  0.00000000E+00
  0.00000000E+00  0.00000000E+00  0.00000000E+00  0.00000000E+00  0.00000000E+00
  8.01661238E-17 -3.54250360E-17  6.55816985E-16 -4.16368879E-15  6.84253537E-15
 -3.59826249E-15  0.00000000E+00  0.00000000E+00  0.00000000E+00  0.00000000E+00
  0.00000000E+00  0.00000000E+00  0.00000000E+00  0.00000000E+00  0.00000000E+00
  0.00000000E+00  0.00000000E+00  0.00000000E+00  0.00000000E+00  0.00000000E+00
  0.00000000E+00 -8.02535262E-03  0.00000000E+00  0.00000000E+00 -4.63343950E-03
  0.00000000E+00  5.84541683E-02  0.00000000E+00  0.00000000E+00  3.37485298E-02
  0.00000000E+00 -1.68388168E-01  0.00000000E+00  0.00000000E+00 -9.72189539E-02
  0.00000000E+00  9.51890896E-01  0.00000000E+00  0.00000000E+00  5.49574465E-01
  0.00000000E+00  0.00000000E+00  0.00000000E+00  0.00000000E+00  0.00000000E+00
  0.00000000E+00  0.00000000E+00  0.00000000E+00  0.00000000E+00  0.00000000E+00
  0.00000000E+00  0.00000000E+00  0.00000000E+00  0.00000000E+00  0.00000000E+00
  0.00000000E+00  0.00000000E+00  0.00000000E+00  0.00000000E+00  0.00000000E+00
  0.00000000E+00  0.00000000E+00 -3.85757106E-04  0.00000000E+00  0.00000000E+00
  3.45031645E-04  0.00000000E+00  0.00000000E+00  0.00000000E+00  4.56433963E-04
  0.00000000E+00  2.27439508E-03  0.00000000E+00  0.00000000E+00 -2.03428080E-03
  0.00000000E+00  0.00000000E+00  0.00000000E+00 -2.69110055E-03  0.00000000E+00
  0.00000000E+00  0.00000000E+00  0.00000000E+00  0.00000000E+00  0.00000000E+00
  0.00000000E+00  0.00000000E+00  0.00000000E+00  0.00000000E+00  0.00000000E+00
  0.00000000E+00  0.00000000E+00  0.00000000E+00  0.00000000E+00  0.00000000E+00
  0.00000000E+00  0.00000000E+00  0.00000000E+00  0.00000000E+00  0.00000000E+00
  0.00000000E+00  0.00000000E+00  0.00000000E+00 -9.26687899E-03  0.00000000E+00
  0.00000000E+00  0.00000000E+00  0.00000000E+00  6.74970596E-02  0.00000000E+00
  0.00000000E+00  0.00000000E+00  0.00000000E+00 -1.94437908E-01  0.00000000E+00
  0.00000000E+00  0.00000000E+00  0.00000000E+00  1.09914893E+00  0.00000000E+00
  0.00000000E+00  0.00000000E+00  0.00000000E+00  0.00000000E+00  0.00000000E+00
  0.00000000E+00  0.00000000E+00  0.00000000E+00  0.00000000E+00  0.00000000E+00
  0.00000000E+00  0.00000000E+00  0.00000000E+00  0.00000000E+00  0.00000000E+00
  0.00000000E+00  0.00000000E+00  0.00000000E+00  0.00000000E+00  0.00000000E+00
  0.00000000E+00  0.00000000E+00  0.00000000E+00  0.00000000E+00 -2.43974216E-04
  0.00000000E+00  0.00000000E+00  0.00000000E+00  6.45495101E-04  0.00000000E+00
  0.00000000E+00  0.00000000E+00  0.00000000E+00  1.43845375E-03  0.00000000E+00
  0.00000000E+00  0.00000000E+00 -3.80579089E-03  0.00000000E+00  0.00000000E+00
  0.00000000E+00  0.00000000E+00  0.00000000E+00  0.00000000E+00  0.00000000E+00
  0.00000000E+00  0.00000000E+00  0.00000000E+00  0.00000000E+00  0.00000000E+00
  0.00000000E+00  0.00000000E+00  0.00000000E+00  0.00000000E+00  0.00000000E+00
  0.00000000E+00  0.00000000E+00  0.00000000E+00  0.00000000E+00  0.00000000E+00
  0.00000000E+00  0.00000000E+00  0.00000000E+00  0.00000000E+00  0.00000000E+00
 -9.17476288E-03  0.00000000E+00  0.00000000E+00  0.00000000E+00  0.00000000E+00
  7.16739124E-02  0.00000000E+00  0.00000000E+00  0.00000000E+00  0.00000000E+00
 -1.96349456E-01  0.00000000E+00  0.00000000E+00  0.00000000E+00  0.00000000E+00
  1.09954142E+00  0.00000000E+00  0.00000000E+00  0.00000000E+00  0.00000000E+00
  0.00000000E+00  0.00000000E+00  0.00000000E+00  0.00000000E+00  0.00000000E+00
  0.00000000E+00  0.00000000E+00  0.00000000E+00  0.00000000E+00  0.00000000E+00
  0.00000000E+00  0.00000000E+00  0.00000000E+00  0.00000000E+00  0.00000000E+00
  0.00000000E+00  0.00000000E+00  0.00000000E+00  0.00000000E+00  0.00000000E+00
  0.00000000E+00 -3.27679650E-04  0.00000000E+00  0.00000000E+00  0.00000000E+00
  8.66958863E-04  0.00000000E+00  0.00000000E+00  0.00000000E+00  0.00000000E+00
  2.05023610E-03  0.00000000E+00  0.00000000E+00  0.00000000E+00 -5.42441485E-03
  0.00000000E+00  0.00000000E+00  0.00000000E+00  0.00000000E+00  0.00000000E+00
  0.00000000E+00  0.00000000E+00  0.00000000E+00  0.00000000E+00  0.00000000E+00
  0.00000000E+00  0.00000000E+00  0.00000000E+00  0.00000000E+00  0.00000000E+00
  0.00000000E+00  0.00000000E+00  0.00000000E+00  0.00000000E+00  0.00000000E+00
  0.00000000E+00  0.00000000E+00 -9.17476288E-03  0.00000000E+00  0.00000000E+00
  0.00000000E+00  0.00000000E+00  7.16739124E-02  0.00000000E+00  0.00000000E+00
  0.00000000E+00  0.00000000E+00 -1.96349456E-01  0.00000000E+00  0.00000000E+00
  0.00000000E+00  0.00000000E+00  1.09954142E+00  0.00000000E+00  0.00000000E+00
  0.00000000E+00  0.00000000E+00  0.00000000E+00  0.00000000E+00  0.00000000E+00
  0.00000000E+00  0.00000000E+00  0.00000000E+00  0.00000000E+00  0.00000000E+00
  0.00000000E+00  0.00000000E+00  0.00000000E+00  0.00000000E+00  0.00000000E+00
  0.00000000E+00  0.00000000E+00  0.00000000E+00  0.00000000E+00  0.00000000E+00
  0.00000000E+00  0.00000000E+00  0.00000000E+00 -6.95113507E-04  0.00000000E+00
  0.00000000E+00  0.00000000E+00  6.13032491E-04  0.00000000E+00  0.00000000E+00
  0.00000000E+00  0.00000000E+00  4.34920755E-03  0.00000000E+00  0.00000000E+00
  0.00000000E+00 -3.83564053E-03  0.00000000E+00  0.00000000E+00  0.00000000E+00
  8.16756917E-04 -4.28597045E-03 -2.29802281E-02  7.37176541E-02 -1.67261489E-01
  1.38468030E-01  0.00000000E+00  0.00000000E+00  0.00000000E+00  0.00000000E+00
  0.00000000E+00  0.00000000E+00  0.00000000E+00  0.00000000E+00  0.00000000E+00
  0.00000000E+00  0.00000000E+00  0.00000000E+00  0.00000000E+00  0.00000000E+00
  0.00000000E+00  4.58506432E-03  0.00000000E+00  0.00000000E+00 -7.94156436E-03
  0.00000000E+00 -3.62941570E-02  0.00000000E+00  0.00000000E+00  6.28633240E-02
  0.00000000E+00  9.86659986E-02  0.00000000E+00  0.00000000E+00 -1.70894523E-01
  0.00000000E+00 -5.49011345E-01  0.00000000E+00  0.00000000E+00  9.50915543E-01
  0.00000000E+00  0.00000000E+00  0.00000000E+00  0.00000000E+00  0.00000000E+00
  0.00000000E+00  0.00000000E+00  0.00000000E+00  0.00000000E+00  0.00000000E+00
  0.00000000E+00  0.00000000E+00  0.00000000E+00  0.00000000E+00  0.00000000E+00
  0.00000000E+00  0.00000000E+00  0.00000000E+00  0.00000000E+00  0.00000000E+00
  0.00000000E+00  0.00000000E+00  3.75449473E-04  0.00000000E+00  0.00000000E+00