 Entering Gaussian System, Link 0=g16_main
 Initial command:
 /software/Gaussian16/g16_sse4/g16/l1.exe "/tmp/Gau-10582.inp" -scrdir="/tmp/"
 Entering Link 1 = /software/Gaussian16/g16_sse4/g16/l1.exe PID=     10583.
  
 Copyright (c) 1988,1990,1992,1993,1995,1998,2003,2009,2016,
            Gaussian, Inc.  All Rights Reserved.
  
 This is part of the Gaussian(R) 16 program.  It is based on
 the Gaussian(R) 09 system (copyright 2009, Gaussian, Inc.),
 the Gaussian(R) 03 system (copyright 2003, Gaussian, Inc.),
 the Gaussian(R) 98 system (copyright 1998, Gaussian, Inc.),
 the Gaussian(R) 94 system (copyright 1995, Gaussian, Inc.),
 the Gaussian 92(TM) system (copyright 1992, Gaussian, Inc.),
 the Gaussian 90(TM) system (copyright 1990, Gaussian, Inc.),
 the Gaussian 88(TM) system (copyright 1988, Gaussian, Inc.),
 the Gaussian 86(TM) system (copyright 1986, Carnegie Mellon
 University), and the Gaussian 82(TM) system (copyright 1983,
 Carnegie Mellon University). Gaussian is a federally registered
 trademark of Gaussian, Inc.
  
 This software contains proprietary and confidential information,
 including trade secrets, belonging to Gaussian, Inc.
  
 This software is provided under written license and may be
 used, copied, transmitted, or stored only in accord with that
 written license.
  
 The following legend is applicable only to US Government
 contracts under FAR:
  
                    RESTRICTED RIGHTS LEGEND
  
 Use, reproduction and disclosure by the US Government is
 subject to restrictions as set forth in subparagraphs (a)
 and (c) of the Commercial Computer Software - Restricted
 Rights clause in FAR 52.227-19.
  
 Gaussian, Inc.
 340 Quinnipiac St., Bldg. 40, Wallingford CT 06492
  
  
 ---------------------------------------------------------------
 Warning -- This program may not be used in any manner that
 competes with the business of Gaussian, Inc. or will provide
 assistance to any competitor of Gaussian, Inc.  The licensee
 of this program is prohibited from giving any competitor of
 Gaussian, Inc. access to this program.  By using this program,
 the user acknowledges that Gaussian, Inc. is engaged in the
 business of creating and licensing software in the field of
 computational chemistry and represents and warrants to the
 licensee that it is not a competitor of Gaussian, Inc. and that
 it will not use this program in any manner prohibited above.
 ---------------------------------------------------------------
  

 Cite this work as:
 Gaussian 16, Revision A.03,
 M. J. Frisch, G. W. Trucks, H. B. Schlegel, G. E. Scuseria, 
 M. A. Robb, J. R. Cheeseman, G. Scalmani, V. Barone, 
 G. A. Petersson, H. Nakatsuji, X. Li, M. Caricato, A. V. Marenich, 
 J. Bloino, B. G. Janesko, R. Gomperts, B. Mennucci, H. P. Hratchian, 
 J. V. Ortiz, A. F. Izmaylov, J. L. Sonnenberg, D. Williams-Young, 
 F. Ding, F. Lipparini, F. Egidi, J. Goings, B. Peng, A. Petrone, 
 T. Henderson, D. Ranasinghe, V. G. Zakrzewski, J. Gao, N. Rega, 
 G. Zheng, W. Liang, M. Hada, M. Ehara, K. Toyota, R. Fukuda, 
 J. Hasegawa, M. Ishida, T. Nakajima, Y. Honda, O. Kitao, H. Nakai, 
 T. Vreven, K. Throssell, J. A. Montgomery, Jr., J. E. Peralta, 
 F. Ogliaro, M. J. Bearpark, J. J. Heyd, E. N. Brothers, K. N. Kudin, 
 V. N. Staroverov, T. A. Keith, R. Kobayashi, J. Normand, 
 K. Raghavachari, A. P. Rendell, J. C. Burant, S. S. Iyengar, 
 J. Tomasi, M. Cossi, J. M. Millam, M. Klene, C. Adamo, R. Cammi, 
 J. W. Ochterski, R. L. Martin, K. Morokuma, O. Farkas, 
 J. B. Foresman, and D. J. Fox, Gaussian, Inc., Wallingford CT, 2016.
 
 ******************************************
 Gaussian 16:  ES64L-G16RevA.03 25-Dec-2016
                 4-Apr-2018 
 ******************************************
 %chk=C_bigbasis
 ------------------------------------------------------
 #p HF/aug-cc-pVQZ pop=full iop(3/33=1,3/36=-1) gfinput
 ------------------------------------------------------
 1/38=1,172=1/1;
 2/12=2,17=6,18=5,40=1/2;
 3/5=16,6=2,7=10,11=9,24=10,25=1,30=1,33=1,36=-1/1,2,3;
 4//1;
 5/5=2,38=5/2;
 6/7=3,28=1/1;
 99/5=1,9=1/99;
 Leave Link    1 at Wed Apr  4 10:18:37 2018, MaxMem=           0 cpu:               0.0 elap:               0.1
 (Enter /software/Gaussian16/g16_sse4/g16/l101.exe)
 -------------------
 Title card required
 -------------------
 Symbolic Z-matrix:
 Charge =  0 Multiplicity = 1
 C                     0.        0.        0. 
 
 ITRead=  0
 MicOpt= -1
 NAtoms=      1 NQM=        1 NQMF=       0 NMMI=      0 NMMIF=      0
                NMic=       0 NMicF=      0.
                    Isotopes and Nuclear Properties:
 (Nuclear quadrupole moments (NQMom) in fm**2, nuclear magnetic moments (NMagM)
  in nuclear magnetons)

  Atom         1
 IAtWgt=          12
 AtmWgt=  12.0000000
 NucSpn=           0
 AtZEff=  -0.0000000
 NQMom=    0.0000000
 NMagM=    0.0000000
 AtZNuc=   6.0000000
 Leave Link  101 at Wed Apr  4 10:18:37 2018, MaxMem=   104857600 cpu:               0.1 elap:               0.1
 (Enter /software/Gaussian16/g16_sse4/g16/l202.exe)
                          Input orientation:                          
 ---------------------------------------------------------------------
 Center     Atomic      Atomic             Coordinates (Angstroms)
 Number     Number       Type             X           Y           Z
 ---------------------------------------------------------------------
      1          6           0        0.000000    0.000000    0.000000
 ---------------------------------------------------------------------
 Stoichiometry    C
 Framework group  OH[O(C)]
 Deg. of freedom     0
 Full point group                 OH      NOp  48
 Largest Abelian subgroup         D2H     NOp   8
 Largest concise Abelian subgroup C1      NOp   1
                         Standard orientation:                         
 ---------------------------------------------------------------------
 Center     Atomic      Atomic             Coordinates (Angstroms)
 Number     Number       Type             X           Y           Z
 ---------------------------------------------------------------------
      1          6           0        0.000000    0.000000    0.000000
 ---------------------------------------------------------------------
 Leave Link  202 at Wed Apr  4 10:18:37 2018, MaxMem=   104857600 cpu:               0.0 elap:               0.0
 (Enter /software/Gaussian16/g16_sse4/g16/l301.exe)
 Standard basis: Aug-CC-pVQZ (5D, 7F)
                         Coordinates in L301:                         
 ---------------------------------------------------------------------
 Center     Atomic      Atomic             Coordinates (Angstroms)
 Number     Number       Type             X           Y           Z
 ---------------------------------------------------------------------
      1          6           0        0.000000    0.000000    0.000000
 ---------------------------------------------------------------------
 FixB: optimizing general contractions.
 Ernie: Thresh=  0.10000D-02 Tol=  0.10000D-05 Strict=F.
 IA=     1 ShT= 0 ShC= 0 NL=   6 NS=   4.
 IA=     1 L=0 SC=0 ISt=    1 NBk=    2 NP=    9 IndPr=    0.
 DoElim1:  L=0 select primitive    3 from    2 using    1 C= 3.69D-03
 DoElim2:  L=0 select primitive    9 from    1 using    2 C=-7.19D-02
 Delete L=0 primitive    3 from    2 C=  0.00D+00.
 Delete L=0 primitive    1 from    2 C=  3.43D-07.
 Delete L=0 primitive    9 from    1 C=  0.00D+00.
 IA=     1 L=0 SC=0 ISt=    0 NBk=    0 NP=    0 IndPr=   15.
 IA=     1 ShT= 1 ShC= 1 NL=   5 NS=   4.
 IA=     1 L=1 SC=1 ISt=    0 NBk=    0 NP=    0 IndPr=    0.
 IA=     1 ShT= 2 ShC= 2 NL=   4 NS=   4.
 IA=     1 L=2 SC=2 ISt=    0 NBk=    0 NP=    0 IndPr=    0.
 IA=     1 ShT= 3 ShC= 3 NL=   3 NS=   3.
 IA=     1 L=3 SC=3 ISt=    0 NBk=    0 NP=    0 IndPr=    0.
 IA=     1 ShT= 4 ShC= 4 NL=   2 NS=   2.
 IA=     1 L=4 SC=4 ISt=    0 NBk=    0 NP=    0 IndPr=    0.
 Ernie:  3 primitive shells out of 38 were deleted.
 AO basis set in the form of general basis input (Overlap normalization):
      1 0
 S   8 1.00       0.000000000000
      0.3398000000D+05  0.1468124114D-03
      0.5089000000D+04  0.1116460016D-02
      0.1157000000D+04  0.5890887108D-02
      0.3266000000D+03  0.2421725547D-01
      0.1061000000D+03  0.8317163879D-01
      0.3811000000D+02  0.2205684777D+00
      0.1475000000D+02  0.4287314969D+00
      0.6035000000D+01  0.3643614225D+00
 S   7 1.00       0.000000000000
      0.5089000000D+04 -0.1002265364D-04
      0.3266000000D+03 -0.4365894368D-03
      0.1061000000D+03 -0.1932312730D-02
      0.3811000000D+02 -0.2148394772D-01
      0.1475000000D+02 -0.9030916566D-01
      0.6035000000D+01 -0.4187915117D+00
      0.2530000000D+01 -0.5318019058D+00
 S   1 1.00       0.000000000000
      0.7355000000D+00  0.1000000000D+01
 S   1 1.00       0.000000000000
      0.2905000000D+00  0.1000000000D+01
 S   1 1.00       0.000000000000
      0.1111000000D+00  0.1000000000D+01
 S   1 1.00       0.000000000000
      0.4145000000D-01  0.1000000000D+01
 P   3 1.00       0.000000000000
      0.3451000000D+02  0.3168785521D-01
      0.7915000000D+01  0.2128943073D+00
      0.2368000000D+01  0.8395867520D+00
 P   1 1.00       0.000000000000
      0.8132000000D+00  0.1000000000D+01
 P   1 1.00       0.000000000000
      0.2890000000D+00  0.1000000000D+01
 P   1 1.00       0.000000000000
      0.1007000000D+00  0.1000000000D+01
 P   1 1.00       0.000000000000
      0.3218000000D-01  0.1000000000D+01
 D   1 1.00       0.000000000000
      0.1848000000D+01  0.1000000000D+01
 D   1 1.00       0.000000000000
      0.6490000000D+00  0.1000000000D+01
 D   1 1.00       0.000000000000
      0.2280000000D+00  0.1000000000D+01
 D   1 1.00       0.000000000000
      0.7660000000D-01  0.1000000000D+01
 F   1 1.00       0.000000000000
      0.1419000000D+01  0.1000000000D+01
 F   1 1.00       0.000000000000
      0.4850000000D+00  0.1000000000D+01
 F   1 1.00       0.000000000000
      0.1870000000D+00  0.1000000000D+01
 G   1 1.00       0.000000000000
      0.1011000000D+01  0.1000000000D+01
 G   1 1.00       0.000000000000
      0.4240000000D+00  0.1000000000D+01
 ****

 LdAtmC:  AtmChg=     6.000000
 AtZEff=     -3.6000000
 NEqShl: 
              1            2            3            4            5
     1            1            1            1            1            1
     2            2            2            2            2            2
     3            3            3            3            3            3
     4            4            4            4            4            4
     5            5            5            5            5            5
     6            6            6            6            6            6
     7            7            7            7            7            7
     8            8            8            8            8            8
     9            9            9            9            9            9
    10           10           10           10           10           10
    11           11           11           11           11           11
    12           12           12           12           12           12
    13           13           13           13           13           13
    14           14           14           14           14           14
    15           15           15           15           15           15
    16           16           16           16           16           16
    17           17           17           17           17           17
    18           18           18           18           18           18
    19           19           19           19           19           19
    20           20           20           20           20           20
              6            7            8            9           10
     1            1            1            1            1            1
     2            2            2            2            2            2
     3            3            3            3            3            3
     4            4            4            4            4            4
     5            5            5            5            5            5
     6            6            6            6            6            6
     7            7            7            7            7            7
     8            8            8            8            8            8
     9            9            9            9            9            9
    10           10           10           10           10           10
    11           11           11           11           11           11
    12           12           12           12           12           12
    13           13           13           13           13           13
    14           14           14           14           14           14
    15           15           15           15           15           15
    16           16           16           16           16           16
    17           17           17           17           17           17
    18           18           18           18           18           18
    19           19           19           19           19           19
    20           20           20           20           20           20
             11           12           13           14           15
     1            1            1            1            1            1
     2            2            2            2            2            2
     3            3            3            3            3            3
     4            4            4            4            4            4
     5            5            5            5            5            5
     6            6            6            6            6            6
     7            7            7            7            7            7
     8            8            8            8            8            8
     9            9            9            9            9            9
    10           10           10           10           10           10
    11           11           11           11           11           11
    12           12           12           12           12           12
    13           13           13           13           13           13
    14           14           14           14           14           14
    15           15           15           15           15           15
    16           16           16           16           16           16
    17           17           17           17           17           17
    18           18           18           18           18           18
    19           19           19           19           19           19
    20           20           20           20           20           20
             16           17           18           19           20
     1            1            1            1            1            1
     2            2            2            2            2            2
     3            3            3            3            3            3
     4            4            4            4            4            4
     5            5            5            5            5            5
     6            6            6            6            6            6
     7            7            7            7            7            7
     8            8            8            8            8            8
     9            9            9            9            9            9
    10           10           10           10           10           10
    11           11           11           11           11           11
    12           12           12           12           12           12
    13           13           13           13           13           13
    14           14           14           14           14           14
    15           15           15           15           15           15
    16           16           16           16           16           16
    17           17           17           17           17           17
    18           18           18           18           18           18
    19           19           19           19           19           19
    20           20           20           20           20           20
             21           22           23           24           25
     1            1            1            1            1            1
     2            2            2            2            2            2
     3            3            3            3            3            3
     4            4            4            4            4            4
     5            5            5            5            5            5
     6            6            6            6            6            6
     7            7            7            7            7            7
     8            8            8            8            8            8
     9            9            9            9            9            9
    10           10           10           10           10           10
    11           11           11           11           11           11
    12           12           12           12           12           12
    13           13           13           13           13           13
    14           14           14           14           14           14
    15           15           15           15           15           15
    16           16           16           16           16           16
    17           17           17           17           17           17
    18           18           18           18           18           18
    19           19           19           19           19           19
    20           20           20           20           20           20
             26           27           28           29           30
     1            1            1            1            1            1
     2            2            2            2            2            2
     3            3            3            3            3            3
     4            4            4            4            4            4
     5            5            5            5            5            5
     6            6            6            6            6            6
     7            7            7            7            7            7
     8            8            8            8            8            8
     9            9            9            9            9            9
    10           10           10           10           10           10
    11           11           11           11           11           11
    12           12           12           12           12           12
    13           13           13           13           13           13
    14           14           14           14           14           14
    15           15           15           15           15           15
    16           16           16           16           16           16
    17           17           17           17           17           17
    18           18           18           18           18           18
    19           19           19           19           19           19
    20           20           20           20           20           20
             31           32           33           34           35
     1            1            1            1            1            1
     2            2            2            2            2            2
     3            3            3            3            3            3
     4            4            4            4            4            4
     5            5            5            5            5            5
     6            6            6            6            6            6
     7            7            7            7            7            7
     8            8            8            8            8            8
     9            9            9            9            9            9
    10           10           10           10           10           10
    11           11           11           11           11           11
    12           12           12           12           12           12
    13           13           13           13           13           13
    14           14           14           14           14           14
    15           15           15           15           15           15
    16           16           16           16           16           16
    17           17           17           17           17           17
    18           18           18           18           18           18
    19           19           19           19           19           19
    20           20           20           20           20           20
             36           37           38           39           40
     1            1            1            1            1            1
     2            2            2            2            2            2
     3            3            3            3            3            3
     4            4            4            4            4            4
     5            5            5            5            5            5
     6            6            6            6            6            6
     7            7            7            7            7            7
     8            8            8            8            8            8
     9            9            9            9            9            9
    10           10           10           10           10           10
    11           11           11           11           11           11
    12           12           12           12           12           12
    13           13           13           13           13           13
    14           14           14           14           14           14
    15           15           15           15           15           15
    16           16           16           16           16           16
    17           17           17           17           17           17
    18           18           18           18           18           18
    19           19           19           19           19           19
    20           20           20           20           20           20
             41           42           43           44           45
     1            1            1            1            1            1
     2            2            2            2            2            2
     3            3            3            3            3            3
     4            4            4            4            4            4
     5            5            5            5            5            5
     6            6            6            6            6            6
     7            7            7            7            7            7
     8            8            8            8            8            8
     9            9            9            9            9            9
    10           10           10           10           10           10
    11           11           11           11           11           11
    12           12           12           12           12           12
    13           13           13           13           13           13
    14           14           14           14           14           14
    15           15           15           15           15           15
    16           16           16           16           16           16
    17           17           17           17           17           17
    18           18           18           18           18           18
    19           19           19           19           19           19
    20           20           20           20           20           20
             46           47           48
     1            1            1            1
     2            2            2            2
     3            3            3            3
     4            4            4            4
     5            5            5            5
     6            6            6            6
     7            7            7            7
     8            8            8            8
     9            9            9            9
    10           10           10           10
    11           11           11           11
    12           12           12           12
    13           13           13           13
    14           14           14           14
    15           15           15           15
    16           16           16           16
    17           17           17           17
    18           18           18           18
    19           19           19           19
    20           20           20           20
 NEqBas: 
              1            2            3            4            5
     1            1            1            1            1            1
     2            2            2            2            2            2
     3            3            3            3            3            3
     4            4            4            4            4            4
     5            5            5            5            5            5
     6            6            6            6            6            6
     7            7            7           -7           -7           -7
     8            8           -8            8           -8           -8
     9            9           -9           -9            9           -9
    10           10           10          -10          -10          -10
    11           11          -11           11          -11          -11
    12           12          -12          -12           12          -12
    13           13           13          -13          -13          -13
    14           14          -14           14          -14          -14
    15           15          -15          -15           15          -15
    16           16           16          -16          -16          -16
    17           17          -17           17          -17          -17
    18           18          -18          -18           18          -18
    19           19           19          -19          -19          -19
    20           20          -20           20          -20          -20
    21           21          -21          -21           21          -21
    22           22           22           22           22           22
    23           23           23           23           23           23
    24           24           24           24           24           24
    25           25          -25          -25           25           25
    26           26          -26           26          -26           26
    27           27           27          -27          -27           27
    28           28           28           28           28           28
    29           29           29           29           29           29
    30           30           30           30           30           30
    31           31          -31          -31           31           31
    32           32          -32           32          -32           32
    33           33           33          -33          -33           33
    34           34           34           34           34           34
    35           35           35           35           35           35
    36           36           36           36           36           36
    37           37          -37          -37           37           37
    38           38          -38           38          -38           38
    39           39           39          -39          -39           39
    40           40           40           40           40           40
    41           41           41           41           41           41
    42           42           42           42           42           42
    43           43          -43          -43           43           43
    44           44          -44           44          -44           44
    45           45           45          -45          -45           45
    46           46           46          -46          -46          -46
    47           47          -47           47          -47          -47
    48           48          -48          -48           48          -48
    49           49           49          -49          -49          -49
    50           50          -50           50          -50          -50
    51           51          -51          -51           51          -51
    52           52           52          -52          -52          -52
    53           53          -53           53          -53          -53
    54           54          -54          -54           54          -54
    55           55           55           55           55          -55
    56           56           56          -56          -56          -56
    57           57          -57           57          -57          -57
    58           58          -58          -58           58          -58
    59           59           59          -59          -59          -59
    60           60          -60           60          -60          -60
    61           61          -61          -61           61          -61
    62           62           62          -62          -62          -62
    63           63          -63           63          -63          -63
    64           64          -64          -64           64          -64
    65           65           65           65           65          -65
    66           66           66          -66          -66          -66
    67           67          -67           67          -67          -67
    68           68          -68          -68           68          -68
    69           69           69          -69          -69          -69
    70           70          -70           70          -70          -70
    71           71          -71          -71           71          -71
    72           72           72          -72          -72          -72
    73           73          -73           73          -73          -73
    74           74          -74          -74           74          -74
    75           75           75           75           75          -75
    76           76           76           76           76           76
    77           77           77          -77          -77           77
    78           78           78           78           78           78
    79           79           79          -79          -79           79
    80           80           80           80           80           80
    81           81          -81           81          -81           81
    82           82          -82          -82           82           82
    83           83          -83           83          -83           83
    84           84          -84          -84           84           84
    85           85           85           85           85           85
    86           86           86          -86          -86           86
    87           87           87           87           87           87
    88           88          -88           88          -88           88
    89           89          -89          -89           89           89
    90           90           90           90           90           90
    91           91           91           91           91           91
    92           92           92          -92          -92           92
    93           93           93           93           93           93
    94           94           94          -94          -94           94
    95           95           95           95           95           95
    96           96          -96           96          -96           96
    97           97          -97          -97           97           97
    98           98          -98           98          -98           98
    99           99          -99          -99           99           99
   100          100          100          100          100          100
   101          101          101         -101         -101          101
   102          102          102          102          102          102
   103          103         -103          103         -103          103
   104          104         -104         -104          104          104
   105          105          105          105          105          105
              6            7            8
     1            1            1            1
     2            2            2            2
     3            3            3            3
     4            4            4            4
     5            5            5            5
     6            6            6            6
     7           -7            7            7
     8            8           -8            8
     9            9            9           -9
    10          -10           10           10
    11           11          -11           11
    12           12           12          -12
    13          -13           13           13
    14           14          -14           14
    15           15           15          -15
    16          -16           16           16
    17           17          -17           17
    18           18           18          -18
    19          -19           19           19
    20           20          -20           20
    21           21           21          -21
    22           22           22           22
    23           23           23           23
    24           24           24           24
    25          -25          -25           25
    26          -26           26          -26
    27           27          -27          -27
    28           28           28           28
    29           29           29           29
    30           30           30           30
    31          -31          -31           31
    32          -32           32          -32
    33           33          -33          -33
    34           34           34           34
    35           35           35           35
    36           36           36           36
    37          -37          -37           37
    38          -38           38          -38
    39           39          -39          -39
    40           40           40           40
    41           41           41           41
    42           42           42           42
    43          -43          -43           43
    44          -44           44          -44
    45           45          -45          -45
    46          -46           46           46
    47           47          -47           47
    48           48           48          -48
    49          -49           49           49
    50           50          -50           50
    51           51           51          -51
    52          -52           52           52
    53           53          -53           53
    54           54           54          -54
    55          -55          -55          -55
    56          -56           56           56
    57           57          -57           57
    58           58           58          -58
    59          -59           59           59
    60           60          -60           60
    61           61           61          -61
    62          -62           62           62
    63           63          -63           63
    64           64           64          -64
    65          -65          -65          -65
    66          -66           66           66
    67           67          -67           67
    68           68           68          -68
    69          -69           69           69
    70           70          -70           70
    71           71           71          -71
    72          -72           72           72
    73           73          -73           73
    74           74           74          -74
    75          -75          -75          -75
    76           76           76           76
    77           77          -77          -77
    78           78           78           78
    79           79          -79          -79
    80           80           80           80
    81          -81           81          -81
    82          -82          -82           82
    83          -83           83          -83
    84          -84          -84           84
    85           85           85           85
    86           86          -86          -86
    87           87           87           87
    88          -88           88          -88
    89          -89          -89           89
    90           90           90           90
    91           91           91           91
    92           92          -92          -92
    93           93           93           93
    94           94          -94          -94
    95           95           95           95
    96          -96           96          -96
    97          -97          -97           97
    98          -98           98          -98
    99          -99          -99           99
   100          100          100          100
   101          101         -101         -101
   102          102          102          102
   103         -103          103         -103
   104         -104         -104          104
   105          105          105          105
 There are    30 symmetry adapted cartesian basis functions of AG  symmetry.
   1         1   1   1   1   1   1   1   1
   2         2   2   2   2   2   2   2   2
   3         3   3   3   3   3   3   3   3
   4         4   4   4   4   4   4   4   4
   5         5   5   5   5   5   5   5   5
   6         6   6   6   6   6   6   6   6
   7        22  22  22  22  22  22  22  22
   8        23  23  23  23  23  23  23  23
   9        24  24  24  24  24  24  24  24
  10        28  28  28  28  28  28  28  28
  11        29  29  29  29  29  29  29  29
  12        30  30  30  30  30  30  30  30
  13        34  34  34  34  34  34  34  34
  14        35  35  35  35  35  35  35  35
  15        36  36  36  36  36  36  36  36
  16        40  40  40  40  40  40  40  40
  17        41  41  41  41  41  41  41  41
  18        42  42  42  42  42  42  42  42
  19        76  76  76  76  76  76  76  76
  20        78  78  78  78  78  78  78  78
  21        80  80  80  80  80  80  80  80
  22        85  85  85  85  85  85  85  85
  23        87  87  87  87  87  87  87  87
  24        90  90  90  90  90  90  90  90
  25        91  91  91  91  91  91  91  91
  26        93  93  93  93  93  93  93  93
  27        95  95  95  95  95  95  95  95
  28       100 100 100 100 100 100 100 100
  29       102 102 102 102 102 102 102 102
  30       105 105 105 105 105 105 105 105
 There are    10 symmetry adapted cartesian basis functions of B1G symmetry.
  31        25  25  25  25  25  25  25  25
  32        31  31  31  31  31  31  31  31
  33        37  37  37  37  37  37  37  37
  34        43  43  43  43  43  43  43  43
  35        82  82  82  82  82  82  82  82
  36        84  84  84  84  84  84  84  84
  37        89  89  89  89  89  89  89  89
  38        97  97  97  97  97  97  97  97
  39        99  99  99  99  99  99  99  99
  40       104 104 104 104 104 104 104 104
 There are    10 symmetry adapted cartesian basis functions of B2G symmetry.
  41        26  26  26  26  26  26  26  26
  42        32  32  32  32  32  32  32  32
  43        38  38  38  38  38  38  38  38
  44        44  44  44  44  44  44  44  44
  45        81  81  81  81  81  81  81  81
  46        83  83  83  83  83  83  83  83
  47        88  88  88  88  88  88  88  88
  48        96  96  96  96  96  96  96  96
  49        98  98  98  98  98  98  98  98
  50       103 103 103 103 103 103 103 103
 There are    10 symmetry adapted cartesian basis functions of B3G symmetry.
  51        27  27  27  27  27  27  27  27
  52        33  33  33  33  33  33  33  33
  53        39  39  39  39  39  39  39  39
  54        45  45  45  45  45  45  45  45
  55        77  77  77  77  77  77  77  77
  56        79  79  79  79  79  79  79  79
  57        86  86  86  86  86  86  86  86
  58        92  92  92  92  92  92  92  92
  59        94  94  94  94  94  94  94  94
  60       101 101 101 101 101 101 101 101
 There are     3 symmetry adapted cartesian basis functions of AU  symmetry.
  61        55  55  55  55  55  55  55  55
  62        65  65  65  65  65  65  65  65
  63        75  75  75  75  75  75  75  75
 There are    14 symmetry adapted cartesian basis functions of B1U symmetry.
  64         9   9   9   9   9   9   9   9
  65        12  12  12  12  12  12  12  12
  66        15  15  15  15  15  15  15  15
  67        18  18  18  18  18  18  18  18
  68        21  21  21  21  21  21  21  21
  69        48  48  48  48  48  48  48  48
  70        51  51  51  51  51  51  51  51
  71        54  54  54  54  54  54  54  54
  72        58  58  58  58  58  58  58  58
  73        61  61  61  61  61  61  61  61
  74        64  64  64  64  64  64  64  64
  75        68  68  68  68  68  68  68  68
  76        71  71  71  71  71  71  71  71
  77        74  74  74  74  74  74  74  74
 There are    14 symmetry adapted cartesian basis functions of B2U symmetry.
  78         8   8   8   8   8   8   8   8
  79        11  11  11  11  11  11  11  11
  80        14  14  14  14  14  14  14  14
  81        17  17  17  17  17  17  17  17
  82        20  20  20  20  20  20  20  20
  83        47  47  47  47  47  47  47  47
  84        50  50  50  50  50  50  50  50
  85        53  53  53  53  53  53  53  53
  86        57  57  57  57  57  57  57  57
  87        60  60  60  60  60  60  60  60
  88        63  63  63  63  63  63  63  63
  89        67  67  67  67  67  67  67  67
  90        70  70  70  70  70  70  70  70
  91        73  73  73  73  73  73  73  73
 There are    14 symmetry adapted cartesian basis functions of B3U symmetry.
  92         7   7   7   7   7   7   7   7
  93        10  10  10  10  10  10  10  10
  94        13  13  13  13  13  13  13  13
  95        16  16  16  16  16  16  16  16
  96        19  19  19  19  19  19  19  19
  97        46  46  46  46  46  46  46  46
  98        49  49  49  49  49  49  49  49
  99        52  52  52  52  52  52  52  52
 100        56  56  56  56  56  56  56  56
 101        59  59  59  59  59  59  59  59
 102        62  62  62  62  62  62  62  62
 103        66  66  66  66  66  66  66  66
 104        69  69  69  69  69  69  69  69
 105        72  72  72  72  72  72  72  72
 Order= 1 4 3 2 5 8 7 6
 Reordered character table:
              1            2            3            4            5
     1            1            1            1            1            1
     2            4            1           -1           -1            1
     3            3            1           -1            1           -1
     4            2            1            1           -1           -1
     5            5            1            1            1            1
     6            8            1           -1           -1            1
     7            7            1           -1            1           -1
     8            6            1            1           -1           -1
              6            7            8            9
     1            1            1            1            1
     2            1           -1           -1            1
     3            1           -1            1           -1
     4            1            1           -1           -1
     5           -1           -1           -1           -1
     6           -1            1            1           -1
     7           -1            1           -1            1
     8           -1           -1            1            1
 NEqShl: 
              1            2            3            4            5
     1            1            1            1            1            1
     2            2            2            2            2            2
     3            3            3            3            3            3
     4            4            4            4            4            4
     5            5            5            5            5            5
     6            6            6            6            6            6
     7            7            7            7            7            7
     8            8            8            8            8            8
     9            9            9            9            9            9
    10           10           10           10           10           10
    11           11           11           11           11           11
    12           12           12           12           12           12
    13           13           13           13           13           13
    14           14           14           14           14           14
    15           15           15           15           15           15
    16           16           16           16           16           16
    17           17           17           17           17           17
    18           18           18           18           18           18
    19           19           19           19           19           19
    20           20           20           20           20           20
              6            7            8            9           10
     1            1            1            1            1            1
     2            2            2            2            2            2
     3            3            3            3            3            3
     4            4            4            4            4            4
     5            5            5            5            5            5
     6            6            6            6            6            6
     7            7            7            7            7            7
     8            8            8            8            8            8
     9            9            9            9            9            9
    10           10           10           10           10           10
    11           11           11           11           11           11
    12           12           12           12           12           12
    13           13           13           13           13           13
    14           14           14           14           14           14
    15           15           15           15           15           15
    16           16           16           16           16           16
    17           17           17           17           17           17
    18           18           18           18           18           18
    19           19           19           19           19           19
    20           20           20           20           20           20
             11           12           13           14           15
     1            1            1            1            1            1
     2            2            2            2            2            2
     3            3            3            3            3            3
     4            4            4            4            4            4
     5            5            5            5            5            5
     6            6            6            6            6            6
     7            7            7            7            7            7
     8            8            8            8            8            8
     9            9            9            9            9            9
    10           10           10           10           10           10
    11           11           11           11           11           11
    12           12           12           12           12           12
    13           13           13           13           13           13
    14           14           14           14           14           14
    15           15           15           15           15           15
    16           16           16           16           16           16
    17           17           17           17           17           17
    18           18           18           18           18           18
    19           19           19           19           19           19
    20           20           20           20           20           20
             16           17           18           19           20
     1            1            1            1            1            1
     2            2            2            2            2            2
     3            3            3            3            3            3
     4            4            4            4            4            4
     5            5            5            5            5            5
     6            6            6            6            6            6
     7            7            7            7            7            7
     8            8            8            8            8            8
     9            9            9            9            9            9
    10           10           10           10           10           10
    11           11           11           11           11           11
    12           12           12           12           12           12
    13           13           13           13           13           13
    14           14           14           14           14           14
    15           15           15           15           15           15
    16           16           16           16           16           16
    17           17           17           17           17           17
    18           18           18           18           18           18
    19           19           19           19           19           19
    20           20           20           20           20           20
             21           22           23           24           25
     1            1            1            1            1            1
     2            2            2            2            2            2
     3            3            3            3            3            3
     4            4            4            4            4            4
     5            5            5            5            5            5
     6            6            6            6            6            6
     7            7            7            7            7            7
     8            8            8            8            8            8
     9            9            9            9            9            9
    10           10           10           10           10           10
    11           11           11           11           11           11
    12           12           12           12           12           12
    13           13           13           13           13           13
    14           14           14           14           14           14
    15           15           15           15           15           15
    16           16           16           16           16           16
    17           17           17           17           17           17
    18           18           18           18           18           18
    19           19           19           19           19           19
    20           20           20           20           20           20
             26           27           28           29           30
     1            1            1            1            1            1
     2            2            2            2            2            2
     3            3            3            3            3            3
     4            4            4            4            4            4
     5            5            5            5            5            5
     6            6            6            6            6            6
     7            7            7            7            7            7
     8            8            8            8            8            8
     9            9            9            9            9            9
    10           10           10           10           10           10
    11           11           11           11           11           11
    12           12           12           12           12           12
    13           13           13           13           13           13
    14           14           14           14           14           14
    15           15           15           15           15           15
    16           16           16           16           16           16
    17           17           17           17           17           17
    18           18           18           18           18           18
    19           19           19           19           19           19
    20           20           20           20           20           20
             31           32           33           34           35
     1            1            1            1            1            1
     2            2            2            2            2            2
     3            3            3            3            3            3
     4            4            4            4            4            4
     5            5            5            5            5            5
     6            6            6            6            6            6
     7            7            7            7            7            7
     8            8            8            8            8            8
     9            9            9            9            9            9
    10           10           10           10           10           10
    11           11           11           11           11           11
    12           12           12           12           12           12
    13           13           13           13           13           13
    14           14           14           14           14           14
    15           15           15           15           15           15
    16           16           16           16           16           16
    17           17           17           17           17           17
    18           18           18           18           18           18
    19           19           19           19           19           19
    20           20           20           20           20           20
             36           37           38           39           40
     1            1            1            1            1            1
     2            2            2            2            2            2
     3            3            3            3            3            3
     4            4            4            4            4            4
     5            5            5            5            5            5
     6            6            6            6            6            6
     7            7            7            7            7            7
     8            8            8            8            8            8
     9            9            9            9            9            9
    10           10           10           10           10           10
    11           11           11           11           11           11
    12           12           12           12           12           12
    13           13           13           13           13           13
    14           14           14           14           14           14
    15           15           15           15           15           15
    16           16           16           16           16           16
    17           17           17           17           17           17
    18           18           18           18           18           18
    19           19           19           19           19           19
    20           20           20           20           20           20
             41           42           43           44           45
     1            1            1            1            1            1
     2            2            2            2            2            2
     3            3            3            3            3            3
     4            4            4            4            4            4
     5            5            5            5            5            5
     6            6            6            6            6            6
     7            7            7            7            7            7
     8            8            8            8            8            8
     9            9            9            9            9            9
    10           10           10           10           10           10
    11           11           11           11           11           11
    12           12           12           12           12           12
    13           13           13           13           13           13
    14           14           14           14           14           14
    15           15           15           15           15           15
    16           16           16           16           16           16
    17           17           17           17           17           17
    18           18           18           18           18           18
    19           19           19           19           19           19
    20           20           20           20           20           20
             46           47           48
     1            1            1            1
     2            2            2            2
     3            3            3            3
     4            4            4            4
     5            5            5            5
     6            6            6            6
     7            7            7            7
     8            8            8            8
     9            9            9            9
    10           10           10           10
    11           11           11           11
    12           12           12           12
    13           13           13           13
    14           14           14           14
    15           15           15           15
    16           16           16           16
    17           17           17           17
    18           18           18           18
    19           19           19           19
    20           20           20           20
 NEqBas: 
              1            2            3            4            5
     1            1            1            1            1            1
     2            2            2            2            2            2
     3            3            3            3            3            3
     4            4            4            4            4            4
     5            5            5            5            5            5
     6            6            6            6            6            6
     7            7            7           -7           -7           -7
     8            8           -8            8           -8           -8
     9            9           -9           -9            9           -9
    10           10           10          -10          -10          -10
    11           11          -11           11          -11          -11
    12           12          -12          -12           12          -12
    13           13           13          -13          -13          -13
    14           14          -14           14          -14          -14
    15           15          -15          -15           15          -15
    16           16           16          -16          -16          -16
    17           17          -17           17          -17          -17
    18           18          -18          -18           18          -18
    19           19           19          -19          -19          -19
    20           20          -20           20          -20          -20
    21           21          -21          -21           21          -21
    22           22           22           22           22           22
    23           23          -23           23          -23           23
    24           24           24          -24          -24           24
    25           25           25           25           25           25
    26           26          -26          -26           26           26
    27           27           27           27           27           27
    28           28          -28           28          -28           28
    29           29           29          -29          -29           29
    30           30           30           30           30           30
    31           31          -31          -31           31           31
    32           32           32           32           32           32
    33           33          -33           33          -33           33
    34           34           34          -34          -34           34
    35           35           35           35           35           35
    36           36          -36          -36           36           36
    37           37           37           37           37           37
    38           38          -38           38          -38           38
    39           39           39          -39          -39           39
    40           40           40           40           40           40
    41           41          -41          -41           41           41
    42           42          -42          -42           42          -42
    43           43           43          -43          -43          -43
    44           44          -44           44          -44          -44
    45           45          -45          -45           45          -45
    46           46           46           46           46          -46
    47           47           47          -47          -47          -47
    48           48          -48           48          -48          -48
    49           49          -49          -49           49          -49
    50           50           50          -50          -50          -50
    51           51          -51           51          -51          -51
    52           52          -52          -52           52          -52
    53           53           53           53           53          -53
    54           54           54          -54          -54          -54
    55           55          -55           55          -55          -55
    56           56          -56          -56           56          -56
    57           57           57          -57          -57          -57
    58           58          -58           58          -58          -58
    59           59          -59          -59           59          -59
    60           60           60           60           60          -60
    61           61           61          -61          -61          -61
    62           62          -62           62          -62          -62
    63           63           63           63           63           63
    64           64          -64           64          -64           64
    65           65           65          -65          -65           65
    66           66           66           66           66           66
    67           67          -67          -67           67           67
    68           68          -68           68          -68           68
    69           69           69          -69          -69           69
    70           70           70           70           70           70
    71           71          -71          -71           71           71
    72           72           72           72           72           72
    73           73          -73           73          -73           73
    74           74           74          -74          -74           74
    75           75           75           75           75           75
    76           76          -76          -76           76           76
    77           77          -77           77          -77           77
    78           78           78          -78          -78           78
    79           79           79           79           79           79
    80           80          -80          -80           80           80
              6            7            8
     1            1            1            1
     2            2            2            2
     3            3            3            3
     4            4            4            4
     5            5            5            5
     6            6            6            6
     7           -7            7            7
     8            8           -8            8
     9            9            9           -9
    10          -10           10           10
    11           11          -11           11
    12           12           12          -12
    13          -13           13           13
    14           14          -14           14
    15           15           15          -15
    16          -16           16           16
    17           17          -17           17
    18           18           18          -18
    19          -19           19           19
    20           20          -20           20
    21           21           21          -21
    22           22           22           22
    23          -23           23          -23
    24           24          -24          -24
    25           25           25           25
    26          -26          -26           26
    27           27           27           27
    28          -28           28          -28
    29           29          -29          -29
    30           30           30           30
    31          -31          -31           31
    32           32           32           32
    33          -33           33          -33
    34           34          -34          -34
    35           35           35           35
    36          -36          -36           36
    37           37           37           37
    38          -38           38          -38
    39           39          -39          -39
    40           40           40           40
    41          -41          -41           41
    42           42           42          -42
    43          -43           43           43
    44           44          -44           44
    45           45           45          -45
    46          -46          -46          -46
    47          -47           47           47
    48           48          -48           48
    49           49           49          -49
    50          -50           50           50
    51           51          -51           51
    52           52           52          -52
    53          -53          -53          -53
    54          -54           54           54
    55           55          -55           55
    56           56           56          -56
    57          -57           57           57
    58           58          -58           58
    59           59           59          -59
    60          -60          -60          -60
    61          -61           61           61
    62           62          -62           62
    63           63           63           63
    64          -64           64          -64
    65           65          -65          -65
    66           66           66           66
    67          -67          -67           67
    68          -68           68          -68
    69           69          -69          -69
    70           70           70           70
    71          -71          -71           71
    72           72           72           72
    73          -73           73          -73
    74           74          -74          -74
    75           75           75           75
    76          -76          -76           76
    77          -77           77          -77
    78           78          -78          -78
    79           79           79           79
    80          -80          -80           80
 There are    20 symmetry adapted basis functions of AG  symmetry.
   1         1   1   1   1   1   1   1   1
   2         2   2   2   2   2   2   2   2
   3         3   3   3   3   3   3   3   3
   4         4   4   4   4   4   4   4   4
   5         5   5   5   5   5   5   5   5
   6         6   6   6   6   6   6   6   6
   7        22  22  22  22  22  22  22  22
   8        25  25  25  25  25  25  25  25
   9        27  27  27  27  27  27  27  27
  10        30  30  30  30  30  30  30  30
  11        32  32  32  32  32  32  32  32
  12        35  35  35  35  35  35  35  35
  13        37  37  37  37  37  37  37  37
  14        40  40  40  40  40  40  40  40
  15        63  63  63  63  63  63  63  63
  16        66  66  66  66  66  66  66  66
  17        70  70  70  70  70  70  70  70
  18        72  72  72  72  72  72  72  72
  19        75  75  75  75  75  75  75  75
  20        79  79  79  79  79  79  79  79
 There are     8 symmetry adapted basis functions of B1G symmetry.
  21        26  26  26  26  26  26  26  26
  22        31  31  31  31  31  31  31  31
  23        36  36  36  36  36  36  36  36
  24        41  41  41  41  41  41  41  41
  25        67  67  67  67  67  67  67  67
  26        71  71  71  71  71  71  71  71
  27        76  76  76  76  76  76  76  76
  28        80  80  80  80  80  80  80  80
 There are     8 symmetry adapted basis functions of B2G symmetry.
  29        23  23  23  23  23  23  23  23
  30        28  28  28  28  28  28  28  28
  31        33  33  33  33  33  33  33  33
  32        38  38  38  38  38  38  38  38
  33        64  64  64  64  64  64  64  64
  34        68  68  68  68  68  68  68  68
  35        73  73  73  73  73  73  73  73
  36        77  77  77  77  77  77  77  77
 There are     8 symmetry adapted basis functions of B3G symmetry.
  37        24  24  24  24  24  24  24  24
  38        29  29  29  29  29  29  29  29
  39        34  34  34  34  34  34  34  34
  40        39  39  39  39  39  39  39  39
  41        65  65  65  65  65  65  65  65
  42        69  69  69  69  69  69  69  69
  43        74  74  74  74  74  74  74  74
  44        78  78  78  78  78  78  78  78
 There are     3 symmetry adapted basis functions of AU  symmetry.
  45        46  46  46  46  46  46  46  46
  46        53  53  53  53  53  53  53  53
  47        60  60  60  60  60  60  60  60
 There are    11 symmetry adapted basis functions of B1U symmetry.
  48         9   9   9   9   9   9   9   9
  49        12  12  12  12  12  12  12  12
  50        15  15  15  15  15  15  15  15
  51        18  18  18  18  18  18  18  18
  52        21  21  21  21  21  21  21  21
  53        42  42  42  42  42  42  42  42
  54        45  45  45  45  45  45  45  45
  55        49  49  49  49  49  49  49  49
  56        52  52  52  52  52  52  52  52
  57        56  56  56  56  56  56  56  56
  58        59  59  59  59  59  59  59  59
 There are    11 symmetry adapted basis functions of B2U symmetry.
  59         8   8   8   8   8   8   8   8
  60        11  11  11  11  11  11  11  11
  61        14  14  14  14  14  14  14  14
  62        17  17  17  17  17  17  17  17
  63        20  20  20  20  20  20  20  20
  64        44  44  44  44  44  44  44  44
  65        48  48  48  48  48  48  48  48
  66        51  51  51  51  51  51  51  51
  67        55  55  55  55  55  55  55  55
  68        58  58  58  58  58  58  58  58
  69        62  62  62  62  62  62  62  62
 There are    11 symmetry adapted basis functions of B3U symmetry.
  70         7   7   7   7   7   7   7   7
  71        10  10  10  10  10  10  10  10
  72        13  13  13  13  13  13  13  13
  73        16  16  16  16  16  16  16  16
  74        19  19  19  19  19  19  19  19
  75        43  43  43  43  43  43  43  43
  76        47  47  47  47  47  47  47  47
  77        50  50  50  50  50  50  50  50
  78        54  54  54  54  54  54  54  54
  79        57  57  57  57  57  57  57  57
  80        61  61  61  61  61  61  61  61
 Order= 1 4 3 2 5 8 7 6
 Reordered character table:
              1            2            3            4            5
     1            1            1            1            1            1
     2            4            1           -1           -1            1
     3            3            1           -1            1           -1
     4            2            1            1           -1           -1
     5            5            1            1            1            1
     6            8            1           -1           -1            1
     7            7            1           -1            1           -1
     8            6            1            1           -1           -1
              6            7            8            9
     1            1            1            1            1
     2            1           -1           -1            1
     3            1           -1            1           -1
     4            1            1           -1           -1
     5           -1           -1           -1           -1
     6           -1            1            1           -1
     7           -1            1           -1            1
     8           -1           -1            1            1
    80 basis functions,   124 primitive gaussians,   105 cartesian basis functions
     3 alpha electrons        3 beta electrons
       nuclear repulsion energy         0.0000000000 Hartrees.
 IS=     1 IAt=     1 ISR=     1 T=0 IP=      1 IndIP=      1 IndIPD=      0 C=  2.618728D-01  0.000000D+00                             NZ=T
 IS=     1 IAt=     1 ISR=     1 T=0 IP=      2 IndIP=      2 IndIPD=      1 C=  4.794326D-01  0.000000D+00                             NZ=T
 IS=     1 IAt=     1 ISR=     1 T=0 IP=      3 IndIP=      3 IndIPD=      2 C=  8.328961D-01  0.000000D+00                             NZ=T
 IS=     1 IAt=     1 ISR=     1 T=0 IP=      4 IndIP=      4 IndIPD=      3 C=  1.326011D+00  0.000000D+00                             NZ=T
 IS=     1 IAt=     1 ISR=     1 T=0 IP=      5 IndIP=      5 IndIPD=      4 C=  1.959620D+00  0.000000D+00                             NZ=T
 IS=     1 IAt=     1 ISR=     1 T=0 IP=      6 IndIP=      6 IndIPD=      5 C=  2.411197D+00  0.000000D+00                             NZ=T
 IS=     1 IAt=     1 ISR=     1 T=0 IP=      7 IndIP=      7 IndIPD=      6 C=  2.299797D+00  0.000000D+00                             NZ=T
 IS=     1 IAt=     1 ISR=     1 T=0 IP=      8 IndIP=      8 IndIPD=      7 C=  9.998859D-01  0.000000D+00                             NZ=T
 IS=     2 IAt=     1 ISR=     2 T=0 IP=      1 IndIP=      9 IndIPD=      0 C= -4.303949D-03  0.000000D+00                             NZ=T
 IS=     2 IAt=     1 ISR=     2 T=0 IP=      2 IndIP=     10 IndIPD=      1 C= -2.390537D-02  0.000000D+00                             NZ=T
 IS=     2 IAt=     1 ISR=     2 T=0 IP=      3 IndIP=     11 IndIPD=      2 C= -4.552753D-02  0.000000D+00                             NZ=T
 IS=     2 IAt=     1 ISR=     2 T=0 IP=      4 IndIP=     12 IndIPD=      3 C= -2.348569D-01  0.000000D+00                             NZ=T
 IS=     2 IAt=     1 ISR=     2 T=0 IP=      5 IndIP=     13 IndIPD=      4 C= -4.844355D-01  0.000000D+00                             NZ=T
 IS=     2 IAt=     1 ISR=     2 T=0 IP=      6 IndIP=     14 IndIPD=      5 C= -1.149254D+00  0.000000D+00                             NZ=T
 IS=     2 IAt=     1 ISR=     2 T=0 IP=      7 IndIP=     15 IndIPD=      6 C= -7.603269D-01  0.000000D+00                             NZ=T
 IS=     3 IAt=     1 ISR=     3 T=0 IP=      1 IndIP=     16 IndIPD=      0 C=  5.660400D-01  0.000000D+00                             NZ=T
 IS=     4 IAt=     1 ISR=     4 T=0 IP=      1 IndIP=     17 IndIPD=      0 C=  2.820134D-01  0.000000D+00                             NZ=T
 IS=     5 IAt=     1 ISR=     5 T=0 IP=      1 IndIP=     18 IndIPD=      0 C=  1.371499D-01  0.000000D+00                             NZ=T
 IS=     6 IAt=     1 ISR=     6 T=0 IP=      1 IndIP=     19 IndIPD=      0 C=  6.547168D-02  0.000000D+00                             NZ=T
 IS=     7 IAt=     1 ISR=     7 T=1 IP=      1 IndIP=     20 IndIPD=      0 C=  0.000000D+00  3.778019D+00                             NZ=T
 IS=     7 IAt=     1 ISR=     7 T=1 IP=      2 IndIP=     21 IndIPD=      1 C=  0.000000D+00  4.028727D+00                             NZ=T
 IS=     7 IAt=     1 ISR=     7 T=1 IP=      3 IndIP=     22 IndIPD=      2 C=  0.000000D+00  3.515465D+00                             NZ=T
 IS=     8 IAt=     1 ISR=     8 T=1 IP=      1 IndIP=     23 IndIPD=      0 C=  0.000000D+00  1.100745D+00                             NZ=T
 IS=     9 IAt=     1 ISR=     9 T=1 IP=      1 IndIP=     24 IndIPD=      0 C=  0.000000D+00  3.020386D-01                             NZ=T
 IS=    10 IAt=     1 ISR=    10 T=1 IP=      1 IndIP=     25 IndIPD=      0 C=  0.000000D+00  8.085873D-02                             NZ=T
 IS=    11 IAt=     1 ISR=    11 T=1 IP=      1 IndIP=     26 IndIPD=      0 C=  0.000000D+00  1.942776D-02                             NZ=T
 IS=    12 IAt=     1 ISR=    12 T=2 IP=      1 IndIP=     27 IndIPD=      1 C=  0.000000D+00  0.000000D+00  4.821009D+00  0.000000D+00 NZ=T
 IS=    13 IAt=     1 ISR=    13 T=2 IP=      1 IndIP=     28 IndIPD=      2 C=  0.000000D+00  0.000000D+00  7.723918D-01  0.000000D+00 NZ=T
 IS=    14 IAt=     1 ISR=    14 T=2 IP=      1 IndIP=     29 IndIPD=      3 C=  0.000000D+00  0.000000D+00  1.238213D-01  0.000000D+00 NZ=T
 IS=    15 IAt=     1 ISR=    15 T=2 IP=      1 IndIP=     30 IndIPD=      4 C=  0.000000D+00  0.000000D+00  1.835734D-02  0.000000D+00 NZ=T
 IS=    16 IAt=     1 ISR=    16 T=3 IP=      1 IndIP=     31 IndIPD=      5 C=  0.000000D+00  0.000000D+00  0.000000D+00  3.235302D+00 NZ=T
 IS=    17 IAt=     1 ISR=    17 T=3 IP=      1 IndIP=     32 IndIPD=      6 C=  0.000000D+00  0.000000D+00  0.000000D+00  2.889837D-01 NZ=T
 IS=    18 IAt=     1 ISR=    18 T=3 IP=      1 IndIP=     33 IndIPD=      7 C=  0.000000D+00  0.000000D+00  0.000000D+00  3.385307D-02 NZ=T
 IS=    19 IAt=     1 ISR=    19 T=4 IP=      1 IndIP=     34 IndIPD=      8 C=  0.000000D+00  0.000000D+00  0.000000D+00  1.146835D+00 NZ=T
 IS=    20 IAt=     1 ISR=    20 T=4 IP=      1 IndIP=     35 IndIPD=      9 C=  0.000000D+00  0.000000D+00  0.000000D+00  1.051215D-01 NZ=T
 IExCor=    0 DFT=F Ex=HF Corr=None ExCW=0 ScaHFX=  1.000000
 ScaDFX=  1.000000  1.000000  1.000000  1.000000 ScalE2=  1.000000  1.000000
 IRadAn=      5 IRanWt=     -1 IRanGd=            0 ICorTp=0 IEmpDi=  4
 NAtoms=    1 NActive=    1 NUniq=    1 SFac= 1.00D+00 NAtFMM=   60 NAOKFM=F Big=F
 Integral buffers will be    131072 words long.
 Raffenetti 1 integral format.
 Two-electron integral symmetry is turned on.
 Leave Link  301 at Wed Apr  4 10:18:37 2018, MaxMem=   104857600 cpu:               0.1 elap:               0.1
 (Enter /software/Gaussian16/g16_sse4/g16/l302.exe)
 NPDir=0 NMtPBC=     1 NCelOv=     1 NCel=       1 NClECP=     1 NCelD=      1
         NCelK=      1 NCelE2=     1 NClLst=     1 CellRange=     0.0.
 One-electron integrals computed using PRISM.
 One-electron integral symmetry used in STVInt
 Entering OneElI...
 Calculate overlap and kinetic energy integrals
    NBasis =  80  MinDer = 0  MaxDer = 0
 Requested accuracy = 0.1000D-12
 Symmetry will be used
 PrmmSu-InSpLW:  IPartL=    0 NPrtUS=    1 NPrtUL=    1 DoSpLW=F IThBeg=    0 IThEnd=    0 NThAct=    1.
 PrsmSu:  NPrtUS=   1 ThrOK=F IAlg=1 NPAlg=1 LenDen=           0 ISkipM=0 DoSpLW=F IThBeg=    0 IThEnd=    0.
 Prism:   IPart=     0 DynPar=F LinDyn=F Incr=           2.
 PRISM was handed   104799464 working-precision words and   210 shell-pairs
 IPart=  0 NShTot=         210 NBatch=          36 AvBLen=         5.8
 PrSmSu:  NxtVal=              3.
 *** Overlap *** 
                1             2             3             4             5 
      1  0.100000D+01
      2 -0.833671D+00  0.100000D+01
      3  0.335605D+00 -0.639986D+00  0.100000D+01
      4  0.179715D+00 -0.380165D+00  0.855304D+00  0.100000D+01
      5  0.901215D-01 -0.200137D+00  0.554945D+00  0.846252D+00  0.100000D+01
      6  0.435484D-01 -0.986783D-01  0.301325D+00  0.537575D+00  0.839181D+00
      7  0.000000D+00  0.000000D+00  0.000000D+00  0.000000D+00  0.000000D+00
[...]
  64       19G+1        0.00000   0.00000   0.00000   0.00000   0.00000
  65       19G-1        0.00000   0.00000   0.00000   0.00000   0.00000
  66       19G+2        0.00000   0.00000   0.00000   0.00000   0.00000
  67       19G-2        0.00000   0.00000   0.00000   0.00000   0.00000
  68       19G+3        0.00000   0.00000   0.00000   0.00000   0.00000
  69       19G-3        0.00000   0.00000   0.00000   0.00000   0.00000
  70       19G+4       -0.00000   0.00000   0.00000   0.00000   0.00000
  71       19G-4       -0.00000   0.00000   0.00000   0.00000   0.00000
  72       20G 0       -0.00000   0.00000   0.00000   0.00000   0.00000
  73       20G+1        0.00000   0.00000   0.00000   0.00000   0.00000
  74       20G-1        0.00000   0.00000   0.00000   0.00000   0.00000
  75       20G+2        0.00000   0.00000   0.00000   0.00000   0.00000
  76       20G-2        0.00000   0.00000   0.00000   0.00000   0.00000
  77       20G+3        0.00000   0.00000   0.00000   0.00000   0.00000
  78       20G-3        0.00000   0.00000   0.00000   0.00000   0.00000
  79       20G+4       -0.00000   0.00000   0.00000   0.00000   0.00000
  80       20G-4       -0.00000   0.00000   0.00000   0.00000   0.00000
                          46        47        48        49        50
  46       16F-2        0.00000
  47       16F+3       -0.00000   0.00002
  48       16F-3        0.00000  -0.00000   0.00000
  49       17F 0        0.00000  -0.00000   0.00000   0.00000
  50       17F+1       -0.00000  -0.00000  -0.00000   0.00000   0.00007
  51       17F-1        0.00000  -0.00000   0.00000   0.00000  -0.00000
  52       17F+2        0.00000  -0.00000   0.00000  -0.00000   0.00000
  53       17F-2       -0.00000  -0.00000   0.00000   0.00000  -0.00000
  54       17F+3        0.00000   0.00003   0.00000   0.00000  -0.00000
  55       17F-3        0.00000  -0.00000   0.00000   0.00000  -0.00000
  56       18F 0        0.00000   0.00000   0.00000   0.00000  -0.00000
  57       18F+1        0.00000  -0.00000   0.00000  -0.00000   0.00003
  58       18F-1        0.00000   0.00000   0.00000   0.00000   0.00000
  59       18F+2        0.00000   0.00000   0.00000   0.00000  -0.00000
  60       18F-2       -0.00000  -0.00000   0.00000   0.00000   0.00000
  61       18F+3       -0.00000   0.00001   0.00000  -0.00000  -0.00000
  62       18F-3        0.00000  -0.00000   0.00000   0.00000  -0.00000
  63       19G 0        0.00000   0.00000   0.00000   0.00000   0.00000
  64       19G+1        0.00000   0.00000   0.00000   0.00000   0.00000
  65       19G-1        0.00000   0.00000   0.00000   0.00000   0.00000
  66       19G+2        0.00000   0.00000   0.00000   0.00000   0.00000
  67       19G-2        0.00000   0.00000   0.00000   0.00000   0.00000
  68       19G+3        0.00000   0.00000   0.00000   0.00000   0.00000
  69       19G-3        0.00000   0.00000   0.00000   0.00000   0.00000
  70       19G+4        0.00000   0.00000   0.00000   0.00000   0.00000
  71       19G-4        0.00000   0.00000   0.00000   0.00000   0.00000
  72       20G 0        0.00000   0.00000   0.00000   0.00000   0.00000
  73       20G+1        0.00000   0.00000   0.00000   0.00000   0.00000
  74       20G-1        0.00000   0.00000   0.00000   0.00000   0.00000
  75       20G+2        0.00000   0.00000   0.00000   0.00000   0.00000
  76       20G-2        0.00000   0.00000   0.00000   0.00000   0.00000
  77       20G+3        0.00000   0.00000   0.00000   0.00000   0.00000
  78       20G-3        0.00000   0.00000   0.00000   0.00000   0.00000
  79       20G+4        0.00000   0.00000   0.00000   0.00000   0.00000
  80       20G-4        0.00000   0.00000   0.00000   0.00000   0.00000
                          51        52        53        54        55
  51       17F-1        0.00000
  52       17F+2        0.00000   0.00000
  53       17F-2        0.00000   0.00000   0.00000
  54       17F+3       -0.00000   0.00000  -0.00000   0.00011
  55       17F-3        0.00000   0.00000   0.00000  -0.00000   0.00000
  56       18F 0        0.00000   0.00000   0.00000   0.00000   0.00000
  57       18F+1        0.00000  -0.00000  -0.00000  -0.00000  -0.00000
  58       18F-1        0.00000   0.00000   0.00000  -0.00000   0.00000
  59       18F+2        0.00000   0.00000   0.00000   0.00000   0.00000
  60       18F-2        0.00000   0.00000   0.00000   0.00000   0.00000
  61       18F+3       -0.00000   0.00000  -0.00000   0.00006  -0.00000
  62       18F-3        0.00000   0.00000   0.00000   0.00000   0.00000
  63       19G 0        0.00000   0.00000   0.00000   0.00000   0.00000
  64       19G+1        0.00000   0.00000   0.00000   0.00000   0.00000
  65       19G-1        0.00000   0.00000   0.00000   0.00000   0.00000
  66       19G+2        0.00000   0.00000   0.00000   0.00000   0.00000
  67       19G-2        0.00000   0.00000   0.00000   0.00000   0.00000
  68       19G+3        0.00000   0.00000   0.00000   0.00000   0.00000
  69       19G-3        0.00000   0.00000   0.00000   0.00000   0.00000
  70       19G+4        0.00000   0.00000   0.00000   0.00000   0.00000
  71       19G-4        0.00000   0.00000   0.00000   0.00000   0.00000
  72       20G 0        0.00000   0.00000   0.00000   0.00000   0.00000
  73       20G+1        0.00000   0.00000   0.00000   0.00000   0.00000
  74       20G-1        0.00000   0.00000   0.00000   0.00000   0.00000
  75       20G+2        0.00000   0.00000   0.00000   0.00000   0.00000
  76       20G-2        0.00000   0.00000   0.00000   0.00000   0.00000
  77       20G+3        0.00000   0.00000   0.00000   0.00000   0.00000
  78       20G-3        0.00000   0.00000   0.00000   0.00000   0.00000
  79       20G+4        0.00000   0.00000   0.00000   0.00000   0.00000
  80       20G-4        0.00000   0.00000   0.00000   0.00000   0.00000
                          56        57        58        59        60
  56       18F 0        0.00000
  57       18F+1       -0.00000   0.00005
  58       18F-1        0.00000   0.00000   0.00000
  59       18F+2        0.00000  -0.00000   0.00000   0.00000
  60       18F-2        0.00000  -0.00000   0.00000   0.00000  -0.00000
  61       18F+3        0.00000  -0.00000  -0.00000  -0.00000   0.00000
  62       18F-3        0.00000  -0.00000   0.00000   0.00000   0.00000
  63       19G 0        0.00000   0.00000   0.00000   0.00000   0.00000
  64       19G+1        0.00000   0.00000   0.00000   0.00000   0.00000
  65       19G-1        0.00000   0.00000   0.00000   0.00000   0.00000
  66       19G+2        0.00000   0.00000   0.00000   0.00000   0.00000
  67       19G-2        0.00000   0.00000   0.00000   0.00000   0.00000
  68       19G+3        0.00000   0.00000   0.00000   0.00000   0.00000
  69       19G-3        0.00000   0.00000   0.00000   0.00000   0.00000
  70       19G+4        0.00000   0.00000   0.00000   0.00000   0.00000
  71       19G-4        0.00000   0.00000   0.00000   0.00000   0.00000
  72       20G 0        0.00000   0.00000   0.00000   0.00000   0.00000
  73       20G+1        0.00000   0.00000   0.00000   0.00000   0.00000
  74       20G-1        0.00000   0.00000   0.00000   0.00000   0.00000
  75       20G+2        0.00000   0.00000   0.00000   0.00000   0.00000
  76       20G-2        0.00000   0.00000   0.00000   0.00000   0.00000
  77       20G+3        0.00000   0.00000   0.00000   0.00000   0.00000
  78       20G-3        0.00000   0.00000   0.00000   0.00000   0.00000
  79       20G+4        0.00000   0.00000   0.00000   0.00000   0.00000
  80       20G-4        0.00000   0.00000   0.00000   0.00000   0.00000
                          61        62        63        64        65
  61       18F+3        0.00008
  62       18F-3       -0.00000   0.00000
  63       19G 0        0.00000   0.00000   0.00000
  64       19G+1        0.00000   0.00000   0.00000   0.00000
  65       19G-1        0.00000   0.00000   0.00000   0.00000  -0.00000
  66       19G+2        0.00000   0.00000  -0.00000  -0.00000  -0.00000
  67       19G-2        0.00000   0.00000  -0.00000   0.00000   0.00000
  68       19G+3        0.00000   0.00000  -0.00000   0.00000   0.00000
  69       19G-3        0.00000   0.00000   0.00000   0.00000   0.00000
  70       19G+4        0.00000   0.00000  -0.00000  -0.00000  -0.00000
  71       19G-4        0.00000   0.00000   0.00000   0.00000   0.00000
  72       20G 0        0.00000   0.00000   0.00000  -0.00000  -0.00000
  73       20G+1        0.00000   0.00000   0.00000   0.00000   0.00000
  74       20G-1        0.00000   0.00000  -0.00000   0.00000  -0.00000
  75       20G+2        0.00000   0.00000   0.00000  -0.00000   0.00000
  76       20G-2        0.00000   0.00000  -0.00000   0.00000   0.00000
  77       20G+3        0.00000   0.00000  -0.00000  -0.00000   0.00000
  78       20G-3        0.00000   0.00000   0.00000   0.00000   0.00000
  79       20G+4        0.00000   0.00000   0.00000  -0.00000  -0.00000
  80       20G-4        0.00000   0.00000  -0.00000   0.00000   0.00000
                          66        67        68        69        70
  66       19G+2        0.00000
  67       19G-2       -0.00000   0.00000
  68       19G+3       -0.00000   0.00000   0.00000
  69       19G-3       -0.00000   0.00000   0.00000   0.00000
  70       19G+4        0.00000  -0.00000   0.00000   0.00000   0.00000
  71       19G-4        0.00000   0.00000   0.00000   0.00000  -0.00000
  72       20G 0        0.00000  -0.00000  -0.00000  -0.00000   0.00000
  73       20G+1       -0.00000   0.00000  -0.00000   0.00000  -0.00000
  74       20G-1        0.00000   0.00000   0.00000   0.00000   0.00000
  75       20G+2        0.00000  -0.00000  -0.00000   0.00000  -0.00000
  76       20G-2       -0.00000   0.00000   0.00000   0.00000   0.00000
  77       20G+3       -0.00000   0.00000   0.00000   0.00000   0.00000
  78       20G-3        0.00000   0.00000   0.00000  -0.00000  -0.00000
  79       20G+4        0.00000   0.00000  -0.00000  -0.00000   0.00000
  80       20G-4       -0.00000   0.00000   0.00000   0.00000  -0.00000
                          71        72        73        74        75
  71       19G-4        0.00000
  72       20G 0        0.00000   0.00000
  73       20G+1        0.00000   0.00000   0.00000
  74       20G-1        0.00000  -0.00000   0.00000  -0.00000
  75       20G+2        0.00000  -0.00000  -0.00000   0.00000   0.00000
  76       20G-2        0.00000  -0.00000   0.00000   0.00000  -0.00000
  77       20G+3        0.00000  -0.00000   0.00000   0.00000  -0.00000
  78       20G-3        0.00000  -0.00000   0.00000   0.00000   0.00000
  79       20G+4       -0.00000  -0.00000  -0.00000   0.00000   0.00000
  80       20G-4        0.00000   0.00000   0.00000   0.00000   0.00000
                          76        77        78        79        80
  76       20G-2        0.00000
  77       20G+3        0.00000   0.00000
  78       20G-3        0.00000   0.00000   0.00000
  79       20G+4       -0.00000   0.00000  -0.00000   0.00000
  80       20G-4        0.00000   0.00000   0.00000  -0.00000   0.00000
     Gross orbital populations:
                           1
   1 1   C  1S          1.24472
   2        2S          0.71194
   3        3S          0.43691
   4        4S          1.12775
   5        5S          0.47491
   6        6S          0.00349
   7        7PX         0.17539
   8        7PY         0.00000
   9        7PZ         0.00000
  10        8PX         0.55111
  11        8PY         0.00000
  12        8PZ         0.00000
  13        9PX         0.82866
  14        9PY         0.00000
  15        9PZ         0.00000
  16       10PX         0.42631
  17       10PY         0.00000
  18       10PZ         0.00000
  19       11PX         0.01792
  20       11PY         0.00000
  21       11PZ         0.00000
  22       12D 0        0.00000
  23       12D+1        0.00000
  24       12D-1       -0.00000
  25       12D+2        0.00001
  26       12D-2        0.00000
  27       13D 0       -0.00000
  28       13D+1       -0.00000
  29       13D-1        0.00000
  30       13D+2       -0.00001
  31       13D-2       -0.00000
  32       14D 0        0.00005
  33       14D+1        0.00000
  34       14D-1        0.00000
  35       14D+2        0.00014
  36       14D-2        0.00000
  37       15D 0        0.00002
  38       15D+1        0.00000
  39       15D-1       -0.00000
  40       15D+2        0.00006
  41       15D-2        0.00000
  42       16F 0        0.00000
  43       16F+1        0.00003
  44       16F-1        0.00000
  45       16F+2        0.00000
  46       16F-2       -0.00000
  47       16F+3        0.00005
  48       16F-3        0.00000
  49       17F 0        0.00000
  50       17F+1        0.00011
  51       17F-1        0.00000
  52       17F+2        0.00000
  53       17F-2        0.00000
  54       17F+3        0.00019
  55       17F-3        0.00000
  56       18F 0        0.00000
  57       18F+1        0.00008
  58       18F-1        0.00000
  59       18F+2        0.00000
  60       18F-2       -0.00000
  61       18F+3        0.00014
  62       18F-3        0.00000
  63       19G 0        0.00000
  64       19G+1        0.00000
  65       19G-1       -0.00000
  66       19G+2        0.00000
  67       19G-2        0.00000
  68       19G+3        0.00000
  69       19G-3       -0.00000
  70       19G+4        0.00000
  71       19G-4        0.00000
  72       20G 0        0.00000
  73       20G+1        0.00000
  74       20G-1       -0.00000
  75       20G+2        0.00000
  76       20G-2        0.00000
  77       20G+3        0.00000
  78       20G-3        0.00000
  79       20G+4        0.00000
  80       20G-4        0.00000
          Condensed to atoms (all electrons):
               1
     1  C    6.000000
 Mulliken charges:
               1
     1  C   -0.000000
 Sum of Mulliken charges =  -0.00000
 Mulliken charges with hydrogens summed into heavy atoms:
               1
     1  C   -0.000000
 N-N= 0.000000000000D+00 E-N=-8.791461517729D+01  KE= 3.760363036063D+01
 Symmetry AG   KE= 3.523707309251D+01
 Symmetry B1G  KE= 1.280523451741D-36
 Symmetry B2G  KE= 1.280523451741D-36
 Symmetry B3G  KE= 3.074896100930D-53
 Symmetry AU   KE=-5.805344783410D-53
 Symmetry B1U  KE= 4.447930445393D-33
 Symmetry B2U  KE= 4.447930445393D-33
 Symmetry B3U  KE= 2.366557268117D+00
 Orbital energies and kinetic energies (alpha):
                                 1                 2
   1         (A1G)--O        -11.364990         16.056155
   2         O                -0.725630          1.562382
   3         O                -0.358430          1.183279
   4         V                 0.018858          0.507603
   5         V                 0.018858          0.507603
   6         V                 0.083419          0.181046
   7         V                 0.089900          0.139234
   8         V                 0.108245          0.448904
   9         V                 0.108245          0.448904
  10         V                 0.232374          0.251881
  11         (T2G)--V          0.232374          0.251881
  12         (T2G)--V          0.241640          0.252241
  13         (T2G)--V          0.241640          0.252241
  14         V                 0.245418          0.252058
  15         V                 0.445331          0.855493
  16         V                 0.463968          1.078093
  17         V                 0.463968          1.078093
  18         V                 0.503207          1.051316
  19         V                 0.744145          0.788565
  20         V                 0.744145          0.788565
  21         V                 0.762265          0.788357
  22         (A2U)--V          0.762265          0.788357
  23         V                 0.773568          0.787874
  24         V                 0.773568          0.787874
  25         V                 0.775670          0.934828
  26         V                 0.775670          0.934828
  27         V                 0.777426          0.787531
  28         V                 0.791145          0.938035
  29         V                 0.791145          0.938035
  30         V                 0.798435          0.939105
  31         V                 1.591452          3.011746
  32         V                 1.591452          3.011746
  33         V                 1.608606          2.914002
  34         V                 2.089990          2.205981
  35         V                 2.089990          2.205981
  36         V                 2.107560          4.778091
  37         V                 2.118335          2.205830
  38         V                 2.118335          2.205830
  39         V                 2.138628          2.205384
  40         V                 2.138628          2.205384
  41         V                 2.150822          2.204962
  42         V                 2.150822          2.204962
  43         V                 2.154890          2.204833
  44         V                 2.197270          2.830188
  45         V                 2.197270          2.830188
  46         V                 2.231526          2.830933
  47         V                 2.231526          2.830933
  48         V                 2.244775          2.837473
  49         V                 2.245170          2.503536
  50         V                 2.245170          2.503536
  51         V                 2.283144          2.503551
  52         (A2U)--V          2.283144          2.503551
  53         V                 2.306664          2.503062
  54         V                 2.306664          2.503062
  55         V                 2.314666          2.502697
  56         V                 5.767115         10.822489
  57         V                 5.767115         10.822489
  58         V                 5.814209         10.776295
  59         V                 5.873884          6.446485
  60         V                 5.873884          6.446485
  61         V                 5.921158          6.446636
  62         V                 5.921158          6.446636
  63         V                 5.954832          6.446517
  64         V                 5.954832          6.446517
  65         V                 5.975001          6.446298
  66         V                 5.975001          6.446298
  67         V                 5.981719          6.446197
  68         V                 6.328046          8.374132
  69         V                 6.328046          8.374132
  70         V                 6.382815          8.370460
  71         V                 6.382815          8.370460
  72         V                 6.401370          8.368943
  73         V                 6.418131          7.562898
  74         V                 6.418131          7.562898
  75         V                 6.473048          7.563092
  76         (A2U)--V          6.473048          7.563092
  77         V                 6.506663          7.565004
  78         V                 6.506663          7.565004
  79         V                 6.518031          7.566245
  80         (A1G)--V         20.422294         50.547495
 Total kinetic energy from orbitals= 3.760363036063D+01
 No NMR shielding tensors so no spin-rotation constants.
 Leave Link  601 at Wed Apr  4 10:18:39 2018, MaxMem=   104857600 cpu:               0.3 elap:               0.3
 (Enter /software/Gaussian16/g16_sse4/g16/l9999.exe)

 Test job not archived.
 1\1\GINC-QNODE4085\SP\RHF\Aug-CC-pVQZ\C1\ASR731\04-Apr-2018\0\\#p HF/a
 ug-cc-pVQZ pop=full iop(3/33=1,3/36=-1) gfinput\\Title card required\\
 0,1\C,0,0.,0.,0.\\Version=ES64L-G16RevA.03\HF=-37.6045425\RMSD=4.217e-
 09\PG=OH [O(C1)]\\@


 SOME PEOPLE TRY TO PULL THE WOOL OVER YOUR EYES
 USING THE WRONG YARN.
 Job cpu time:       0 days  0 hours  0 minutes  2.8 seconds.
 Elapsed time:       0 days  0 hours  0 minutes  2.8 seconds.
 File lengths (MBytes):  RWF=      6 Int=      0 D2E=      0 Chk=     16 Scr=      1
 Normal termination of Gaussian 16 at Wed Apr  4 10:18:39 2018.
