 Entering Gaussian System, Link 0=g16_main
 Initial command:
 /software/Gaussian16/g16_sse4/g16/l1.exe "/tmp/Gau-4843.inp" -scrdir="/tmp/"
 Entering Link 1 = /software/Gaussian16/g16_sse4/g16/l1.exe PID=      4844.
  
 Copyright (c) 1988,1990,1992,1993,1995,1998,2003,2009,2016,
            Gaussian, Inc.  All Rights Reserved.
  
 This is part of the Gaussian(R) 16 program.  It is based on
 the Gaussian(R) 09 system (copyright 2009, Gaussian, Inc.),
 the Gaussian(R) 03 system (copyright 2003, Gaussian, Inc.),
 the Gaussian(R) 98 system (copyright 1998, Gaussian, Inc.),
 the Gaussian(R) 94 system (copyright 1995, Gaussian, Inc.),
 the Gaussian 92(TM) system (copyright 1992, Gaussian, Inc.),
 the Gaussian 90(TM) system (copyright 1990, Gaussian, Inc.),
 the Gaussian 88(TM) system (copyright 1988, Gaussian, Inc.),
 the Gaussian 86(TM) system (copyright 1986, Carnegie Mellon
 University), and the Gaussian 82(TM) system (copyright 1983,
 Carnegie Mellon University). Gaussian is a federally registered
 trademark of Gaussian, Inc.
  
 This software contains proprietary and confidential information,
 including trade secrets, belonging to Gaussian, Inc.
  
 This software is provided under written license and may be
 used, copied, transmitted, or stored only in accord with that
 written license.
  
 The following legend is applicable only to US Government
 contracts under FAR:
  
                    RESTRICTED RIGHTS LEGEND
  
 Use, reproduction and disclosure by the US Government is
 subject to restrictions as set forth in subparagraphs (a)
 and (c) of the Commercial Computer Software - Restricted
 Rights clause in FAR 52.227-19.
  
 Gaussian, Inc.
 340 Quinnipiac St., Bldg. 40, Wallingford CT 06492
  
  
 ---------------------------------------------------------------
 Warning -- This program may not be used in any manner that
 competes with the business of Gaussian, Inc. or will provide
 assistance to any competitor of Gaussian, Inc.  The licensee
 of this program is prohibited from giving any competitor of
 Gaussian, Inc. access to this program.  By using this program,
 the user acknowledges that Gaussian, Inc. is engaged in the
 business of creating and licensing software in the field of
 computational chemistry and represents and warrants to the
 licensee that it is not a competitor of Gaussian, Inc. and that
 it will not use this program in any manner prohibited above.
 ---------------------------------------------------------------
  

 Cite this work as:
 Gaussian 16, Revision A.03,
 M. J. Frisch, G. W. Trucks, H. B. Schlegel, G. E. Scuseria, 
 M. A. Robb, J. R. Cheeseman, G. Scalmani, V. Barone, 
 G. A. Petersson, H. Nakatsuji, X. Li, M. Caricato, A. V. Marenich, 
 J. Bloino, B. G. Janesko, R. Gomperts, B. Mennucci, H. P. Hratchian, 
 J. V. Ortiz, A. F. Izmaylov, J. L. Sonnenberg, D. Williams-Young, 
 F. Ding, F. Lipparini, F. Egidi, J. Goings, B. Peng, A. Petrone, 
 T. Henderson, D. Ranasinghe, V. G. Zakrzewski, J. Gao, N. Rega, 
 G. Zheng, W. Liang, M. Hada, M. Ehara, K. Toyota, R. Fukuda, 
 J. Hasegawa, M. Ishida, T. Nakajima, Y. Honda, O. Kitao, H. Nakai, 
 T. Vreven, K. Throssell, J. A. Montgomery, Jr., J. E. Peralta, 
 F. Ogliaro, M. J. Bearpark, J. J. Heyd, E. N. Brothers, K. N. Kudin, 
 V. N. Staroverov, T. A. Keith, R. Kobayashi, J. Normand, 
 K. Raghavachari, A. P. Rendell, J. C. Burant, S. S. Iyengar, 
 J. Tomasi, M. Cossi, J. M. Millam, M. Klene, C. Adamo, R. Cammi, 
 J. W. Ochterski, R. L. Martin, K. Morokuma, O. Farkas, 
 J. B. Foresman, and D. J. Fox, Gaussian, Inc., Wallingford CT, 2016.
 
 ******************************************
 Gaussian 16:  ES64L-G16RevA.03 25-Dec-2016
                 5-Apr-2018 
 ******************************************
 %chk=PhCCCC.chk
 %mem=400MB
 %nproc=1
 Will use up to    1 processors via shared memory.
 ----------------------------------------------------------------------
 #p b3lyp/sto-3g guess=read geom=allcheck pop=full gfinput iop(3/33=1,3
 /36=-1)
 ----------------------------------------------------------------------
 1/29=7,38=1,172=1/1;
 2/12=2,40=1/2;
 3/6=3,11=2,14=-4,24=10,25=1,30=1,33=1,36=-1,74=-5,116=-2/1,2,3;
 4/5=1/1;
 5/5=2,38=6/2;
 6/7=3,28=1/1;
 99/5=1,9=1/99;
 Leave Link    1 at Thu Apr  5 09:06:02 2018, MaxMem=    52428800 cpu:               0.0 elap:               0.0
 (Enter /software/Gaussian16/g16_sse4/g16/l101.exe)
 Structure from the checkpoint file:  "PhCCCC.chk"
 -------------------
 Title Card Required
 -------------------
 Charge =  0 Multiplicity = 1
 Redundant internal coordinates found in file.  (old form).
 C,0,-0.0758620095,0.,0.026976172
 C,0,-0.0045249089,0.,1.4463590272
 C,0,1.233736384,0.,2.1041846497
 C,0,2.4572888655,0.,1.3787460974
 C,0,2.3859517648,0.,-0.0406367578
 H,0,-0.92877965,0.,2.038369764
 H,0,1.2651436192,0.,3.2023768764
 H,0,3.3102065059,0.,-0.6326474946
 C,0,3.7521118658,0.,2.1312678481
 C,0,4.9873358742,0.,1.6008975806
 H,0,5.1666218259,0.,0.5196515525
 H,0,3.6423310639,0.,3.2262049273
 H,0,5.8793519852,0.,2.2381007064
 C,0,-1.3706850098,0.,-0.7255455787
 H,0,-1.2609042079,0.,-1.820482658
 C,0,-2.6059090183,0.,-0.1951753113
 H,0,-2.78519497,0.,0.8860707169
 H,0,-3.4979251292,0.,-0.832378437
 C,0,1.147690472,0.,-0.6984623803
 H,0,1.1162832367,0.,-1.796654607
 Recover connectivity data from disk.
 ITRead=  0  0  0  0  0  0  0  0  0  0  0  0  0  0  0  0  0  0  0  0
 MicOpt= -1 -1 -1 -1 -1 -1 -1 -1 -1 -1 -1 -1 -1 -1 -1 -1 -1 -1 -1 -1
                           ----------------------------
                           !    Current Parameters    !
                           ! (Angstroms and Degrees)  !
 --------------------------                            --------------------------
 ! Name  Definition              Value                                          !
 --------------------------------------------------------------------------------
 ! R1    R(1,2)                  1.4212                                         !
 ! R2    R(1,14)                 1.4976                                         !
 ! R3    R(1,19)                 1.4224                                         !
 ! R4    R(2,3)                  1.4022                                         !
 ! R5    R(2,6)                  1.0976                                         !
 ! R6    R(3,4)                  1.4224                                         !
 ! R7    R(3,7)                  1.0986                                         !
 ! R8    R(4,5)                  1.4212                                         !
 ! R9    R(4,9)                  1.4976                                         !
 ! R10   R(5,8)                  1.0976                                         !
 ! R11   R(5,19)                 1.4022                                         !
 ! R12   R(9,10)                 1.3443                                         !
 ! R13   R(9,12)                 1.1004                                         !
 ! R14   R(10,11)                1.096                                          !
 ! R15   R(10,13)                1.0962                                         !
 ! R16   R(14,15)                1.1004                                         !
 ! R17   R(14,16)                1.3443                                         !
 ! R18   R(16,17)                1.096                                          !
 ! R19   R(16,18)                1.0962                                         !
 ! R20   R(19,20)                1.0986                                         !
 ! A1    A(2,1,14)             123.0414                                         !
 ! A2    A(2,1,19)             117.7863                                         !
 ! A3    A(14,1,19)            119.1723                                         !
 ! A4    A(1,2,3)              120.8567                                         !
 ! A5    A(1,2,6)              119.7635                                         !
 ! A6    A(3,2,6)              119.3799                                         !
 ! A7    A(2,3,4)              121.357                                          !
 ! A8    A(2,3,7)              119.6176                                         !
 ! A9    A(4,3,7)              119.0253                                         !
 ! A10   A(3,4,5)              117.7863                                         !
 ! A11   A(3,4,9)              119.1723                                         !
 ! A12   A(5,4,9)              123.0414                                         !
 ! A13   A(4,5,8)              119.7635                                         !
 ! A14   A(4,5,19)             120.8567                                         !
 ! A15   A(8,5,19)             119.3799                                         !
 ! A16   A(4,9,10)             126.5985                                         !
 ! A17   A(4,9,12)             114.4387                                         !
 ! A18   A(10,9,12)            118.9628                                         !
 ! A19   A(9,10,11)            122.6521                                         !
 ! A20   A(9,10,13)            121.2229                                         !
 ! A21   A(11,10,13)           116.125                                          !
 ! A22   A(1,14,15)            114.4387                                         !
 ! A23   A(1,14,16)            126.5985                                         !
 ! A24   A(15,14,16)           118.9628                                         !
 ! A25   A(14,16,17)           122.6521                                         !
 ! A26   A(14,16,18)           121.2229                                         !
 ! A27   A(17,16,18)           116.125                                          !
 ! A28   A(1,19,5)             121.357                                          !
 ! A29   A(1,19,20)            119.0253                                         !
 ! A30   A(5,19,20)            119.6176                                         !
 ! D1    D(14,1,2,3)           180.0                                            !
 ! D2    D(14,1,2,6)             0.0                                            !
 ! D3    D(19,1,2,3)             0.0                                            !
 ! D4    D(19,1,2,6)           180.0                                            !
 ! D5    D(2,1,14,15)          180.0                                            !
 ! D6    D(2,1,14,16)            0.0                                            !
 ! D7    D(19,1,14,15)           0.0                                            !
 ! D8    D(19,1,14,16)         180.0                                            !
 ! D9    D(2,1,19,5)             0.0                                            !
 ! D10   D(2,1,19,20)          180.0                                            !
 ! D11   D(14,1,19,5)          180.0                                            !
 ! D12   D(14,1,19,20)           0.0                                            !
 ! D13   D(1,2,3,4)              0.0                                            !
 ! D14   D(1,2,3,7)            180.0                                            !
 ! D15   D(6,2,3,4)            180.0                                            !
 ! D16   D(6,2,3,7)              0.0                                            !
 ! D17   D(2,3,4,5)              0.0                                            !
 ! D18   D(2,3,4,9)            180.0                                            !
 ! D19   D(7,3,4,5)            180.0                                            !
 ! D20   D(7,3,4,9)              0.0                                            !
 ! D21   D(3,4,5,8)            180.0                                            !
 ! D22   D(3,4,5,19)             0.0                                            !
 ! D23   D(9,4,5,8)              0.0                                            !
 ! D24   D(9,4,5,19)           180.0                                            !
 ! D25   D(3,4,9,10)           180.0                                            !
 ! D26   D(3,4,9,12)             0.0                                            !
 ! D27   D(5,4,9,10)             0.0                                            !
 ! D28   D(5,4,9,12)           180.0                                            !
 ! D29   D(4,5,19,1)             0.0                                            !
 ! D30   D(4,5,19,20)          180.0                                            !
 ! D31   D(8,5,19,1)           180.0                                            !
 ! D32   D(8,5,19,20)            0.0                                            !
 ! D33   D(4,9,10,11)            0.0                                            !
 ! D34   D(4,9,10,13)          180.0                                            !
 ! D35   D(12,9,10,11)         180.0                                            !
 ! D36   D(12,9,10,13)           0.0                                            !
 ! D37   D(1,14,16,17)           0.0                                            !
 ! D38   D(1,14,16,18)         180.0                                            !
 ! D39   D(15,14,16,17)        180.0                                            !
 ! D40   D(15,14,16,18)          0.0                                            !
 --------------------------------------------------------------------------------
 NAtoms=     20 NQM=       20 NQMF=       0 NMMI=      0 NMMIF=      0
                NMic=       0 NMicF=      0.
                    Isotopes and Nuclear Properties:
 (Nuclear quadrupole moments (NQMom) in fm**2, nuclear magnetic moments (NMagM)
  in nuclear magnetons)

  Atom         1           2           3           4           5           6           7           8           9          10
 IAtWgt=          12          12          12          12          12           1           1           1          12          12
 AtmWgt=  12.0000000  12.0000000  12.0000000  12.0000000  12.0000000   1.0078250   1.0078250   1.0078250  12.0000000  12.0000000
 NucSpn=           0           0           0           0           0           1           1           1           0           0
 AtZEff=   3.6000000   3.6000000   3.6000000   3.6000000   3.6000000   1.0000000   1.0000000   1.0000000   3.6000000   3.6000000
 NQMom=    0.0000000   0.0000000   0.0000000   0.0000000   0.0000000   0.0000000   0.0000000   0.0000000   0.0000000   0.0000000
 NMagM=    0.0000000   0.0000000   0.0000000   0.0000000   0.0000000   2.7928460   2.7928460   2.7928460   0.0000000   0.0000000
 AtZNuc=   6.0000000   6.0000000   6.0000000   6.0000000   6.0000000   1.0000000   1.0000000   1.0000000   6.0000000   6.0000000

  Atom        11          12          13          14          15          16          17          18          19          20
 IAtWgt=           1           1           1          12           1          12           1           1          12           1
 AtmWgt=   1.0078250   1.0078250   1.0078250  12.0000000   1.0078250  12.0000000   1.0078250   1.0078250  12.0000000   1.0078250
 NucSpn=           1           1           1           0           1           0           1           1           0           1
 AtZEff=   1.0000000   1.0000000   1.0000000   3.6000000   1.0000000   3.6000000   1.0000000   1.0000000   3.6000000   1.0000000
 NQMom=    0.0000000   0.0000000   0.0000000   0.0000000   0.0000000   0.0000000   0.0000000   0.0000000   0.0000000   0.0000000
 NMagM=    2.7928460   2.7928460   2.7928460   0.0000000   2.7928460   0.0000000   2.7928460   2.7928460   0.0000000   2.7928460
 AtZNuc=   1.0000000   1.0000000   1.0000000   6.0000000   1.0000000   6.0000000   1.0000000   1.0000000   6.0000000   1.0000000
 Leave Link  101 at Thu Apr  5 09:06:02 2018, MaxMem=    52428800 cpu:               0.1 elap:               0.1
 (Enter /software/Gaussian16/g16_sse4/g16/l202.exe)
                          Input orientation:                          
 ---------------------------------------------------------------------
 Center     Atomic      Atomic             Coordinates (Angstroms)
 Number     Number       Type             X           Y           Z
 ---------------------------------------------------------------------
      1          6           0       -0.075862   -0.000000    0.026976
      2          6           0       -0.004525   -0.000000    1.446359
      3          6           0        1.233736   -0.000000    2.104185
      4          6           0        2.457289    0.000000    1.378746
      5          6           0        2.385952    0.000000   -0.040637
      6          1           0       -0.928780   -0.000000    2.038370
      7          1           0        1.265144   -0.000000    3.202377
      8          1           0        3.310207    0.000000   -0.632647
      9          6           0        3.752112    0.000000    2.131268
     10          6           0        4.987336    0.000000    1.600898
     11          1           0        5.166622    0.000000    0.519652
     12          1           0        3.642331    0.000000    3.226205
     13          1           0        5.879352    0.000000    2.238101
     14          6           0       -1.370685   -0.000000   -0.725546
     15          1           0       -1.260904   -0.000000   -1.820483
     16          6           0       -2.605909   -0.000000   -0.195175
     17          1           0       -2.785195   -0.000000    0.886071
     18          1           0       -3.497925   -0.000000   -0.832378
     19          6           0        1.147690    0.000000   -0.698462
     20          1           0        1.116283    0.000000   -1.796655
 ---------------------------------------------------------------------
                    Distance matrix (angstroms):
                    1          2          3          4          5
     1  C    0.000000
     2  C    1.421174   0.000000
     3  C    2.455574   1.402150   0.000000
     4  C    2.871260   2.462742   1.422442   0.000000
     5  C    2.462742   2.815233   2.434720   1.421174   0.000000
     6  H    2.184759   1.097599   2.163517   3.449719   3.912763
     7  H    3.446950   2.166946   1.098641   2.178724   3.431231
     8  H    3.449719   3.912763   3.435401   2.184759   1.097599
     9  C    4.368229   3.818563   2.518521   1.497617   2.565845
    10  C    5.302188   4.994252   3.787190   2.539781   3.076009
    11  H    5.265583   5.253527   4.240086   2.842275   2.836556
    12  H    4.905102   4.058006   2.657115   2.194864   3.500106
    13  H    6.352452   5.936907   4.647545   3.528315   4.170910
    14  C    1.497617   2.565845   3.845827   4.368229   3.818563
    15  H    2.194864   3.500106   4.650403   4.905102   4.058006
    16  C    2.539781   3.076009   4.475481   5.302188   4.994252
    17  H    2.842275   2.836556   4.199477   5.265583   5.253527
    18  H    3.528315   4.170910   5.568844   6.352452   5.936907
    19  C    1.422442   2.434720   2.803968   2.455574   1.402150
    20  H    2.178724   3.431231   3.902607   3.446950   2.166946
                    6          7          8          9         10
     6  H    0.000000
     7  H    2.483589   0.000000
     8  H    5.010323   4.346228   0.000000
     9  C    4.681813   2.707819   2.799019   0.000000
    10  C    5.932268   4.052092   2.793114   1.344273   0.000000
    11  H    6.281753   4.734823   2.184965   2.144329   1.096009
    12  H    4.722923   2.377307   3.873119   1.100427   2.109659
    13  H    6.811061   4.713889   3.852493   2.129921   1.096230
    14  C    2.799019   4.730345   4.681813   5.865529   6.770286
    15  H    3.873119   5.622280   4.722923   6.383311   7.123647
    16  C    2.793114   5.150574   5.932268   6.770286   7.802772
    17  H    2.184965   4.665889   6.281753   6.654840   7.805332
    18  H    3.852493   6.242281   6.811061   7.832384   8.827258
    19  C    3.435401   3.902607   2.163517   3.845827   4.475481
    20  H    4.346228   5.001247   2.483589   4.730345   5.150574
                   11         12         13         14         15
    11  H    0.000000
    12  H    3.106267   0.000000
    13  H    1.860390   2.445529   0.000000
    14  C    6.654840   6.383311   7.832384   0.000000
    15  H    6.840272   7.036389   8.213121   1.100427   0.000000
    16  C    7.805332   7.123647   8.827258   1.344273   2.109659
    17  H    7.960255   6.840272   8.769399   2.144329   3.106267
    18  H    8.769399   8.213121   9.867176   2.129921   2.445529
    19  C    4.199477   4.650403   5.568844   2.518521   2.657115
    20  H    4.665889   5.622280   6.242281   2.707819   2.377307
                   16         17         18         19         20
    16  C    0.000000
    17  H    1.096009   0.000000
    18  H    1.096230   1.860390   0.000000
    19  C    3.787190   4.240086   4.647545   0.000000
    20  H    4.052092   4.734823   4.713889   1.098641   0.000000
 Stoichiometry    C10H10
 Framework group  C2H[SGH(C10H10)]
 Deg. of freedom    19
 Full point group                 C2H     NOp   4
 RotChk:  IX=1 Diff= 9.17D-16
 Largest Abelian subgroup         C2H     NOp   4
 Largest concise Abelian subgroup C2      NOp   2
                         Standard orientation:                         
 ---------------------------------------------------------------------
 Center     Atomic      Atomic             Coordinates (Angstroms)
 Number     Number       Type             X           Y           Z
 ---------------------------------------------------------------------
      1          6           0        0.269445    1.410118    0.000000
      2          6           0       -1.064785    0.920662   -0.000000
      3          6           0       -1.325389   -0.457058   -0.000000
      4          6           0       -0.269445   -1.410118    0.000000
      5          6           0        1.064785   -0.920662    0.000000
      6          1           0       -1.904470    1.627522   -0.000000
      7          1           0       -2.364759   -0.813041   -0.000000
      8          1           0        1.904470   -1.627522    0.000000
      9          6           0       -0.603688   -2.869960   -0.000000
     10          6           0        0.269445   -3.892070   -0.000000
     11          1           0        1.355175   -3.742314   -0.000000
     12          1           0       -1.681859   -3.090152   -0.000000
     13          1           0       -0.074247   -4.933029   -0.000000
     14          6           0        0.603688    2.869960   -0.000000
     15          1           0        1.681859    3.090152   -0.000000
     16          6           0       -0.269445    3.892070   -0.000000
     17          1           0       -1.355175    3.742314   -0.000000
     18          1           0        0.074247    4.933029   -0.000000
     19          6           0        1.325389    0.457058   -0.000000
     20          1           0        2.364759    0.813041   -0.000000
 ---------------------------------------------------------------------
 Rotational constants (GHZ):           4.6266363           0.6849065           0.5965900
 Leave Link  202 at Thu Apr  5 09:06:02 2018, MaxMem=    52428800 cpu:               0.0 elap:               0.0
 (Enter /software/Gaussian16/g16_sse4/g16/l301.exe)
 Standard basis: STO-3G (5D, 7F)
                         Coordinates in L301:                         
 ---------------------------------------------------------------------
 Center     Atomic      Atomic             Coordinates (Angstroms)
 Number     Number       Type             X           Y           Z
 ---------------------------------------------------------------------
      1          6           0        0.269445    1.410118    0.000000
      2          6           0       -1.064785    0.920662   -0.000000
      3          6           0       -1.325389   -0.457058   -0.000000
      4          6           0       -0.269445   -1.410118    0.000000
      5          6           0        1.064785   -0.920662   -0.000000
      6          1           0       -1.904470    1.627522    0.000000
      7          1           0       -2.364759   -0.813041   -0.000000
      8          1           0        1.904470   -1.627522   -0.000000
      9          6           0       -0.603688   -2.869960   -0.000000
     10          6           0        0.269445   -3.892070   -0.000000
     11          1           0        1.355175   -3.742314   -0.000000
     12          1           0       -1.681859   -3.090152   -0.000000
     13          1           0       -0.074247   -4.933029   -0.000000
     14          6           0        0.603688    2.869960   -0.000000
     15          1           0        1.681859    3.090152   -0.000000
     16          6           0       -0.269445    3.892070   -0.000000
     17          1           0       -1.355175    3.742314    0.000000
     18          1           0        0.074247    4.933029   -0.000000
     19          6           0        1.325389    0.457058   -0.000000
     20          1           0        2.364759    0.813041   -0.000000
 ---------------------------------------------------------------------
 FixB: optimizing general contractions.
 Ernie: Thresh=  0.10000D-02 Tol=  0.10000D-05 Strict=F.
 IA=     1 ShT= 0 ShC= 0 NL=   1 NS=   0.
 IA=     1 L=0 SC=0 ISt=    0 NBk=    0 NP=    0 IndPr=    0.
 IA=     1 ShT= 1 ShC= 0 NL=   1 NS=   0.
 IA=     1 L=1 SC=0 ISt=    0 NBk=    0 NP=    0 IndPr=    0.
 IA=     2 ShT= 0 ShC= 0 NL=   1 NS=   0.
 IA=     2 L=0 SC=0 ISt=    0 NBk=    0 NP=    0 IndPr=    0.
 IA=     2 ShT= 1 ShC= 0 NL=   1 NS=   0.
 IA=     2 L=1 SC=0 ISt=    0 NBk=    0 NP=    0 IndPr=    0.
 IA=     3 ShT= 0 ShC= 0 NL=   1 NS=   0.
 IA=     3 L=0 SC=0 ISt=    0 NBk=    0 NP=    0 IndPr=    0.
 IA=     3 ShT= 1 ShC= 0 NL=   1 NS=   0.
 IA=     3 L=1 SC=0 ISt=    0 NBk=    0 NP=    0 IndPr=    0.
 IA=     4 ShT= 0 ShC= 0 NL=   1 NS=   0.
 IA=     4 L=0 SC=0 ISt=    0 NBk=    0 NP=    0 IndPr=    0.
 IA=     4 ShT= 1 ShC= 0 NL=   1 NS=   0.
 IA=     4 L=1 SC=0 ISt=    0 NBk=    0 NP=    0 IndPr=    0.
 IA=     5 ShT= 0 ShC= 0 NL=   1 NS=   0.
 IA=     5 L=0 SC=0 ISt=    0 NBk=    0 NP=    0 IndPr=    0.
 IA=     5 ShT= 1 ShC= 0 NL=   1 NS=   0.
 IA=     5 L=1 SC=0 ISt=    0 NBk=    0 NP=    0 IndPr=    0.
 IA=     6 ShT= 0 ShC= 0 NL=   1 NS=   0.
 IA=     6 L=0 SC=0 ISt=    0 NBk=    0 NP=    0 IndPr=    0.
 IA=     7 ShT= 0 ShC= 0 NL=   1 NS=   0.
 IA=     7 L=0 SC=0 ISt=    0 NBk=    0 NP=    0 IndPr=    0.
 IA=     8 ShT= 0 ShC= 0 NL=   1 NS=   0.
 IA=     8 L=0 SC=0 ISt=    0 NBk=    0 NP=    0 IndPr=    0.
 IA=     9 ShT= 0 ShC= 0 NL=   1 NS=   0.
 IA=     9 L=0 SC=0 ISt=    0 NBk=    0 NP=    0 IndPr=    0.
 IA=     9 ShT= 1 ShC= 0 NL=   1 NS=   0.
 IA=     9 L=1 SC=0 ISt=    0 NBk=    0 NP=    0 IndPr=    0.
 IA=    10 ShT= 0 ShC= 0 NL=   1 NS=   0.
 IA=    10 L=0 SC=0 ISt=    0 NBk=    0 NP=    0 IndPr=    0.
 IA=    10 ShT= 1 ShC= 0 NL=   1 NS=   0.
 IA=    10 L=1 SC=0 ISt=    0 NBk=    0 NP=    0 IndPr=    0.
 IA=    11 ShT= 0 ShC= 0 NL=   1 NS=   0.
 IA=    11 L=0 SC=0 ISt=    0 NBk=    0 NP=    0 IndPr=    0.
 IA=    12 ShT= 0 ShC= 0 NL=   1 NS=   0.
 IA=    12 L=0 SC=0 ISt=    0 NBk=    0 NP=    0 IndPr=    0.
 IA=    13 ShT= 0 ShC= 0 NL=   1 NS=   0.
 IA=    13 L=0 SC=0 ISt=    0 NBk=    0 NP=    0 IndPr=    0.
 IA=    14 ShT= 0 ShC= 0 NL=   1 NS=   0.
 IA=    14 L=0 SC=0 ISt=    0 NBk=    0 NP=    0 IndPr=    0.
 IA=    14 ShT= 1 ShC= 0 NL=   1 NS=   0.
 IA=    14 L=1 SC=0 ISt=    0 NBk=    0 NP=    0 IndPr=    0.
 IA=    15 ShT= 0 ShC= 0 NL=   1 NS=   0.
 IA=    15 L=0 SC=0 ISt=    0 NBk=    0 NP=    0 IndPr=    0.
 IA=    16 ShT= 0 ShC= 0 NL=   1 NS=   0.
 IA=    16 L=0 SC=0 ISt=    0 NBk=    0 NP=    0 IndPr=    0.
 IA=    16 ShT= 1 ShC= 0 NL=   1 NS=   0.
 IA=    16 L=1 SC=0 ISt=    0 NBk=    0 NP=    0 IndPr=    0.
 IA=    17 ShT= 0 ShC= 0 NL=   1 NS=   0.
 IA=    17 L=0 SC=0 ISt=    0 NBk=    0 NP=    0 IndPr=    0.
 IA=    18 ShT= 0 ShC= 0 NL=   1 NS=   0.
 IA=    18 L=0 SC=0 ISt=    0 NBk=    0 NP=    0 IndPr=    0.
 IA=    19 ShT= 0 ShC= 0 NL=   1 NS=   0.
 IA=    19 L=0 SC=0 ISt=    0 NBk=    0 NP=    0 IndPr=    0.
 IA=    19 ShT= 1 ShC= 0 NL=   1 NS=   0.
 IA=    19 L=1 SC=0 ISt=    0 NBk=    0 NP=    0 IndPr=    0.
 IA=    20 ShT= 0 ShC= 0 NL=   1 NS=   0.
 IA=    20 L=0 SC=0 ISt=    0 NBk=    0 NP=    0 IndPr=    0.
 AO basis set in the form of general basis input (Overlap normalization):
      1 0
 S   3 1.00       0.000000000000
      0.7161683735D+02  0.1543289673D+00
      0.1304509632D+02  0.5353281423D+00
      0.3530512160D+01  0.4446345422D+00
 SP   3 1.00       0.000000000000
      0.2941249355D+01 -0.9996722919D-01  0.1559162750D+00
      0.6834830964D+00  0.3995128261D+00  0.6076837186D+00
      0.2222899159D+00  0.7001154689D+00  0.3919573931D+00
 ****
      2 0
 S   3 1.00       0.000000000000
      0.7161683735D+02  0.1543289673D+00
      0.1304509632D+02  0.5353281423D+00
      0.3530512160D+01  0.4446345422D+00
 SP   3 1.00       0.000000000000
      0.2941249355D+01 -0.9996722919D-01  0.1559162750D+00
      0.6834830964D+00  0.3995128261D+00  0.6076837186D+00
      0.2222899159D+00  0.7001154689D+00  0.3919573931D+00
 ****
      3 0
 S   3 1.00       0.000000000000
      0.7161683735D+02  0.1543289673D+00
      0.1304509632D+02  0.5353281423D+00
      0.3530512160D+01  0.4446345422D+00
 SP   3 1.00       0.000000000000
      0.2941249355D+01 -0.9996722919D-01  0.1559162750D+00
      0.6834830964D+00  0.3995128261D+00  0.6076837186D+00
      0.2222899159D+00  0.7001154689D+00  0.3919573931D+00
 ****
      4 0
 S   3 1.00       0.000000000000
      0.7161683735D+02  0.1543289673D+00
      0.1304509632D+02  0.5353281423D+00
      0.3530512160D+01  0.4446345422D+00
 SP   3 1.00       0.000000000000
      0.2941249355D+01 -0.9996722919D-01  0.1559162750D+00
      0.6834830964D+00  0.3995128261D+00  0.6076837186D+00
      0.2222899159D+00  0.7001154689D+00  0.3919573931D+00
 ****
      5 0
 S   3 1.00       0.000000000000
      0.7161683735D+02  0.1543289673D+00
      0.1304509632D+02  0.5353281423D+00
      0.3530512160D+01  0.4446345422D+00
 SP   3 1.00       0.000000000000
      0.2941249355D+01 -0.9996722919D-01  0.1559162750D+00
      0.6834830964D+00  0.3995128261D+00  0.6076837186D+00
      0.2222899159D+00  0.7001154689D+00  0.3919573931D+00
 ****
      6 0
 S   3 1.00       0.000000000000
      0.3425250914D+01  0.1543289673D+00
      0.6239137298D+00  0.5353281423D+00
      0.1688554040D+00  0.4446345422D+00
 ****
      7 0
 S   3 1.00       0.000000000000
      0.3425250914D+01  0.1543289673D+00
      0.6239137298D+00  0.5353281423D+00
      0.1688554040D+00  0.4446345422D+00
 ****
      8 0
 S   3 1.00       0.000000000000
      0.3425250914D+01  0.1543289673D+00
      0.6239137298D+00  0.5353281423D+00
      0.1688554040D+00  0.4446345422D+00
 ****
      9 0
 S   3 1.00       0.000000000000
      0.7161683735D+02  0.1543289673D+00
      0.1304509632D+02  0.5353281423D+00
      0.3530512160D+01  0.4446345422D+00
 SP   3 1.00       0.000000000000
      0.2941249355D+01 -0.9996722919D-01  0.1559162750D+00
      0.6834830964D+00  0.3995128261D+00  0.6076837186D+00
      0.2222899159D+00  0.7001154689D+00  0.3919573931D+00
 ****
     10 0
 S   3 1.00       0.000000000000
      0.7161683735D+02  0.1543289673D+00
      0.1304509632D+02  0.5353281423D+00
      0.3530512160D+01  0.4446345422D+00
 SP   3 1.00       0.000000000000
      0.2941249355D+01 -0.9996722919D-01  0.1559162750D+00
      0.6834830964D+00  0.3995128261D+00  0.6076837186D+00
      0.2222899159D+00  0.7001154689D+00  0.3919573931D+00
 ****
     11 0
 S   3 1.00       0.000000000000
      0.3425250914D+01  0.1543289673D+00
      0.6239137298D+00  0.5353281423D+00
      0.1688554040D+00  0.4446345422D+00
 ****
     12 0
 S   3 1.00       0.000000000000
      0.3425250914D+01  0.1543289673D+00
      0.6239137298D+00  0.5353281423D+00
      0.1688554040D+00  0.4446345422D+00
 ****
     13 0
 S   3 1.00       0.000000000000
      0.3425250914D+01  0.1543289673D+00
      0.6239137298D+00  0.5353281423D+00
      0.1688554040D+00  0.4446345422D+00
 ****
     14 0
 S   3 1.00       0.000000000000
      0.7161683735D+02  0.1543289673D+00
      0.1304509632D+02  0.5353281423D+00
      0.3530512160D+01  0.4446345422D+00
 SP   3 1.00       0.000000000000
      0.2941249355D+01 -0.9996722919D-01  0.1559162750D+00
      0.6834830964D+00  0.3995128261D+00  0.6076837186D+00
      0.2222899159D+00  0.7001154689D+00  0.3919573931D+00
 ****
     15 0
 S   3 1.00       0.000000000000
      0.3425250914D+01  0.1543289673D+00
      0.6239137298D+00  0.5353281423D+00
      0.1688554040D+00  0.4446345422D+00
 ****
     16 0
 S   3 1.00       0.000000000000
      0.7161683735D+02  0.1543289673D+00
      0.1304509632D+02  0.5353281423D+00
      0.3530512160D+01  0.4446345422D+00
 SP   3 1.00       0.000000000000
      0.2941249355D+01 -0.9996722919D-01  0.1559162750D+00
      0.6834830964D+00  0.3995128261D+00  0.6076837186D+00
      0.2222899159D+00  0.7001154689D+00  0.3919573931D+00
 ****
     17 0
 S   3 1.00       0.000000000000
      0.3425250914D+01  0.1543289673D+00
      0.6239137298D+00  0.5353281423D+00
      0.1688554040D+00  0.4446345422D+00
 ****
     18 0
 S   3 1.00       0.000000000000
      0.3425250914D+01  0.1543289673D+00
      0.6239137298D+00  0.5353281423D+00
      0.1688554040D+00  0.4446345422D+00
 ****
     19 0
 S   3 1.00       0.000000000000
      0.7161683735D+02  0.1543289673D+00
      0.1304509632D+02  0.5353281423D+00
      0.3530512160D+01  0.4446345422D+00
 SP   3 1.00       0.000000000000
      0.2941249355D+01 -0.9996722919D-01  0.1559162750D+00
      0.6834830964D+00  0.3995128261D+00  0.6076837186D+00
      0.2222899159D+00  0.7001154689D+00  0.3919573931D+00
 ****
     20 0
 S   3 1.00       0.000000000000
      0.3425250914D+01  0.1543289673D+00
      0.6239137298D+00  0.5353281423D+00
      0.1688554040D+00  0.4446345422D+00
 ****

 LdAtmC:  AtmChg=     6.000000     6.000000     6.000000     6.000000     6.000000
 LdAtmC:  AtmChg=     1.000000     1.000000     1.000000     6.000000     6.000000
 LdAtmC:  AtmChg=     1.000000     1.000000     1.000000     6.000000     1.000000
 LdAtmC:  AtmChg=     6.000000     1.000000     1.000000     6.000000     1.000000
 AtZEff=     -3.6000000     -3.6000000     -3.6000000     -3.6000000     -3.6000000
 AtZEff=     -1.0000000     -1.0000000     -1.0000000     -3.6000000     -3.6000000
 AtZEff=     -1.0000000     -1.0000000     -1.0000000     -3.6000000     -1.0000000
 AtZEff=     -3.6000000     -1.0000000     -1.0000000     -3.6000000     -1.0000000
 NEqShl: 
              1            2            3            4
     1            1            7            1            7
     2            2            8            2            8
     3            3            9            3            9
     4            4           10            4           10
     5            5           28            5           28
     6            6           29            6           29
     7            7            1            7            1
     8            8            2            8            2
     9            9            3            9            3
    10           10            4           10            4
    11           11           13           11           13
    12           12           30           12           30
    13           13           11           13           11
    14           14           21           14           21
    15           15           22           15           22
    16           16           24           16           24
    17           17           25           17           25
    18           18           26           18           26
    19           19           23           19           23
    20           20           27           20           27
    21           21           14           21           14
    22           22           15           22           15
    23           23           19           23           19
    24           24           16           24           16
    25           25           17           25           17
    26           26           18           26           18
    27           27           20           27           20
    28           28            5           28            5
    29           29            6           29            6
    30           30           12           30           12
 NEqBas: 
              1            2            3            4
     1            1           16            1           16
     2            2           17            2           17
     3            3          -18            3          -18
     4            4          -19            4          -19
     5            5           20           -5          -20
     6            6           21            6           21
     7            7           22            7           22
     8            8          -23            8          -23
     9            9          -24            9          -24
    10           10           25          -10          -25
    11           11           55           11           55
    12           12           56           12           56
    13           13          -57           13          -57
    14           14          -58           14          -58
    15           15           59          -15          -59
    16           16            1           16            1
    17           17            2           17            2
    18           18           -3           18           -3
    19           19           -4           19           -4
    20           20            5          -20           -5
    21           21            6           21            6
    22           22            7           22            7
    23           23           -8           23           -8
    24           24           -9           24           -9
    25           25           10          -25          -10
    26           26           28           26           28
    27           27           60           27           60
    28           28           26           28           26
    29           29           42           29           42
    30           30           43           30           43
    31           31          -44           31          -44
    32           32          -45           32          -45
    33           33           46          -33          -46
    34           34           48           34           48
    35           35           49           35           49
    36           36          -50           36          -50
    37           37          -51           37          -51
    38           38           52          -38          -52
    39           39           53           39           53
    40           40           47           40           47
    41           41           54           41           54
    42           42           29           42           29
    43           43           30           43           30
    44           44          -31           44          -31
    45           45          -32           45          -32
    46           46           33          -46          -33
    47           47           40           47           40
    48           48           34           48           34
    49           49           35           49           35
    50           50          -36           50          -36
    51           51          -37           51          -37
    52           52           38          -52          -38
    53           53           39           53           39
    54           54           41           54           41
    55           55           11           55           11
    56           56           12           56           12
    57           57          -13           57          -13
    58           58          -14           58          -14
    59           59           15          -59          -15
    60           60           27           60           27
 There are    25 symmetry adapted cartesian basis functions of AG  symmetry.
   1         1  16  16   1
   2         2  17  17   2
   3         3 -18 -18   3
   4         4 -19 -19   4
   5         6  21  21   6
   6         7  22  22   7
   7         8 -23 -23   8
   8         9 -24 -24   9
   9        11  55  55  11
  10        12  56  56  12
  11        13 -57 -57  13
  12        14 -58 -58  14
  13        26  28  28  26
  14        27  60  60  27
  15        29  42  42  29
  16        30  43  43  30
  17        31 -44 -44  31
  18        32 -45 -45  32
  19        34  48  48  34
  20        35  49  49  35
  21        36 -50 -50  36
  22        37 -51 -51  37
  23        39  53  53  39
  24        40  47  47  40
  25        41  54  54  41
 There are     5 symmetry adapted cartesian basis functions of BG  symmetry.
  26         5 -20 -20   5
  27        10 -25 -25  10
  28        15 -59 -59  15
  29        33 -46 -46  33
  30        38 -52 -52  38
 There are     5 symmetry adapted cartesian basis functions of AU  symmetry.
  31         5  20  20   5
  32        10  25  25  10
  33        15  59  59  15
  34        33  46  46  33
  35        38  52  52  38
 There are    25 symmetry adapted cartesian basis functions of BU  symmetry.
  36         1 -16 -16   1
  37         2 -17 -17   2
  38         3  18  18   3
  39         4  19  19   4
  40         6 -21 -21   6
  41         7 -22 -22   7
  42         8  23  23   8
  43         9  24  24   9
  44        11 -55 -55  11
  45        12 -56 -56  12
  46        13  57  57  13
  47        14  58  58  14
  48        26 -28 -28  26
  49        27 -60 -60  27
  50        29 -42 -42  29
  51        30 -43 -43  30
  52        31  44  44  31
  53        32  45  45  32
  54        34 -48 -48  34
  55        35 -49 -49  35
  56        36  50  50  36
  57        37  51  51  37
  58        39 -53 -53  39
  59        40 -47 -47  40
  60        41 -54 -54  41
 Order= 1 4 2 3
 Reordered character table:
              1            2            3            4            5
     1            1            1            1            1            1
     2            4            1           -1            1           -1
     3            2            1           -1           -1            1
     4            3            1            1           -1           -1
 NEqShl: 
              1            2            3            4
     1            1            7            1            7
     2            2            8            2            8
     3            3            9            3            9
     4            4           10            4           10
     5            5           28            5           28
     6            6           29            6           29
     7            7            1            7            1
     8            8            2            8            2
     9            9            3            9            3
    10           10            4           10            4
    11           11           13           11           13
    12           12           30           12           30
    13           13           11           13           11
    14           14           21           14           21
    15           15           22           15           22
    16           16           24           16           24
    17           17           25           17           25
    18           18           26           18           26
    19           19           23           19           23
    20           20           27           20           27
    21           21           14           21           14
    22           22           15           22           15
    23           23           19           23           19
    24           24           16           24           16
    25           25           17           25           17
    26           26           18           26           18
    27           27           20           27           20
    28           28            5           28            5
    29           29            6           29            6
    30           30           12           30           12
 NEqBas: 
              1            2            3            4
     1            1           16            1           16
     2            2           17            2           17
     3            3          -18            3          -18
     4            4          -19            4          -19
     5            5           20           -5          -20
     6            6           21            6           21
     7            7           22            7           22
     8            8          -23            8          -23
     9            9          -24            9          -24
    10           10           25          -10          -25
    11           11           55           11           55
    12           12           56           12           56
    13           13          -57           13          -57
    14           14          -58           14          -58
    15           15           59          -15          -59
    16           16            1           16            1
    17           17            2           17            2
    18           18           -3           18           -3
    19           19           -4           19           -4
    20           20            5          -20           -5
    21           21            6           21            6
    22           22            7           22            7
    23           23           -8           23           -8
    24           24           -9           24           -9
    25           25           10          -25          -10
    26           26           28           26           28
    27           27           60           27           60
    28           28           26           28           26
    29           29           42           29           42
    30           30           43           30           43
    31           31          -44           31          -44
    32           32          -45           32          -45
    33           33           46          -33          -46
    34           34           48           34           48
    35           35           49           35           49
    36           36          -50           36          -50
    37           37          -51           37          -51
    38           38           52          -38          -52
    39           39           53           39           53
    40           40           47           40           47
    41           41           54           41           54
    42           42           29           42           29
    43           43           30           43           30
    44           44          -31           44          -31
    45           45          -32           45          -32
    46           46           33          -46          -33
    47           47           40           47           40
    48           48           34           48           34
    49           49           35           49           35
    50           50          -36           50          -36
    51           51          -37           51          -37
    52           52           38          -52          -38
    53           53           39           53           39
    54           54           41           54           41
    55           55           11           55           11
    56           56           12           56           12
    57           57          -13           57          -13
    58           58          -14           58          -14
    59           59           15          -59          -15
    60           60           27           60           27
 There are    25 symmetry adapted basis functions of AG  symmetry.
   1         1  16  16   1
   2         2  17  17   2
   3         3 -18 -18   3
   4         4 -19 -19   4
   5         6  21  21   6
   6         7  22  22   7
   7         8 -23 -23   8
   8         9 -24 -24   9
   9        11  55  55  11
  10        12  56  56  12
  11        13 -57 -57  13
  12        14 -58 -58  14
  13        26  28  28  26
  14        27  60  60  27
  15        29  42  42  29
  16        30  43  43  30
  17        31 -44 -44  31
  18        32 -45 -45  32
  19        34  48  48  34
  20        35  49  49  35
  21        36 -50 -50  36
  22        37 -51 -51  37
  23        39  53  53  39
  24        40  47  47  40
  25        41  54  54  41
 There are     5 symmetry adapted basis functions of BG  symmetry.
  26         5 -20 -20   5
  27        10 -25 -25  10
  28        15 -59 -59  15
  29        33 -46 -46  33
  30        38 -52 -52  38
 There are     5 symmetry adapted basis functions of AU  symmetry.
  31         5  20  20   5
  32        10  25  25  10
  33        15  59  59  15
  34        33  46  46  33
  35        38  52  52  38
 There are    25 symmetry adapted basis functions of BU  symmetry.
  36         1 -16 -16   1
  37         2 -17 -17   2
  38         3  18  18   3
  39         4  19  19   4
  40         6 -21 -21   6
  41         7 -22 -22   7
  42         8  23  23   8
  43         9  24  24   9
  44        11 -55 -55  11
  45        12 -56 -56  12
  46        13  57  57  13
  47        14  58  58  14
  48        26 -28 -28  26
  49        27 -60 -60  27
  50        29 -42 -42  29
  51        30 -43 -43  30
  52        31  44  44  31
  53        32  45  45  32
  54        34 -48 -48  34
  55        35 -49 -49  35
  56        36  50  50  36
  57        37  51  51  37
  58        39 -53 -53  39
  59        40 -47 -47  40
  60        41 -54 -54  41
 Order= 1 4 2 3
 Reordered character table:
              1            2            3            4            5
     1            1            1            1            1            1
     2            4            1           -1            1           -1
     3            2            1           -1           -1            1
     4            3            1            1           -1           -1
    60 basis functions,   180 primitive gaussians,    60 cartesian basis functions
    35 alpha electrons       35 beta electrons
       nuclear repulsion energy       445.8952146435 Hartrees.
 IS=     1 IAt=     1 ISR=     1 T=0 IP=      1 IndIP=      1 IndIPD=      0 C=  2.707814D+00  0.000000D+00                             NZ=T
 IS=     1 IAt=     1 ISR=     1 T=0 IP=      2 IndIP=      2 IndIPD=      1 C=  2.618880D+00  0.000000D+00                             NZ=T
 IS=     1 IAt=     1 ISR=     1 T=0 IP=      3 IndIP=      3 IndIPD=      2 C=  8.161906D-01  0.000000D+00                             NZ=T
 IS=     2 IAt=     1 ISR=     2 T=1 IP=      1 IndIP=      4 IndIPD=      0 C= -1.600172D-01  8.560445D-01                             NZ=T
 IS=     2 IAt=     1 ISR=     2 T=1 IP=      2 IndIP=      5 IndIPD=      1 C=  2.140359D-01  5.383038D-01                             NZ=T
 IS=     2 IAt=     1 ISR=     2 T=1 IP=      3 IndIP=      6 IndIPD=      2 C=  1.615361D-01  8.527636D-02                             NZ=T
 IS=     3 IAt=     2 ISR=     1 T=0 IP=      1 IndIP=      7 IndIPD=      0 C=  2.707814D+00  0.000000D+00                             NZ=T
 IS=     3 IAt=     2 ISR=     1 T=0 IP=      2 IndIP=      8 IndIPD=      1 C=  2.618880D+00  0.000000D+00                             NZ=T
 IS=     3 IAt=     2 ISR=     1 T=0 IP=      3 IndIP=      9 IndIPD=      2 C=  8.161906D-01  0.000000D+00                             NZ=T
 IS=     4 IAt=     2 ISR=     2 T=1 IP=      1 IndIP=     10 IndIPD=      0 C= -1.600172D-01  8.560445D-01                             NZ=T
 IS=     4 IAt=     2 ISR=     2 T=1 IP=      2 IndIP=     11 IndIPD=      1 C=  2.140359D-01  5.383038D-01                             NZ=T
 IS=     4 IAt=     2 ISR=     2 T=1 IP=      3 IndIP=     12 IndIPD=      2 C=  1.615361D-01  8.527636D-02                             NZ=T
 IS=     5 IAt=     3 ISR=     1 T=0 IP=      1 IndIP=     13 IndIPD=      0 C=  2.707814D+00  0.000000D+00                             NZ=T
 IS=     5 IAt=     3 ISR=     1 T=0 IP=      2 IndIP=     14 IndIPD=      1 C=  2.618880D+00  0.000000D+00                             NZ=T
 IS=     5 IAt=     3 ISR=     1 T=0 IP=      3 IndIP=     15 IndIPD=      2 C=  8.161906D-01  0.000000D+00                             NZ=T
 IS=     6 IAt=     3 ISR=     2 T=1 IP=      1 IndIP=     16 IndIPD=      0 C= -1.600172D-01  8.560445D-01                             NZ=T
 IS=     6 IAt=     3 ISR=     2 T=1 IP=      2 IndIP=     17 IndIPD=      1 C=  2.140359D-01  5.383038D-01                             NZ=T
 IS=     6 IAt=     3 ISR=     2 T=1 IP=      3 IndIP=     18 IndIPD=      2 C=  1.615361D-01  8.527636D-02                             NZ=T
 IS=     7 IAt=     4 ISR=     1 T=0 IP=      1 IndIP=     19 IndIPD=      0 C=  2.707814D+00  0.000000D+00                             NZ=T
 IS=     7 IAt=     4 ISR=     1 T=0 IP=      2 IndIP=     20 IndIPD=      1 C=  2.618880D+00  0.000000D+00                             NZ=T
 IS=     7 IAt=     4 ISR=     1 T=0 IP=      3 IndIP=     21 IndIPD=      2 C=  8.161906D-01  0.000000D+00                             NZ=T
 IS=     8 IAt=     4 ISR=     2 T=1 IP=      1 IndIP=     22 IndIPD=      0 C= -1.600172D-01  8.560445D-01                             NZ=T
 IS=     8 IAt=     4 ISR=     2 T=1 IP=      2 IndIP=     23 IndIPD=      1 C=  2.140359D-01  5.383038D-01                             NZ=T
 IS=     8 IAt=     4 ISR=     2 T=1 IP=      3 IndIP=     24 IndIPD=      2 C=  1.615361D-01  8.527636D-02                             NZ=T
 IS=     9 IAt=     5 ISR=     1 T=0 IP=      1 IndIP=     25 IndIPD=      0 C=  2.707814D+00  0.000000D+00                             NZ=T
 IS=     9 IAt=     5 ISR=     1 T=0 IP=      2 IndIP=     26 IndIPD=      1 C=  2.618880D+00  0.000000D+00                             NZ=T
 IS=     9 IAt=     5 ISR=     1 T=0 IP=      3 IndIP=     27 IndIPD=      2 C=  8.161906D-01  0.000000D+00                             NZ=T
 IS=    10 IAt=     5 ISR=     2 T=1 IP=      1 IndIP=     28 IndIPD=      0 C= -1.600172D-01  8.560445D-01                             NZ=T
 IS=    10 IAt=     5 ISR=     2 T=1 IP=      2 IndIP=     29 IndIPD=      1 C=  2.140359D-01  5.383038D-01                             NZ=T
 IS=    10 IAt=     5 ISR=     2 T=1 IP=      3 IndIP=     30 IndIPD=      2 C=  1.615361D-01  8.527636D-02                             NZ=T
 IS=    11 IAt=     6 ISR=     1 T=0 IP=      1 IndIP=     31 IndIPD=      0 C=  2.769344D-01  0.000000D+00                             NZ=T
 IS=    11 IAt=     6 ISR=     1 T=0 IP=      2 IndIP=     32 IndIPD=      1 C=  2.678389D-01  0.000000D+00                             NZ=T
 IS=    11 IAt=     6 ISR=     1 T=0 IP=      3 IndIP=     33 IndIPD=      2 C=  8.347367D-02  0.000000D+00                             NZ=T
 IS=    12 IAt=     7 ISR=     1 T=0 IP=      1 IndIP=     34 IndIPD=      0 C=  2.769344D-01  0.000000D+00                             NZ=T
 IS=    12 IAt=     7 ISR=     1 T=0 IP=      2 IndIP=     35 IndIPD=      1 C=  2.678389D-01  0.000000D+00                             NZ=T
 IS=    12 IAt=     7 ISR=     1 T=0 IP=      3 IndIP=     36 IndIPD=      2 C=  8.347367D-02  0.000000D+00                             NZ=T
 IS=    13 IAt=     8 ISR=     1 T=0 IP=      1 IndIP=     37 IndIPD=      0 C=  2.769344D-01  0.000000D+00                             NZ=T
 IS=    13 IAt=     8 ISR=     1 T=0 IP=      2 IndIP=     38 IndIPD=      1 C=  2.678389D-01  0.000000D+00                             NZ=T
 IS=    13 IAt=     8 ISR=     1 T=0 IP=      3 IndIP=     39 IndIPD=      2 C=  8.347367D-02  0.000000D+00                             NZ=T
 IS=    14 IAt=     9 ISR=     1 T=0 IP=      1 IndIP=     40 IndIPD=      0 C=  2.707814D+00  0.000000D+00                             NZ=T
 IS=    14 IAt=     9 ISR=     1 T=0 IP=      2 IndIP=     41 IndIPD=      1 C=  2.618880D+00  0.000000D+00                             NZ=T
 IS=    14 IAt=     9 ISR=     1 T=0 IP=      3 IndIP=     42 IndIPD=      2 C=  8.161906D-01  0.000000D+00                             NZ=T
 IS=    15 IAt=     9 ISR=     2 T=1 IP=      1 IndIP=     43 IndIPD=      0 C= -1.600172D-01  8.560445D-01                             NZ=T
 IS=    15 IAt=     9 ISR=     2 T=1 IP=      2 IndIP=     44 IndIPD=      1 C=  2.140359D-01  5.383038D-01                             NZ=T
 IS=    15 IAt=     9 ISR=     2 T=1 IP=      3 IndIP=     45 IndIPD=      2 C=  1.615361D-01  8.527636D-02                             NZ=T
 IS=    16 IAt=    10 ISR=     1 T=0 IP=      1 IndIP=     46 IndIPD=      0 C=  2.707814D+00  0.000000D+00                             NZ=T
 IS=    16 IAt=    10 ISR=     1 T=0 IP=      2 IndIP=     47 IndIPD=      1 C=  2.618880D+00  0.000000D+00                             NZ=T
 IS=    16 IAt=    10 ISR=     1 T=0 IP=      3 IndIP=     48 IndIPD=      2 C=  8.161906D-01  0.000000D+00                             NZ=T
 IS=    17 IAt=    10 ISR=     2 T=1 IP=      1 IndIP=     49 IndIPD=      0 C= -1.600172D-01  8.560445D-01                             NZ=T
 IS=    17 IAt=    10 ISR=     2 T=1 IP=      2 IndIP=     50 IndIPD=      1 C=  2.140359D-01  5.383038D-01                             NZ=T
 IS=    17 IAt=    10 ISR=     2 T=1 IP=      3 IndIP=     51 IndIPD=      2 C=  1.615361D-01  8.527636D-02                             NZ=T
 IS=    18 IAt=    11 ISR=     1 T=0 IP=      1 IndIP=     52 IndIPD=      0 C=  2.769344D-01  0.000000D+00                             NZ=T
 IS=    18 IAt=    11 ISR=     1 T=0 IP=      2 IndIP=     53 IndIPD=      1 C=  2.678389D-01  0.000000D+00                             NZ=T
 IS=    18 IAt=    11 ISR=     1 T=0 IP=      3 IndIP=     54 IndIPD=      2 C=  8.347367D-02  0.000000D+00                             NZ=T
 IS=    19 IAt=    12 ISR=     1 T=0 IP=      1 IndIP=     55 IndIPD=      0 C=  2.769344D-01  0.000000D+00                             NZ=T
 IS=    19 IAt=    12 ISR=     1 T=0 IP=      2 IndIP=     56 IndIPD=      1 C=  2.678389D-01  0.000000D+00                             NZ=T
 IS=    19 IAt=    12 ISR=     1 T=0 IP=      3 IndIP=     57 IndIPD=      2 C=  8.347367D-02  0.000000D+00                             NZ=T
 IS=    20 IAt=    13 ISR=     1 T=0 IP=      1 IndIP=     58 IndIPD=      0 C=  2.769344D-01  0.000000D+00                             NZ=T
 IS=    20 IAt=    13 ISR=     1 T=0 IP=      2 IndIP=     59 IndIPD=      1 C=  2.678389D-01  0.000000D+00                             NZ=T
 IS=    20 IAt=    13 ISR=     1 T=0 IP=      3 IndIP=     60 IndIPD=      2 C=  8.347367D-02  0.000000D+00                             NZ=T
 IS=    21 IAt=    14 ISR=     1 T=0 IP=      1 IndIP=     61 IndIPD=      0 C=  2.707814D+00  0.000000D+00                             NZ=T
 IS=    21 IAt=    14 ISR=     1 T=0 IP=      2 IndIP=     62 IndIPD=      1 C=  2.618880D+00  0.000000D+00                             NZ=T
 IS=    21 IAt=    14 ISR=     1 T=0 IP=      3 IndIP=     63 IndIPD=      2 C=  8.161906D-01  0.000000D+00                             NZ=T
 IS=    22 IAt=    14 ISR=     2 T=1 IP=      1 IndIP=     64 IndIPD=      0 C= -1.600172D-01  8.560445D-01                             NZ=T
 IS=    22 IAt=    14 ISR=     2 T=1 IP=      2 IndIP=     65 IndIPD=      1 C=  2.140359D-01  5.383038D-01                             NZ=T
 IS=    22 IAt=    14 ISR=     2 T=1 IP=      3 IndIP=     66 IndIPD=      2 C=  1.615361D-01  8.527636D-02                             NZ=T
 IS=    23 IAt=    15 ISR=     1 T=0 IP=      1 IndIP=     67 IndIPD=      0 C=  2.769344D-01  0.000000D+00                             NZ=T
 IS=    23 IAt=    15 ISR=     1 T=0 IP=      2 IndIP=     68 IndIPD=      1 C=  2.678389D-01  0.000000D+00                             NZ=T
 IS=    23 IAt=    15 ISR=     1 T=0 IP=      3 IndIP=     69 IndIPD=      2 C=  8.347367D-02  0.000000D+00                             NZ=T
 IS=    24 IAt=    16 ISR=     1 T=0 IP=      1 IndIP=     70 IndIPD=      0 C=  2.707814D+00  0.000000D+00                             NZ=T
 IS=    24 IAt=    16 ISR=     1 T=0 IP=      2 IndIP=     71 IndIPD=      1 C=  2.618880D+00  0.000000D+00                             NZ=T
 IS=    24 IAt=    16 ISR=     1 T=0 IP=      3 IndIP=     72 IndIPD=      2 C=  8.161906D-01  0.000000D+00                             NZ=T
 IS=    25 IAt=    16 ISR=     2 T=1 IP=      1 IndIP=     73 IndIPD=      0 C= -1.600172D-01  8.560445D-01                             NZ=T
 IS=    25 IAt=    16 ISR=     2 T=1 IP=      2 IndIP=     74 IndIPD=      1 C=  2.140359D-01  5.383038D-01                             NZ=T
 IS=    25 IAt=    16 ISR=     2 T=1 IP=      3 IndIP=     75 IndIPD=      2 C=  1.615361D-01  8.527636D-02                             NZ=T
 IS=    26 IAt=    17 ISR=     1 T=0 IP=      1 IndIP=     76 IndIPD=      0 C=  2.769344D-01  0.000000D+00                             NZ=T
 IS=    26 IAt=    17 ISR=     1 T=0 IP=      2 IndIP=     77 IndIPD=      1 C=  2.678389D-01  0.000000D+00                             NZ=T
 IS=    26 IAt=    17 ISR=     1 T=0 IP=      3 IndIP=     78 IndIPD=      2 C=  8.347367D-02  0.000000D+00                             NZ=T
 IS=    27 IAt=    18 ISR=     1 T=0 IP=      1 IndIP=     79 IndIPD=      0 C=  2.769344D-01  0.000000D+00                             NZ=T
 IS=    27 IAt=    18 ISR=     1 T=0 IP=      2 IndIP=     80 IndIPD=      1 C=  2.678389D-01  0.000000D+00                             NZ=T
 IS=    27 IAt=    18 ISR=     1 T=0 IP=      3 IndIP=     81 IndIPD=      2 C=  8.347367D-02  0.000000D+00                             NZ=T
 IS=    28 IAt=    19 ISR=     1 T=0 IP=      1 IndIP=     82 IndIPD=      0 C=  2.707814D+00  0.000000D+00                             NZ=T
 IS=    28 IAt=    19 ISR=     1 T=0 IP=      2 IndIP=     83 IndIPD=      1 C=  2.618880D+00  0.000000D+00                             NZ=T
 IS=    28 IAt=    19 ISR=     1 T=0 IP=      3 IndIP=     84 IndIPD=      2 C=  8.161906D-01  0.000000D+00                             NZ=T
 IS=    29 IAt=    19 ISR=     2 T=1 IP=      1 IndIP=     85 IndIPD=      0 C= -1.600172D-01  8.560445D-01                             NZ=T
 IS=    29 IAt=    19 ISR=     2 T=1 IP=      2 IndIP=     86 IndIPD=      1 C=  2.140359D-01  5.383038D-01                             NZ=T
 IS=    29 IAt=    19 ISR=     2 T=1 IP=      3 IndIP=     87 IndIPD=      2 C=  1.615361D-01  8.527636D-02                             NZ=T
 IS=    30 IAt=    20 ISR=     1 T=0 IP=      1 IndIP=     88 IndIPD=      0 C=  2.769344D-01  0.000000D+00                             NZ=T
 IS=    30 IAt=    20 ISR=     1 T=0 IP=      2 IndIP=     89 IndIPD=      1 C=  2.678389D-01  0.000000D+00                             NZ=T
 IS=    30 IAt=    20 ISR=     1 T=0 IP=      3 IndIP=     90 IndIPD=      2 C=  8.347367D-02  0.000000D+00                             NZ=T
 IExCor=  402 DFT=T Ex+Corr=B3LYP ExCW=0 ScaHFX=  0.200000
 ScaDFX=  0.800000  0.720000  1.000000  0.810000 ScalE2=  1.000000  1.000000
 IRadAn=      5 IRanWt=     -1 IRanGd=            0 ICorTp=0 IEmpDi=  4
 NAtoms=   20 NActive=   20 NUniq=   10 SFac= 4.00D+00 NAtFMM=   60 NAOKFM=F Big=F
 Integral buffers will be    131072 words long.
 Raffenetti 2 integral format.
 Two-electron integral symmetry is turned on.
 Leave Link  301 at Thu Apr  5 09:06:02 2018, MaxMem=    52428800 cpu:               0.1 elap:               0.1
 (Enter /software/Gaussian16/g16_sse4/g16/l302.exe)
 NPDir=0 NMtPBC=     1 NCelOv=     1 NCel=       1 NClECP=     1 NCelD=      1
         NCelK=      1 NCelE2=     1 NClLst=     1 CellRange=     0.0.
 One-electron integrals computed using PRISM.
 One-electron integral symmetry used in STVInt
 Entering OneElI...
 Calculate overlap and kinetic energy integrals
    NBasis =  60  MinDer = 0  MaxDer = 0
 Requested accuracy = 0.1000D-12
 Symmetry will be used
 PrmmSu-InSpLW:  IPartL=    0 NPrtUS=    1 NPrtUL=    1 DoSpLW=F IThBeg=    0 IThEnd=    0 NThAct=    1.
 PrsmSu:  NPrtUS=   1 ThrOK=F IAlg=1 NPAlg=1 LenDen=           0 ISkipM=0 DoSpLW=F IThBeg=    0 IThEnd=    0.
 Prism:   IPart=     0 DynPar=F LinDyn=F Incr=           4.
 PRISM was handed    52366968 working-precision words and   442 shell-pairs
 IPart=  0 NShTot=         226 NBatch=          19 AvBLen=        11.9
 PrSmSu:  NxtVal=              5.
 *** Overlap *** 
                1             2             3             4             5 
      1  0.100000D+01
      2  0.248362D+00  0.100000D+01
      3  0.000000D+00  0.000000D+00  0.100000D+01
      4  0.000000D+00  0.000000D+00  0.000000D+00  0.100000D+01
      5  0.000000D+00  0.000000D+00  0.000000D+00  0.000000D+00  0.100000D+01
      6  0.000000D+00  0.356456D-01 -0.555175D-01 -0.203664D-01  0.000000D+00
      7  0.356456D-01  0.354136D+00 -0.356932D+00 -0.130939D+00  0.000000D+00
      8  0.555175D-01  0.356932D+00 -0.263829D+00 -0.171978D+00  0.000000D+00
      9  0.203664D-01  0.130939D+00 -0.171978D+00  0.141884D+00  0.000000D+00
     10  0.000000D+00  0.000000D+00  0.000000D+00  0.000000D+00  0.204973D+00
     11  0.000000D+00  0.159338D-02 -0.242045D-02 -0.283377D-02  0.000000D+00
     12  0.159338D-02  0.563308D-01 -0.543503D-01 -0.636314D-01  0.000000D+00
     13  0.242045D-02  0.543503D-01 -0.343590D-01 -0.675904D-01  0.000000D+00
     14  0.283377D-02  0.636314D-01 -0.675904D-01 -0.557596D-01  0.000000D+00
     15  0.000000D+00  0.000000D+00  0.000000D+00  0.000000D+00  0.233729D-01
     16  0.000000D+00  0.298131D-03 -0.152754D-03 -0.799427D-03  0.000000D+00
     17  0.298131D-03  0.216810D-01 -0.665418D-02 -0.348241D-01  0.000000D+00
     18  0.152754D-03  0.665418D-02  0.604764D-02 -0.114765D-01  0.000000D+00
     19  0.799427D-03  0.348241D-01 -0.114765D-01 -0.518205D-01  0.000000D+00
     20  0.000000D+00  0.000000D+00  0.000000D+00  0.000000D+00  0.824056D-02
     21  0.000000D+00  0.155139D-02  0.117519D-02 -0.344394D-02  0.000000D+00
     22  0.155139D-02  0.554678D-01  0.266585D-01 -0.781239D-01  0.000000D+00
     23 -0.117519D-02 -0.266585D-01  0.887822D-02  0.413153D-01  0.000000D+00
     24  0.344394D-02  0.781239D-01  0.413153D-01 -0.981002D-01  0.000000D+00
     25  0.000000D+00  0.000000D+00  0.000000D+00  0.000000D+00  0.229764D-01
     26  0.503535D-02  0.922559D-01 -0.119239D+00  0.119245D-01  0.000000D+00
     27  0.803151D-04  0.592287D-02 -0.754843D-02 -0.637056D-02  0.000000D+00
     28  0.794284D-04  0.588183D-02  0.465125D-02 -0.864135D-02  0.000000D+00
     29  0.000000D+00  0.000000D+00  0.000000D+00  0.000000D+00  0.000000D+00
     30  0.000000D+00  0.256697D-03 -0.113763D-03 -0.557663D-03  0.000000D+00
     31  0.000000D+00  0.113763D-03  0.314767D-04 -0.250223D-03  0.000000D+00
     32  0.000000D+00  0.557663D-03 -0.250223D-03 -0.114407D-02  0.000000D+00
     33  0.000000D+00  0.000000D+00  0.000000D+00  0.000000D+00  0.825220D-04
     34  0.000000D+00  0.000000D+00  0.000000D+00  0.000000D+00  0.000000D+00
     35  0.000000D+00  0.700967D-05  0.000000D+00 -0.185919D-04  0.000000D+00
     36  0.000000D+00  0.000000D+00  0.220617D-05  0.000000D+00  0.000000D+00
     37  0.000000D+00  0.185919D-04  0.000000D+00 -0.472093D-04  0.000000D+00
     38  0.000000D+00  0.000000D+00  0.000000D+00  0.000000D+00  0.220617D-05
     39  0.000000D+00  0.231584D-04  0.109451D-04 -0.519410D-04  0.000000D+00
     40  0.000000D+00  0.819330D-04 -0.701392D-04 -0.161761D-03  0.000000D+00
     41  0.000000D+00  0.000000D+00  0.000000D+00  0.000000D+00  0.000000D+00
     42  0.000000D+00  0.295668D-01  0.110065D-01  0.480721D-01  0.000000D+00
     43  0.295668D-01  0.317711D+00  0.785766D-01  0.343192D+00  0.000000D+00
     44 -0.110065D-01 -0.785766D-01  0.153181D+00 -0.108321D+00  0.000000D+00
     45 -0.480721D-01 -0.343192D+00 -0.108321D+00 -0.295123D+00  0.000000D+00
     46  0.000000D+00  0.000000D+00  0.000000D+00  0.000000D+00  0.177982D+00
     47  0.490618D-02  0.905535D-01  0.758704D-01  0.902461D-01  0.000000D+00
     48  0.000000D+00  0.115868D-02 -0.594367D-03  0.273746D-02  0.000000D+00
     49  0.115868D-02  0.468799D-01 -0.150826D-01  0.694657D-01  0.000000D+00
     50  0.594367D-03  0.150826D-01  0.137693D-01  0.244623D-01  0.000000D+00
     51 -0.273746D-02 -0.694657D-01  0.244623D-01 -0.935846D-01  0.000000D+00
     52  0.000000D+00  0.000000D+00  0.000000D+00  0.000000D+00  0.190806D-01
     53  0.733096D-03  0.245124D-01 -0.209556D-01  0.300825D-01  0.000000D+00
     54  0.577463D-04  0.481980D-02 -0.450944D-03  0.813858D-02  0.000000D+00
     55  0.000000D+00  0.355365D-01  0.437666D-01 -0.395023D-01  0.000000D+00
     56  0.355365D-01  0.353512D+00  0.281890D+00 -0.254425D+00  0.000000D+00
     57 -0.437666D-01 -0.281890D+00 -0.883123D-01  0.264282D+00  0.000000D+00
     58  0.395023D-01  0.254425D+00  0.264282D+00 -0.340330D-01  0.000000D+00
     59  0.000000D+00  0.000000D+00  0.000000D+00  0.000000D+00  0.204499D+00
     60  0.511385D-02  0.932855D-01  0.116367D+00 -0.331597D-01  0.000000D+00
                6             7             8             9            10 
      6  0.100000D+01
      7  0.248362D+00  0.100000D+01
      8  0.000000D+00  0.000000D+00  0.100000D+01
      9  0.000000D+00  0.000000D+00  0.000000D+00  0.100000D+01
     10  0.000000D+00  0.000000D+00  0.000000D+00  0.000000D+00  0.100000D+01
     11  0.000000D+00  0.373171D-01 -0.115002D-01 -0.607972D-01  0.000000D+00
     12  0.373171D-01  0.363569D+00 -0.719491D-01 -0.380368D+00  0.000000D+00
     13  0.115002D-01  0.719491D-01  0.193541D+00 -0.986234D-01  0.000000D+00
     14  0.607972D-01  0.380368D+00 -0.986234D-01 -0.309188D+00  0.000000D+00
     15  0.000000D+00  0.000000D+00  0.000000D+00  0.000000D+00  0.212197D+00
     16  0.000000D+00  0.155139D-02  0.117519D-02 -0.344394D-02  0.000000D+00
     17  0.155139D-02  0.554678D-01  0.266585D-01 -0.781239D-01  0.000000D+00
     18 -0.117519D-02 -0.266585D-01  0.887822D-02  0.413153D-01  0.000000D+00
     19  0.344394D-02  0.781239D-01  0.413153D-01 -0.981002D-01  0.000000D+00
     20  0.000000D+00  0.000000D+00  0.000000D+00  0.000000D+00  0.229764D-01
     21  0.000000D+00  0.379396D-03  0.768298D-03 -0.664305D-03  0.000000D+00
     22  0.379396D-03  0.248323D-01  0.303423D-01 -0.262354D-01  0.000000D+00
     23 -0.768298D-03 -0.303423D-01 -0.303882D-01  0.345243D-01  0.000000D+00
     24  0.664305D-03  0.262354D-01  0.345243D-01 -0.203107D-01  0.000000D+00
     25  0.000000D+00  0.000000D+00  0.000000D+00  0.000000D+00  0.954060D-02
     26  0.611804D-01  0.486391D+00 -0.355469D+00  0.299239D+00  0.000000D+00
     27  0.527002D-02  0.953225D-01 -0.739685D-01 -0.986476D-01  0.000000D+00
     28  0.109529D-04  0.173142D-02  0.237390D-02 -0.203726D-02  0.000000D+00
     29  0.000000D+00  0.247925D-05  0.108476D-05 -0.891765D-05  0.000000D+00
     30  0.247925D-05  0.157355D-02  0.377385D-03 -0.310244D-02  0.000000D+00
     31 -0.108476D-05 -0.377385D-03  0.431118D-03  0.765115D-03  0.000000D+00
     32  0.891765D-05  0.310244D-02  0.765115D-03 -0.576573D-02  0.000000D+00
     33  0.000000D+00  0.000000D+00  0.000000D+00  0.000000D+00  0.524188D-03
     34  0.000000D+00  0.000000D+00  0.000000D+00  0.000000D+00  0.000000D+00
     35  0.000000D+00  0.247420D-04  0.165556D-04 -0.597181D-04  0.000000D+00
     36  0.000000D+00 -0.165556D-04 -0.330571D-05  0.401176D-04  0.000000D+00
     37  0.000000D+00  0.597181D-04  0.401176D-04 -0.136893D-03  0.000000D+00
     38  0.000000D+00  0.000000D+00  0.000000D+00  0.000000D+00  0.781606D-05
     39  0.000000D+00  0.241914D-04  0.254888D-04 -0.491138D-04  0.000000D+00
     40  0.559025D-05  0.115032D-02 -0.324110D-03 -0.210663D-02  0.000000D+00
     41  0.000000D+00  0.174870D-05  0.000000D+00 -0.442413D-05  0.000000D+00
     42  0.000000D+00  0.104761D-02  0.166360D-02  0.194361D-02  0.000000D+00
     43  0.104761D-02  0.442446D-01  0.438972D-01  0.512856D-01  0.000000D+00
     44 -0.166360D-02 -0.438972D-01 -0.296858D-01 -0.555998D-01  0.000000D+00
     45 -0.194361D-02 -0.512856D-01 -0.555998D-01 -0.470540D-01  0.000000D+00
     46  0.000000D+00  0.000000D+00  0.000000D+00  0.000000D+00  0.179039D-01
     47  0.647997D-04  0.517891D-02  0.683975D-02  0.540251D-02  0.000000D+00
     48  0.000000D+00  0.118686D-03  0.897120D-04  0.335166D-03  0.000000D+00
     49  0.118686D-03  0.129626D-01  0.572522D-02  0.213896D-01  0.000000D+00
     50 -0.897120D-04 -0.572522D-02  0.206248D-02 -0.100388D-01  0.000000D+00
     51 -0.335166D-03 -0.213896D-01 -0.100388D-01 -0.327559D-01  0.000000D+00
     52  0.000000D+00  0.000000D+00  0.000000D+00  0.000000D+00  0.474952D-02
     53  0.747078D-03  0.248210D-01 -0.379630D-02  0.368877D-01  0.000000D+00
     54  0.325873D-05  0.829883D-03  0.428297D-03  0.150872D-02  0.000000D+00
     55  0.000000D+00  0.172137D-02  0.391965D-02 -0.760265D-03  0.000000D+00
     56  0.172137D-02  0.589065D-01  0.854660D-01 -0.165772D-01  0.000000D+00
     57 -0.391965D-02 -0.854660D-01 -0.112163D+00  0.265194D-01  0.000000D+00
     58  0.760265D-03  0.165772D-01  0.265194D-01  0.194177D-01  0.000000D+00
     59  0.000000D+00  0.000000D+00  0.000000D+00  0.000000D+00  0.245614D-01
     60  0.855248D-04  0.616088D-02  0.102415D-01 -0.321382D-03  0.000000D+00
               11            12            13            14            15 
     11  0.100000D+01
     12  0.248362D+00  0.100000D+01
     13  0.000000D+00  0.000000D+00  0.100000D+01
     14  0.000000D+00  0.000000D+00  0.000000D+00  0.100000D+01
     15  0.000000D+00  0.000000D+00  0.000000D+00  0.000000D+00  0.100000D+01
     16  0.000000D+00  0.355365D-01  0.437666D-01 -0.395023D-01  0.000000D+00
     17  0.355365D-01  0.353512D+00  0.281890D+00 -0.254425D+00  0.000000D+00
     18 -0.437666D-01 -0.281890D+00 -0.883123D-01  0.264282D+00  0.000000D+00
     19  0.395023D-01  0.254425D+00  0.264282D+00 -0.340330D-01  0.000000D+00
     20  0.000000D+00  0.000000D+00  0.000000D+00  0.000000D+00  0.204499D+00
     21  0.000000D+00  0.172137D-02  0.391965D-02 -0.760265D-03  0.000000D+00
     22  0.172137D-02  0.589065D-01  0.854660D-01 -0.165772D-01  0.000000D+00
     23 -0.391965D-02 -0.854660D-01 -0.112163D+00  0.265194D-01  0.000000D+00
     24  0.760265D-03  0.165772D-01  0.265194D-01  0.194177D-01  0.000000D+00
     25  0.000000D+00  0.000000D+00  0.000000D+00  0.000000D+00  0.245614D-01
     26  0.531624D-02  0.959225D-01 -0.331828D-01  0.119452D+00  0.000000D+00
     27  0.610317D-01  0.485793D+00 -0.439243D+00 -0.150440D+00  0.000000D+00
     28  0.841132D-04  0.609691D-02  0.954029D-02 -0.345729D-02  0.000000D+00
     29  0.000000D+00  0.125698D-02  0.863649D-03 -0.288748D-02  0.000000D+00
     30  0.125698D-02  0.491280D-01  0.212376D-01 -0.710049D-01  0.000000D+00
     31 -0.863649D-03 -0.212376D-01  0.100284D-01  0.336447D-01  0.000000D+00
     32  0.288748D-02  0.710049D-01  0.336447D-01 -0.923944D-01  0.000000D+00
     33  0.000000D+00  0.000000D+00  0.000000D+00  0.000000D+00  0.200915D-01
     34  0.000000D+00  0.296871D-05  0.449297D-05 -0.967712D-05  0.000000D+00
     35  0.296871D-05  0.173367D-02  0.144092D-02 -0.310350D-02  0.000000D+00
     36 -0.449297D-05 -0.144092D-02 -0.653746D-03  0.265549D-02  0.000000D+00
     37  0.967712D-05  0.310350D-02  0.265549D-02 -0.514033D-02  0.000000D+00
     38  0.000000D+00  0.000000D+00  0.000000D+00  0.000000D+00  0.579168D-03
     39  0.232424D-05  0.676845D-03  0.818540D-03 -0.100319D-02  0.000000D+00
     40  0.132573D-02  0.364358D-01 -0.704661D-02 -0.520503D-01  0.000000D+00
     41  0.000000D+00  0.191885D-03  0.106202D-03 -0.379939D-03  0.000000D+00
     42  0.000000D+00  0.211738D-05  0.387563D-05  0.668418D-05  0.000000D+00
     43  0.211738D-05  0.144564D-02  0.144814D-02  0.249755D-02  0.000000D+00
     44 -0.387563D-05 -0.144814D-02 -0.100980D-02 -0.257015D-02  0.000000D+00
     45 -0.668418D-05 -0.249755D-02 -0.257015D-02 -0.395224D-02  0.000000D+00
     46  0.000000D+00  0.000000D+00  0.000000D+00  0.000000D+00  0.480429D-03
     47  0.000000D+00  0.190126D-03  0.252901D-03  0.298310D-03  0.000000D+00
     48  0.000000D+00  0.000000D+00  0.000000D+00  0.000000D+00  0.000000D+00
     49  0.000000D+00  0.175593D-03  0.938319D-04  0.386467D-03  0.000000D+00
     50  0.000000D+00 -0.938319D-04  0.554205D-05 -0.208663D-03  0.000000D+00
     51  0.000000D+00 -0.386467D-03 -0.208663D-03 -0.803216D-03  0.000000D+00
     52  0.000000D+00  0.000000D+00  0.000000D+00  0.000000D+00  0.562041D-04
     53  0.283615D-05  0.763151D-03 -0.102808D-04  0.144944D-02  0.000000D+00
     54  0.000000D+00  0.748383D-05  0.454091D-05  0.174873D-04  0.000000D+00
     55  0.000000D+00  0.398010D-03  0.100329D-02  0.345981D-03  0.000000D+00
     56  0.398010D-03  0.255125D-01  0.388621D-01  0.134015D-01  0.000000D+00
     57 -0.100329D-02 -0.388621D-01 -0.539690D-01 -0.219987D-01  0.000000D+00
     58 -0.345981D-03 -0.134015D-01 -0.219987D-01  0.223736D-02  0.000000D+00
     59  0.000000D+00  0.000000D+00  0.000000D+00  0.000000D+00  0.982358D-02
     60  0.114699D-04  0.178082D-02  0.303698D-02  0.104529D-02  0.000000D+00
               16            17            18            19            20 
     16  0.100000D+01
     17  0.248362D+00  0.100000D+01
     18  0.000000D+00  0.000000D+00  0.100000D+01
     19  0.000000D+00  0.000000D+00  0.000000D+00  0.100000D+01
     20  0.000000D+00  0.000000D+00  0.000000D+00  0.000000D+00  0.100000D+01
     21  0.000000D+00  0.356456D-01  0.555175D-01  0.203664D-01  0.000000D+00
     22  0.356456D-01  0.354136D+00  0.356932D+00  0.130939D+00  0.000000D+00
     23 -0.555175D-01 -0.356932D+00 -0.263829D+00 -0.171978D+00  0.000000D+00
     24 -0.203664D-01 -0.130939D+00 -0.171978D+00  0.141884D+00  0.000000D+00
     25  0.000000D+00  0.000000D+00  0.000000D+00  0.000000D+00  0.204973D+00
     26  0.794284D-04  0.588183D-02 -0.465125D-02  0.864135D-02  0.000000D+00
     27  0.511385D-02  0.932855D-01 -0.116367D+00  0.331597D-01  0.000000D+00
     28  0.503535D-02  0.922559D-01  0.119239D+00 -0.119245D-01  0.000000D+00
     29  0.000000D+00  0.295668D-01 -0.110065D-01 -0.480721D-01  0.000000D+00
     30  0.295668D-01  0.317711D+00 -0.785766D-01 -0.343192D+00  0.000000D+00
     31  0.110065D-01  0.785766D-01  0.153181D+00 -0.108321D+00  0.000000D+00
     32  0.480721D-01  0.343192D+00 -0.108321D+00 -0.295123D+00  0.000000D+00
     33  0.000000D+00  0.000000D+00  0.000000D+00  0.000000D+00  0.177982D+00
     34  0.000000D+00  0.115868D-02  0.594367D-03 -0.273746D-02  0.000000D+00
     35  0.115868D-02  0.468799D-01  0.150826D-01 -0.694657D-01  0.000000D+00
     36 -0.594367D-03 -0.150826D-01  0.137693D-01  0.244623D-01  0.000000D+00
     37  0.273746D-02  0.694657D-01  0.244623D-01 -0.935846D-01  0.000000D+00
     38  0.000000D+00  0.000000D+00  0.000000D+00  0.000000D+00  0.190806D-01
     39  0.733096D-03  0.245124D-01  0.209556D-01 -0.300825D-01  0.000000D+00
     40  0.490618D-02  0.905535D-01 -0.758704D-01 -0.902461D-01  0.000000D+00
     41  0.577463D-04  0.481980D-02  0.450944D-03 -0.813858D-02  0.000000D+00
     42  0.000000D+00  0.000000D+00  0.000000D+00  0.000000D+00  0.000000D+00
     43  0.000000D+00  0.256697D-03  0.113763D-03  0.557663D-03  0.000000D+00
     44  0.000000D+00 -0.113763D-03  0.314767D-04 -0.250223D-03  0.000000D+00
     45  0.000000D+00 -0.557663D-03 -0.250223D-03 -0.114407D-02  0.000000D+00
     46  0.000000D+00  0.000000D+00  0.000000D+00  0.000000D+00  0.825220D-04
     47  0.000000D+00  0.819330D-04  0.701392D-04  0.161761D-03  0.000000D+00
     48  0.000000D+00  0.000000D+00  0.000000D+00  0.000000D+00  0.000000D+00
     49  0.000000D+00  0.700967D-05  0.000000D+00  0.185919D-04  0.000000D+00
     50  0.000000D+00  0.000000D+00  0.220617D-05  0.000000D+00  0.000000D+00
     51  0.000000D+00 -0.185919D-04  0.000000D+00 -0.472093D-04  0.000000D+00
     52  0.000000D+00  0.000000D+00  0.000000D+00  0.000000D+00  0.220617D-05
     53  0.000000D+00  0.231584D-04 -0.109451D-04  0.519410D-04  0.000000D+00
[...]
  49        2S         -0.00000   0.00000   0.00000   0.00000  -0.00000
  50        2PX        -0.00000   0.00000  -0.00000  -0.00000   0.00000
  51        2PY        -0.00000  -0.00000  -0.00000   0.00000  -0.00000
  52        2PZ         0.00000   0.00000  -0.00000   0.00000  -0.00000
  53 17  H  1S         -0.00000   0.00000   0.00000   0.00000  -0.00000
  54 18  H  1S         -0.00000  -0.00000  -0.00000  -0.00000   0.00000
  55 19  C  1S         -0.00000  -0.00000  -0.00000   0.00000  -0.00000
  56        2S          0.00004   0.00013   0.00000  -0.00000   0.00000
  57        2PX         0.00000   0.00004  -0.00000  -0.00000   0.00000
  58        2PY         0.00007   0.00027  -0.00000  -0.00000   0.00000
  59        2PZ         0.00000   0.00000  -0.00002  -0.00000   0.00000
  60 20  H  1S         -0.00000  -0.00001  -0.00000   0.00000  -0.00000
                          36        37        38        39        40
  36        2PX         0.62075
  37        2PY         0.00000   0.61435
  38        2PZ         0.00000   0.00000   0.82963
  39 11  H  1S          0.25065   0.00580   0.00000   0.58675
  40 12  H  1S         -0.01484  -0.00204   0.00000   0.00204   0.59546
  41 13  H  1S          0.02753   0.22810   0.00000  -0.02373  -0.00509
  42 14  C  1S         -0.00000   0.00000  -0.00000   0.00000   0.00000
  43        2S          0.00000  -0.00000   0.00000  -0.00000  -0.00000
  44        2PX        -0.00000  -0.00000   0.00000  -0.00000   0.00000
  45        2PY         0.00000  -0.00000   0.00000   0.00000  -0.00000
  46        2PZ         0.00000   0.00000  -0.00000   0.00000   0.00000
  47 15  H  1S          0.00000   0.00000   0.00000  -0.00000   0.00000
  48 16  C  1S         -0.00000   0.00000   0.00000   0.00000  -0.00000
  49        2S          0.00000  -0.00000  -0.00000  -0.00000   0.00000
  50        2PX        -0.00000   0.00000  -0.00000   0.00000   0.00000
  51        2PY         0.00000  -0.00000   0.00000   0.00000   0.00000
  52        2PZ        -0.00000   0.00000  -0.00000  -0.00000   0.00000
  53 17  H  1S          0.00000   0.00000  -0.00000  -0.00000  -0.00000
  54 18  H  1S         -0.00000   0.00000   0.00000   0.00000  -0.00000
  55 19  C  1S         -0.00000  -0.00000  -0.00000   0.00000   0.00000
  56        2S          0.00000   0.00000   0.00000  -0.00000  -0.00001
  57        2PX         0.00000   0.00000  -0.00000  -0.00000  -0.00000
  58        2PY         0.00000   0.00000   0.00000  -0.00001  -0.00001
  59        2PZ         0.00000  -0.00000   0.00000  -0.00000  -0.00000
  60 20  H  1S          0.00000  -0.00000   0.00000   0.00000   0.00000
                          41        42        43        44        45
  41 13  H  1S          0.58396
  42 14  C  1S         -0.00000   2.06714
  43        2S          0.00000  -0.05110   0.83170
  44        2PX        -0.00000   0.00000   0.00000   0.62412
  45        2PY        -0.00000   0.00000   0.00000  -0.00000   0.59091
  46        2PZ        -0.00000   0.00000   0.00000   0.00000   0.00000
  47 15  H  1S         -0.00000  -0.00677   0.13497   0.24755   0.01050
  48 16  C  1S         -0.00000   0.00000  -0.00318  -0.00390  -0.00485
  49        2S          0.00000  -0.00318   0.03636   0.05603   0.06352
  50        2PX        -0.00000  -0.00355   0.04793   0.00042   0.06457
  51        2PY         0.00000  -0.00519   0.07290   0.06797   0.02125
  52        2PZ         0.00000  -0.00000   0.00000   0.00000  -0.00000
  53 17  H  1S          0.00000   0.00014  -0.00773  -0.01408  -0.00214
  54 18  H  1S         -0.00000   0.00017  -0.00976  -0.00065  -0.01380
  55 19  C  1S         -0.00000  -0.00000   0.00003   0.00001   0.00006
  56        2S          0.00000   0.00003  -0.00376  -0.00091  -0.00606
  57        2PX        -0.00000   0.00000  -0.00026  -0.00015  -0.00167
  58        2PY         0.00000   0.00007  -0.00720  -0.00034  -0.00779
  59        2PZ         0.00000   0.00000  -0.00000  -0.00000  -0.00000
  60 20  H  1S         -0.00000   0.00002  -0.00187  -0.00019  -0.00186
                          46        47        48        49        50
  46        2PZ         0.78661
  47 15  H  1S          0.00000   0.59546
  48 16  C  1S         -0.00000   0.00018   2.06711
  49        2S          0.00000  -0.01096  -0.05059   0.81916
  50        2PX         0.00000  -0.01484   0.00000   0.00000   0.62075
  51        2PY         0.00000  -0.00204   0.00000   0.00000   0.00000
  52        2PZ         0.17898  -0.00000   0.00000   0.00000   0.00000
  53 17  H  1S         -0.00000   0.00204  -0.00692   0.13642   0.25065
  54 18  H  1S         -0.00000  -0.00509  -0.00698   0.13961   0.02753
  55 19  C  1S          0.00000   0.00002   0.00000  -0.00000  -0.00000
  56        2S          0.00000  -0.00193  -0.00000   0.00007   0.00005
  57        2PX        -0.00000   0.00012  -0.00000   0.00003   0.00001
  58        2PY         0.00000  -0.00217  -0.00000   0.00014   0.00008
  59        2PZ        -0.00083  -0.00000  -0.00000   0.00000  -0.00000
  60 20  H  1S         -0.00000   0.00103  -0.00000   0.00001   0.00000
                          51        52        53        54        55
  51        2PY         0.61435
  52        2PZ         0.00000   0.82963
  53 17  H  1S          0.00580   0.00000   0.58675
  54 18  H  1S          0.22810   0.00000  -0.02373   0.58396
  55 19  C  1S         -0.00000  -0.00000  -0.00000   0.00000   2.06693
  56        2S          0.00015   0.00000  -0.00000  -0.00000  -0.05107
  57        2PX         0.00008  -0.00000   0.00001  -0.00000   0.00000
  58        2PY         0.00018  -0.00000   0.00000  -0.00001   0.00000
  59        2PZ         0.00000  -0.00012  -0.00000  -0.00000   0.00000
  60 20  H  1S          0.00002   0.00000   0.00000  -0.00000  -0.00694
                          56        57        58        59        60
  56        2S          0.83246
  57        2PX         0.00000   0.61635
  58        2PY         0.00000   0.00000   0.60250
  59        2PZ         0.00000   0.00000   0.00000   0.79896
  60 20  H  1S          0.13970   0.22868   0.02649   0.00000   0.58889
     Gross orbital populations:
                           1
   1 1   C  1S          1.99066
   2        2S          1.14605
   3        2PX         0.94456
   4        2PY         0.92992
   5        2PZ         0.99332
   6 2   C  1S          1.99077
   7        2S          1.15782
   8        2PX         0.96470
   9        2PY         0.96284
  10        2PZ         1.00104
  11 3   C  1S          1.99080
  12        2S          1.16016
  13        2PX         0.97418
  14        2PY         0.95010
  15        2PZ         1.00138
  16 4   C  1S          1.99066
  17        2S          1.14605
  18        2PX         0.94456
  19        2PY         0.92992
  20        2PZ         0.99332
  21 5   C  1S          1.99077
  22        2S          1.15782
  23        2PX         0.96470
  24        2PY         0.96284
  25        2PZ         1.00104
  26 6   H  1S          0.92078
  27 7   H  1S          0.92231
  28 8   H  1S          0.92078
  29 9   C  1S          1.99088
  30        2S          1.16281
  31        2PX         0.98867
  32        2PY         0.93595
  33        2PZ         0.99806
  34 10  C  1S          1.99097
  35        2S          1.17797
  36        2PX         0.99223
  37        2PY         0.98744
  38        2PZ         1.00620
  39 11  H  1S          0.92367
  40 12  H  1S          0.92312
  41 13  H  1S          0.92066
  42 14  C  1S          1.99088
  43        2S          1.16281
  44        2PX         0.98867
  45        2PY         0.93595
  46        2PZ         0.99806
  47 15  H  1S          0.92312
  48 16  C  1S          1.99097
  49        2S          1.17797
  50        2PX         0.99223
  51        2PY         0.98744
  52        2PZ         1.00620
  53 17  H  1S          0.92367
  54 18  H  1S          0.92066
  55 19  C  1S          1.99080
  56        2S          1.16016
  57        2PX         0.97418
  58        2PY         0.95010
  59        2PZ         1.00138
  60 20  H  1S          0.92231
          Condensed to atoms (all electrons):
               1          2          3          4          5          6
     1  C    4.778685   0.488314  -0.027151  -0.009775  -0.026978  -0.024563
     2  C    0.488314   4.810697   0.508964  -0.026978  -0.010504   0.387886
     3  C   -0.027151   0.508964   4.815051   0.488803  -0.030714  -0.025273
     4  C   -0.009775  -0.026978   0.488803   4.778685   0.488314   0.001331
     5  C   -0.026978  -0.010504  -0.030714   0.488314   4.810697   0.000032
     6  H   -0.024563   0.387886  -0.025273   0.001331   0.000032   0.586976
     7  H    0.001335  -0.025216   0.387929  -0.025299   0.001342  -0.003828
     8  H    0.001331   0.000032   0.001347  -0.024563   0.387886   0.000002
     9  C    0.000016   0.000818  -0.028764   0.411854  -0.024069  -0.000015
    10  C    0.000000  -0.000007   0.000680  -0.023790  -0.003966   0.000000
    11  H   -0.000000  -0.000000   0.000012  -0.003531  -0.000561   0.000000
    12  H   -0.000001   0.000022  -0.003961  -0.026065   0.001086  -0.000002
    13  H    0.000000   0.000000  -0.000016   0.001320   0.000018  -0.000000
    14  C    0.411854  -0.024069   0.000749   0.000016   0.000818  -0.003039
    15  H   -0.026065   0.001086  -0.000017  -0.000001   0.000022   0.000019
    16  C   -0.023790  -0.003966   0.000015   0.000000  -0.000007  -0.000606
    17  H   -0.003531  -0.000561  -0.000012  -0.000000  -0.000000   0.000562
    18  H    0.001320   0.000018   0.000000   0.000000   0.000000  -0.000017
    19  C    0.488803  -0.030714  -0.011069  -0.027151   0.508964   0.001347
    20  H   -0.025299   0.001342   0.000039   0.001335  -0.025216  -0.000034
               7          8          9         10         11         12
     1  C    0.001335   0.001331   0.000016   0.000000  -0.000000  -0.000001
     2  C   -0.025216   0.000032   0.000818  -0.000007  -0.000000   0.000022
     3  C    0.387929   0.001347  -0.028764   0.000680   0.000012  -0.003961
     4  C   -0.025299  -0.024563   0.411854  -0.023790  -0.003531  -0.026065
     5  C    0.001342   0.387886  -0.024069  -0.003966  -0.000561   0.001086
     6  H   -0.003828   0.000002  -0.000015   0.000000   0.000000  -0.000002
     7  H    0.588887  -0.000034  -0.003902   0.000029   0.000001   0.001033
     8  H   -0.000034   0.586976  -0.003039  -0.000606   0.000562   0.000019
     9  C   -0.003902  -0.003039   4.798265   0.586090  -0.023812   0.386251
    10  C    0.000029  -0.000606   0.586090   4.849821   0.385946  -0.027666
    11  H    0.000001   0.000562  -0.023812   0.385946   0.586748   0.002044
    12  H    0.001033   0.000019   0.386251  -0.027666   0.002044   0.595464
    13  H   -0.000002  -0.000017  -0.024048   0.388265  -0.023726  -0.005093
    14  C   -0.000014  -0.000015   0.000000  -0.000000   0.000000  -0.000000
    15  H    0.000000  -0.000002  -0.000000   0.000000  -0.000000   0.000000
    16  C    0.000000   0.000000  -0.000000  -0.000000   0.000000   0.000000
    17  H    0.000002   0.000000   0.000000   0.000000  -0.000000  -0.000000
    18  H   -0.000000  -0.000000  -0.000000   0.000000   0.000000  -0.000000
    19  C    0.000039  -0.025273   0.000749   0.000015  -0.000012  -0.000017
    20  H    0.000002  -0.003828  -0.000014   0.000000   0.000002   0.000000
              13         14         15         16         17         18
     1  C    0.000000   0.411854  -0.026065  -0.023790  -0.003531   0.001320
     2  C    0.000000  -0.024069   0.001086  -0.003966  -0.000561   0.000018
     3  C   -0.000016   0.000749  -0.000017   0.000015  -0.000012   0.000000
     4  C    0.001320   0.000016  -0.000001   0.000000  -0.000000   0.000000
     5  C    0.000018   0.000818   0.000022  -0.000007  -0.000000   0.000000
     6  H   -0.000000  -0.003039   0.000019  -0.000606   0.000562  -0.000017
     7  H   -0.000002  -0.000014   0.000000   0.000000   0.000002  -0.000000
     8  H   -0.000017  -0.000015  -0.000002   0.000000   0.000000  -0.000000
     9  C   -0.024048   0.000000  -0.000000  -0.000000   0.000000  -0.000000
    10  C    0.388265  -0.000000   0.000000  -0.000000   0.000000   0.000000
    11  H   -0.023726   0.000000  -0.000000   0.000000  -0.000000   0.000000
    12  H   -0.005093  -0.000000   0.000000   0.000000  -0.000000  -0.000000
    13  H    0.583955  -0.000000  -0.000000   0.000000   0.000000  -0.000000
    14  C   -0.000000   4.798265   0.386251   0.586090  -0.023812  -0.024048
    15  H   -0.000000   0.386251   0.595464  -0.027666   0.002044  -0.005093
    16  C    0.000000   0.586090  -0.027666   4.849821   0.385946   0.388265
    17  H    0.000000  -0.023812   0.002044   0.385946   0.586748  -0.023726
    18  H   -0.000000  -0.024048  -0.005093   0.388265  -0.023726   0.583955
    19  C    0.000000  -0.028764  -0.003961   0.000680   0.000012  -0.000016
    20  H   -0.000000  -0.003902   0.001033   0.000029   0.000001  -0.000002
              19         20
     1  C    0.488803  -0.025299
     2  C   -0.030714   0.001342
     3  C   -0.011069   0.000039
     4  C   -0.027151   0.001335
     5  C    0.508964  -0.025216
     6  H    0.001347  -0.000034
     7  H    0.000039   0.000002
     8  H   -0.025273  -0.003828
     9  C    0.000749  -0.000014
    10  C    0.000015   0.000000
    11  H   -0.000012   0.000002
    12  H   -0.000017   0.000000
    13  H    0.000000  -0.000000
    14  C   -0.028764  -0.003902
    15  H   -0.003961   0.001033
    16  C    0.000680   0.000029
    17  H    0.000012   0.000001
    18  H   -0.000016  -0.000002
    19  C    4.815051   0.387929
    20  H    0.387929   0.588887
 Mulliken charges:
               1
     1  C   -0.004504
     2  C   -0.077163
     3  C   -0.076614
     4  C   -0.004504
     5  C   -0.077163
     6  H    0.079223
     7  H    0.077694
     8  H    0.079223
     9  C   -0.076380
    10  C   -0.154812
    11  H    0.076327
    12  H    0.076884
    13  H    0.079344
    14  C   -0.076380
    15  H    0.076884
    16  C   -0.154812
    17  H    0.076327
    18  H    0.079344
    19  C   -0.076614
    20  H    0.077694
 Sum of Mulliken charges =  -0.00000
 Mulliken charges with hydrogens summed into heavy atoms:
               1
     1  C   -0.004504
     2  C    0.002060
     3  C    0.001080
     4  C   -0.004504
     5  C    0.002060
     9  C    0.000505
    10  C    0.000859
    14  C    0.000505
    16  C    0.000859
    19  C    0.001080
 N-N= 4.458952146435D+02 E-N=-1.776406417193D+03  KE= 3.758473006349D+02
 Symmetry AG   KE= 1.814054557324D+02
 Symmetry BG   KE= 7.823289114860D+00
 Symmetry AU   KE= 4.696944385764D+00
 Symmetry BU   KE= 1.819216114019D+02
 Orbital energies and kinetic energies (alpha):
                                 1                 2
   1         (BU)--O         -10.020218         15.582577
   2         (AG)--O         -10.020170         15.584084
   3         (BU)--O         -10.008114         15.591085
   4         (AG)--O         -10.008113         15.591135
   5         (BU)--O         -10.006787         15.571162
   6         (AG)--O         -10.006783         15.568850
   7         (BU)--O         -10.006052         15.606045
   8         (AG)--O         -10.005914         15.612902
   9         (BU)--O          -9.992329         15.591272
  10         (AG)--O          -9.992329         15.591274
  11         (AG)--O          -0.809510          1.390116
  12         (BU)--O          -0.753978          1.449049
  13         (AG)--O          -0.717966          1.461321
  14         (BU)--O          -0.699787          1.499721
  15         (BU)--O          -0.667509          1.556864
  16         (AG)--O          -0.588689          1.334416
  17         (AG)--O          -0.558921          1.348907
  18         (BU)--O          -0.531659          1.322520
  19         (AG)--O          -0.510178          1.167637
  20         (AG)--O          -0.457445          1.024735
  21         (BU)--O          -0.439357          1.071847
  22         (BU)--O          -0.410608          1.266512
  23         (BU)--O          -0.397951          1.148634
  24         (AG)--O          -0.396066          1.143510
  25         (BU)--O          -0.373969          1.158171
  26         (BU)--O          -0.351149          1.352465
  27         (AG)--O          -0.347288          1.154069
  28         (AU)--O          -0.324507          1.063812
  29         (BU)--O          -0.311252          1.192884
  30         (AG)--O          -0.292793          1.406842
  31         (AG)--O          -0.287452          1.322931
  32         (BG)--O          -0.263542          1.181517
  33         (AU)--O          -0.212447          1.284660
  34         (BG)--O          -0.195055          1.322552
  35         (BG)--O          -0.153084          1.407576
  36         (AU)--V           0.037417          1.701119
  37         (AU)--V           0.090371          1.818340
  38         (BG)--V           0.110613          1.833565
  39         (AU)--V           0.182201          2.013278
  40         (BG)--V           0.272526          2.211503
  41         (AG)--V           0.332231          2.264769
  42         (BU)--V           0.340739          2.046105
  43         (BU)--V           0.379367          2.596477
  44         (AG)--V           0.381450          2.165499
  45         (AG)--V           0.410969          2.780419
  46         (BU)--V           0.411958          2.766145
  47         (BU)--V           0.426743          2.318885
  48         (AG)--V           0.439621          3.171384
  49         (BU)--V           0.452744          2.757261
  50         (AG)--V           0.478257          2.949107
  51         (AG)--V           0.526261          2.915980
  52         (BU)--V           0.545804          2.898623
  53         (AG)--V           0.576011          2.717761
  54         (BU)--V           0.599461          3.193004
  55         (BU)--V           0.624996          3.001919
  56         (AG)--V           0.639680          2.962779
  57         (AG)--V           0.682825          3.185101
  58         (BU)--V           0.717222          3.430656
  59         (AG)--V           0.779547          3.437144
  60         (BU)--V           0.794583          3.512152
 Total kinetic energy from orbitals= 3.758473006349D+02
 No NMR shielding tensors so no spin-rotation constants.
 Leave Link  601 at Thu Apr  5 09:06:04 2018, MaxMem=    52428800 cpu:               0.1 elap:               0.1
 (Enter /software/Gaussian16/g16_sse4/g16/l9999.exe)

 Test job not archived.
 1\1\GINC-QNODE4086\SP\RB3LYP\STO-3G\C10H10\ASR731\05-Apr-2018\0\\#p b3
 lyp/sto-3g guess=read geom=allcheck pop=full gfinput iop(3/33=1,3/36=-
 1)\\Title Card Required\\0,1\C,0,-0.0758620095,0.,0.026976172\C,0,-0.0
 045249089,0.,1.4463590272\C,0,1.233736384,0.,2.1041846497\C,0,2.457288
 8655,0.,1.3787460974\C,0,2.3859517648,0.,-0.0406367578\H,0,-0.92877965
 ,0.,2.038369764\H,0,1.2651436192,0.,3.2023768764\H,0,3.3102065059,0.,-
 0.6326474946\C,0,3.7521118658,0.,2.1312678481\C,0,4.9873358742,0.,1.60
 08975806\H,0,5.1666218259,0.,0.5196515525\H,0,3.6423310639,0.,3.226204
 9273\H,0,5.8793519852,0.,2.2381007064\C,0,-1.3706850098,0.,-0.72554557
 87\H,0,-1.2609042079,0.,-1.820482658\C,0,-2.6059090183,0.,-0.195175311
 3\H,0,-2.78519497,0.,0.8860707169\H,0,-3.4979251292,0.,-0.832378437\C,
 0,1.147690472,0.,-0.6984623803\H,0,1.1162832367,0.,-1.796654607\\Versi
 on=ES64L-G16RevA.03\State=1-AG\HF=-382.3082666\RMSD=1.870e-09\PG=C02H 
 [SGH(C10H10)]\\@


 DO NOT LET SELFISH MEN OR GREEDY INTERESTS SKIN YOUR COUNTRY OF ITS
 BEAUTY, ITS RICHES, OR ITS ROMANCE. -- THEODORE ROOSEVELT
 Job cpu time:       0 days  0 hours  0 minutes  2.2 seconds.
 Elapsed time:       0 days  0 hours  0 minutes  2.1 seconds.
 File lengths (MBytes):  RWF=      6 Int=      0 D2E=      0 Chk=     16 Scr=      1
 Normal termination of Gaussian 16 at Thu Apr  5 09:06:04 2018.
