 Entering Gaussian System, Link 0=g16
 Initial command:
 /ihome/crc/build/gaussian/a03/g16/l1.exe "/scratch/slurm-1406214/Gau-179678.inp" -scrdir="/scratch/slurm-1406214/"
 Entering Link 1 = /ihome/crc/build/gaussian/a03/g16/l1.exe PID=    179679.
  
 Copyright (c) 1988,1990,1992,1993,1995,1998,2003,2009,2016,
            Gaussian, Inc.  All Rights Reserved.
  
 This is part of the Gaussian(R) 16 program.  It is based on
 the Gaussian(R) 09 system (copyright 2009, Gaussian, Inc.),
 the Gaussian(R) 03 system (copyright 2003, Gaussian, Inc.),
 the Gaussian(R) 98 system (copyright 1998, Gaussian, Inc.),
 the Gaussian(R) 94 system (copyright 1995, Gaussian, Inc.),
 the Gaussian 92(TM) system (copyright 1992, Gaussian, Inc.),
 the Gaussian 90(TM) system (copyright 1990, Gaussian, Inc.),
 the Gaussian 88(TM) system (copyright 1988, Gaussian, Inc.),
 the Gaussian 86(TM) system (copyright 1986, Carnegie Mellon
 University), and the Gaussian 82(TM) system (copyright 1983,
 Carnegie Mellon University). Gaussian is a federally registered
 trademark of Gaussian, Inc.
  
 This software contains proprietary and confidential information,
 including trade secrets, belonging to Gaussian, Inc.
  
 This software is provided under written license and may be
 used, copied, transmitted, or stored only in accord with that
 written license.
  
 The following legend is applicable only to US Government
 contracts under FAR:
  
                    RESTRICTED RIGHTS LEGEND
  
 Use, reproduction and disclosure by the US Government is
 subject to restrictions as set forth in subparagraphs (a)
 and (c) of the Commercial Computer Software - Restricted
 Rights clause in FAR 52.227-19.
  
 Gaussian, Inc.
 340 Quinnipiac St., Bldg. 40, Wallingford CT 06492
  
  
 ---------------------------------------------------------------
 Warning -- This program may not be used in any manner that
 competes with the business of Gaussian, Inc. or will provide
 assistance to any competitor of Gaussian, Inc.  The licensee
 of this program is prohibited from giving any competitor of
 Gaussian, Inc. access to this program.  By using this program,
 the user acknowledges that Gaussian, Inc. is engaged in the
 business of creating and licensing software in the field of
 computational chemistry and represents and warrants to the
 licensee that it is not a competitor of Gaussian, Inc. and that
 it will not use this program in any manner prohibited above.
 ---------------------------------------------------------------
  

 Cite this work as:
 Gaussian 16, Revision A.03,
 M. J. Frisch, G. W. Trucks, H. B. Schlegel, G. E. Scuseria, 
 M. A. Robb, J. R. Cheeseman, G. Scalmani, V. Barone, 
 G. A. Petersson, H. Nakatsuji, X. Li, M. Caricato, A. V. Marenich, 
 J. Bloino, B. G. Janesko, R. Gomperts, B. Mennucci, H. P. Hratchian, 
 J. V. Ortiz, A. F. Izmaylov, J. L. Sonnenberg, D. Williams-Young, 
 F. Ding, F. Lipparini, F. Egidi, J. Goings, B. Peng, A. Petrone, 
 T. Henderson, D. Ranasinghe, V. G. Zakrzewski, J. Gao, N. Rega, 
 G. Zheng, W. Liang, M. Hada, M. Ehara, K. Toyota, R. Fukuda, 
 J. Hasegawa, M. Ishida, T. Nakajima, Y. Honda, O. Kitao, H. Nakai, 
 T. Vreven, K. Throssell, J. A. Montgomery, Jr., J. E. Peralta, 
 F. Ogliaro, M. J. Bearpark, J. J. Heyd, E. N. Brothers, K. N. Kudin, 
 V. N. Staroverov, T. A. Keith, R. Kobayashi, J. Normand, 
 K. Raghavachari, A. P. Rendell, J. C. Burant, S. S. Iyengar, 
 J. Tomasi, M. Cossi, J. M. Millam, M. Klene, C. Adamo, R. Cammi, 
 J. W. Ochterski, R. L. Martin, K. Morokuma, O. Farkas, 
 J. B. Foresman, and D. J. Fox, Gaussian, Inc., Wallingford CT, 2016.
 
 ******************************************
 Gaussian 16:  ES64L-G16RevA.03 25-Dec-2016
                30-Nov-2018 
 ******************************************
 %chk=dvb_un_sp_b
 %mem=6GB
 %nproc=8
 Will use up to    8 processors via shared memory.
 ----------------------------------------------------
 #p ub3lyp/sto-3g pop=(full,NOAB) iop(3/33=1,3/36=-1)
 ----------------------------------------------------
 1/30=1,38=1,172=1/1;
 2/12=2,17=6,18=5,40=1/2;
 3/6=3,11=2,25=1,30=1,33=1,36=-1,74=-5,116=2/1,2,3;
 4//1;
 5/5=2,38=5/2;
 6/7=3,22=-1,28=1,31=2/1;
 99/5=1,9=1/99;
 Leave Link    1 at Fri Nov 30 14:54:06 2018, MaxMem=   805306368 cpu:               0.2 elap:               0.0
 (Enter /ihome/crc/build/gaussian/a03/g16/l101.exe)
 -------
 Notitle
 -------
 Symbolic Z-matrix:
 Charge =  1 Multiplicity = 2
 C
 C                    1    B1
 C                    2    B2       1    A1
 C                    3    B3       2    A2       1    D1       0
 C                    4    B4       3    A3       2    D2       0
 H                    2    B5       1    A4       5    D3       0
 H                    3    B6       2    A5       1    D4       0
 H                    5    B7       4    A6       3    D5       0
 C                    4    B8       3    A7       2    D6       0
 C                    9    B9       4    A8       3    D7       0
 H                    10   B10      9    A9       4    D8       0
 H                    9    B11      4    A10      3    D9       0
 H                    10   B12      9    A11      4    D10      0
 C                    1    B13      2    A12      3    D11      0
 H                    14   B14      1    A13      2    D12      0
 C                    14   B15      1    A14      2    D13      0
 H                    16   B16      14   A15      1    D14      0
 H                    16   B17      14   A16      1    D15      0
 C                    5    B18      4    A17      3    D16      0
 H                    19   B19      5    A18      4    D17      0
       Variables:
  B1                    1.42115                  
  B2                    1.40217                  
  B3                    1.42245                  
  B4                    1.42115                  
  B5                    1.09762                  
  B6                    1.09866                  
  B7                    1.09762                  
  B8                    1.49761                  
  B9                    1.34427                  
  B10                   1.09599                  
  B11                   1.10041                  
  B12                   1.09623                  
  B13                   1.49761                  
  B14                   1.10041                  
  B15                   1.34427                  
  B16                   1.09599                  
  B17                   1.09623                  
  B18                   1.40217                  
  B19                   1.09866                  
  A1                  120.85705                  
  A2                  121.35373                  
  A3                  117.78922                  
  A4                  119.76456                  
  A5                  119.62884                  
  A6                  119.76456                  
  A7                  119.17162                  
  A8                  126.59341                  
  A9                  122.64703                  
  A10                 114.43382                  
  A11                 121.22829                  
  A12                 123.03917                  
  A13                 114.43382                  
  A14                 126.59341                  
  A15                 122.64703                  
  A16                 121.22829                  
  A17                 120.85705                  
  A18                 119.62884                  
  D1                    0.                       
  D2                    0.                       
  D3                  180.                       
  D4                  180.                       
  D5                  180.                       
  D6                  180.                       
  D7                  180.                       
  D8                    0.                       
  D9                    0.                       
  D10                 180.                       
  D11                 180.                       
  D12                 180.                       
  D13                   0.                       
  D14                   0.                       
  D15                 180.                       
  D16                   0.                       
  D17                 180.                       
 
 ITRead=  0  0  0  0  0  0  0  0  0  0  0  0  0  0  0  0  0  0  0  0
 MicOpt= -1 -1 -1 -1 -1 -1 -1 -1 -1 -1 -1 -1 -1 -1 -1 -1 -1 -1 -1 -1
 NAtoms=     20 NQM=       20 NQMF=       0 NMMI=      0 NMMIF=      0
                NMic=       0 NMicF=      0.
                    Isotopes and Nuclear Properties:
 (Nuclear quadrupole moments (NQMom) in fm**2, nuclear magnetic moments (NMagM)
  in nuclear magnetons)

  Atom         1           2           3           4           5           6           7           8           9          10
 IAtWgt=          12          12          12          12          12           1           1           1          12          12
 AtmWgt=  12.0000000  12.0000000  12.0000000  12.0000000  12.0000000   1.0078250   1.0078250   1.0078250  12.0000000  12.0000000
 NucSpn=           0           0           0           0           0           1           1           1           0           0
 AtZEff=  -0.0000000  -0.0000000  -0.0000000  -0.0000000  -0.0000000  -0.0000000  -0.0000000  -0.0000000  -0.0000000  -0.0000000
 NQMom=    0.0000000   0.0000000   0.0000000   0.0000000   0.0000000   0.0000000   0.0000000   0.0000000   0.0000000   0.0000000
 NMagM=    0.0000000   0.0000000   0.0000000   0.0000000   0.0000000   2.7928460   2.7928460   2.7928460   0.0000000   0.0000000
 AtZNuc=   6.0000000   6.0000000   6.0000000   6.0000000   6.0000000   1.0000000   1.0000000   1.0000000   6.0000000   6.0000000

  Atom        11          12          13          14          15          16          17          18          19          20
 IAtWgt=           1           1           1          12           1          12           1           1          12           1
 AtmWgt=   1.0078250   1.0078250   1.0078250  12.0000000   1.0078250  12.0000000   1.0078250   1.0078250  12.0000000   1.0078250
 NucSpn=           1           1           1           0           1           0           1           1           0           1
 AtZEff=  -0.0000000  -0.0000000  -0.0000000  -0.0000000  -0.0000000  -0.0000000  -0.0000000  -0.0000000  -0.0000000  -0.0000000
 NQMom=    0.0000000   0.0000000   0.0000000   0.0000000   0.0000000   0.0000000   0.0000000   0.0000000   0.0000000   0.0000000
 NMagM=    2.7928460   2.7928460   2.7928460   0.0000000   2.7928460   0.0000000   2.7928460   2.7928460   0.0000000   2.7928460
 AtZNuc=   1.0000000   1.0000000   1.0000000   6.0000000   1.0000000   6.0000000   1.0000000   1.0000000   6.0000000   1.0000000
 Leave Link  101 at Fri Nov 30 14:54:06 2018, MaxMem=   805306368 cpu:               0.8 elap:               0.1
 (Enter /ihome/crc/build/gaussian/a03/g16/l202.exe)
                          Input orientation:                          
 ---------------------------------------------------------------------
 Center     Atomic      Atomic             Coordinates (Angstroms)
 Number     Number       Type             X           Y           Z
 ---------------------------------------------------------------------
      1          6           0        0.000000    0.000000    0.000000
      2          6           0        0.000000    0.000000    1.421154
      3          6           0        1.203695    0.000000    2.140325
      4          6           0        2.462090    0.000000    1.477152
      5          6           0        2.462090    0.000000    0.055998
      6          1           0       -0.952813    0.000000    1.966053
      7          1           0        1.180146    0.000000    3.238735
      8          1           0        3.414904    0.000000   -0.488901
      9          6           0        3.717531    0.000000    2.293665
     10          6           0        4.977755    0.000000    1.825807
     11          1           0        5.210853    0.000000    0.754892
     12          1           0        3.552880    0.000000    3.381684
     13          1           0        5.836811    0.000000    2.506791
     14          6           0       -1.255441    0.000000   -0.816513
     15          1           0       -1.090790    0.000000   -1.904532
     16          6           0       -2.515665    0.000000   -0.348656
     17          1           0       -2.748763    0.000000    0.722260
     18          1           0       -3.374721    0.000000   -1.029640
     19          6           0        1.258395    0.000000   -0.663174
     20          1           0        1.281944    0.000000   -1.761584
 ---------------------------------------------------------------------
                    Distance matrix (angstroms):
                    1          2          3          4          5
     1  C    0.000000
     2  C    1.421154   0.000000
     3  C    2.455580   1.402173   0.000000
     4  C    2.871213   2.462727   1.422448   0.000000
     5  C    2.462727   2.815233   2.434744   1.421154   0.000000
     6  H    2.184769   1.097619   2.163539   3.449723   3.912784
     7  H    3.447049   2.167106   1.098662   2.178660   3.431209
     8  H    3.449723   3.912784   3.435444   2.184769   1.097619
     9  C    4.368173   3.818548   2.518508   1.497607   2.565791
    10  C    5.302039   4.994176   3.787143   2.539711   3.075841
    11  H    5.265250   5.253275   4.239899   2.842069   2.836221
    12  H    4.904971   4.057910   2.656998   2.194781   3.500001
    13  H    6.352351   5.936916   4.647587   3.528300   4.170747
    14  C    1.497607   2.565791   3.845809   4.368173   3.818548
    15  H    2.194781   3.500001   4.650326   4.904971   4.057910
    16  C    2.539711   3.075841   4.475340   5.302039   4.994176
    17  H    2.842069   2.836221   4.199147   5.265250   5.253275
    18  H    3.528300   4.170747   5.568714   6.352351   5.936916
    19  C    1.422448   2.434744   2.804033   2.455580   1.402173
    20  H    2.178660   3.431209   3.902693   3.447049   2.167106
                    6          7          8          9         10
     6  H    0.000000
     7  H    2.483795   0.000000
     8  H    5.010364   4.346195   0.000000
     9  C    4.681821   2.707671   2.798974   0.000000
    10  C    5.932227   4.051938   2.792916   1.344268   0.000000
    11  H    6.281536   4.734562   2.184595   2.144256   1.095990
    12  H    4.722847   2.377036   3.873043   1.100407   2.109744
    13  H    6.811123   4.713839   3.852247   2.129970   1.096228
    14  C    2.798974   4.730446   4.681821   5.865463   6.770125
    15  H    3.873043   5.622308   4.722847   6.383166   7.123389
    16  C    2.792916   5.150572   5.932227   6.770125   7.802541
    17  H    2.184595   4.665723   6.281536   6.654493   7.804928
    18  H    3.852247   6.242262   6.811123   7.832266   8.827086
    19  C    3.435444   3.902693   2.163539   3.845809   4.475340
    20  H    4.346195   5.001355   2.483795   4.730446   5.150572
                   11         12         13         14         15
    11  H    0.000000
    12  H    3.106270   0.000000
    13  H    1.860369   2.445768   0.000000
    14  C    6.654493   6.383166   7.832266   0.000000
    15  H    6.839828   7.036174   8.212882   1.100407   0.000000
    16  C    7.804928   7.123389   8.827086   1.344268   2.109744
    17  H    7.959684   6.839828   8.769073   2.144256   3.106270
    18  H    8.769073   8.212882   9.867050   2.129970   2.445768
    19  C    4.199147   4.650326   5.568714   2.518508   2.656998
    20  H    4.665723   5.622308   6.242262   2.707671   2.377036
                   16         17         18         19         20
    16  C    0.000000
    17  H    1.095990   0.000000
    18  H    1.096228   1.860369   0.000000
    19  C    3.787143   4.239899   4.647587   0.000000
    20  H    4.051938   4.734562   4.713839   1.098662   0.000000
 Stoichiometry    C10H10(1+,2)
 Framework group  C2H[SGH(C10H10)]
 Deg. of freedom    19
 Full point group                 C2H     NOp   4
 Largest Abelian subgroup         C2H     NOp   4
 Largest concise Abelian subgroup C2      NOp   2
                         Standard orientation:                         
 ---------------------------------------------------------------------
 Center     Atomic      Atomic             Coordinates (Angstroms)
 Number     Number       Type             X           Y           Z
 ---------------------------------------------------------------------
      1          6           0        0.269481   -1.410087   -0.000000
      2          6           0       -1.064752   -0.920700    0.000000
      3          6           0       -1.325434    0.457029    0.000000
      4          6           0       -0.269481    1.410087    0.000000
      5          6           0        1.064752    0.920700    0.000000
      6          1           0       -1.904434   -1.627596    0.000000
      7          1           0       -2.364772    0.813167    0.000000
      8          1           0        1.904434    1.627596    0.000000
      9          6           0       -0.603732    2.869917    0.000000
     10          6           0        0.269481    3.891952    0.000000
     11          1           0        1.355166    3.742014    0.000000
     12          1           0       -1.681904    3.090005    0.000000
     13          1           0       -0.074029    4.932969    0.000000
     14          6           0        0.603732   -2.869917   -0.000000
     15          1           0        1.681904   -3.090005   -0.000000
     16          6           0       -0.269481   -3.891952   -0.000000
     17          1           0       -1.355166   -3.742014   -0.000000
     18          1           0        0.074029   -4.932969   -0.000000
     19          6           0        1.325434   -0.457029    0.000000
     20          1           0        2.364772   -0.813167    0.000000
 ---------------------------------------------------------------------
 Rotational constants (GHZ):           4.6264912           0.6849396           0.5966127
 Leave Link  202 at Fri Nov 30 14:54:06 2018, MaxMem=   805306368 cpu:               0.1 elap:               0.0
 (Enter /ihome/crc/build/gaussian/a03/g16/l301.exe)
 Standard basis: STO-3G (5D, 7F)
                         Coordinates in L301:                         
 ---------------------------------------------------------------------
 Center     Atomic      Atomic             Coordinates (Angstroms)
 Number     Number       Type             X           Y           Z
 ---------------------------------------------------------------------
      1          6           0        0.269481   -1.410087   -0.000000
      2          6           0       -1.064752   -0.920700    0.000000
      3          6           0       -1.325434    0.457029    0.000000
      4          6           0       -0.269481    1.410087    0.000000
      5          6           0        1.064752    0.920700    0.000000
      6          1           0       -1.904434   -1.627596    0.000000
      7          1           0       -2.364772    0.813167    0.000000
      8          1           0        1.904434    1.627596    0.000000
      9          6           0       -0.603732    2.869917    0.000000
     10          6           0        0.269481    3.891952    0.000000
     11          1           0        1.355166    3.742014    0.000000
     12          1           0       -1.681904    3.090005    0.000000
     13          1           0       -0.074029    4.932969    0.000000
     14          6           0        0.603732   -2.869917   -0.000000
     15          1           0        1.681904   -3.090005   -0.000000
     16          6           0       -0.269481   -3.891952   -0.000000
     17          1           0       -1.355166   -3.742014   -0.000000
     18          1           0        0.074029   -4.932969   -0.000000
     19          6           0        1.325434   -0.457029    0.000000
     20          1           0        2.364772   -0.813167    0.000000
 ---------------------------------------------------------------------
 FixB: optimizing general contractions.
 Ernie: Thresh=  0.10000D-02 Tol=  0.10000D-05 Strict=F.
 IA=     1 ShT= 0 ShC= 0 NL=   1 NS=   0.
 IA=     1 L=0 SC=0 ISt=    0 NBk=    0 NP=    0 IndPr=    0.
 IA=     1 ShT= 1 ShC= 0 NL=   1 NS=   0.
 IA=     1 L=1 SC=0 ISt=    0 NBk=    0 NP=    0 IndPr=    0.
 IA=     2 ShT= 0 ShC= 0 NL=   1 NS=   0.
 IA=     2 L=0 SC=0 ISt=    0 NBk=    0 NP=    0 IndPr=    0.
 IA=     2 ShT= 1 ShC= 0 NL=   1 NS=   0.
 IA=     2 L=1 SC=0 ISt=    0 NBk=    0 NP=    0 IndPr=    0.
 IA=     3 ShT= 0 ShC= 0 NL=   1 NS=   0.
 IA=     3 L=0 SC=0 ISt=    0 NBk=    0 NP=    0 IndPr=    0.
 IA=     3 ShT= 1 ShC= 0 NL=   1 NS=   0.
 IA=     3 L=1 SC=0 ISt=    0 NBk=    0 NP=    0 IndPr=    0.
 IA=     4 ShT= 0 ShC= 0 NL=   1 NS=   0.
 IA=     4 L=0 SC=0 ISt=    0 NBk=    0 NP=    0 IndPr=    0.
 IA=     4 ShT= 1 ShC= 0 NL=   1 NS=   0.
 IA=     4 L=1 SC=0 ISt=    0 NBk=    0 NP=    0 IndPr=    0.
 IA=     5 ShT= 0 ShC= 0 NL=   1 NS=   0.
 IA=     5 L=0 SC=0 ISt=    0 NBk=    0 NP=    0 IndPr=    0.
 IA=     5 ShT= 1 ShC= 0 NL=   1 NS=   0.
 IA=     5 L=1 SC=0 ISt=    0 NBk=    0 NP=    0 IndPr=    0.
 IA=     6 ShT= 0 ShC= 0 NL=   1 NS=   0.
 IA=     6 L=0 SC=0 ISt=    0 NBk=    0 NP=    0 IndPr=    0.
 IA=     7 ShT= 0 ShC= 0 NL=   1 NS=   0.
 IA=     7 L=0 SC=0 ISt=    0 NBk=    0 NP=    0 IndPr=    0.
 IA=     8 ShT= 0 ShC= 0 NL=   1 NS=   0.
 IA=     8 L=0 SC=0 ISt=    0 NBk=    0 NP=    0 IndPr=    0.
 IA=     9 ShT= 0 ShC= 0 NL=   1 NS=   0.
 IA=     9 L=0 SC=0 ISt=    0 NBk=    0 NP=    0 IndPr=    0.
 IA=     9 ShT= 1 ShC= 0 NL=   1 NS=   0.
 IA=     9 L=1 SC=0 ISt=    0 NBk=    0 NP=    0 IndPr=    0.
 IA=    10 ShT= 0 ShC= 0 NL=   1 NS=   0.
 IA=    10 L=0 SC=0 ISt=    0 NBk=    0 NP=    0 IndPr=    0.
 IA=    10 ShT= 1 ShC= 0 NL=   1 NS=   0.
 IA=    10 L=1 SC=0 ISt=    0 NBk=    0 NP=    0 IndPr=    0.
 IA=    11 ShT= 0 ShC= 0 NL=   1 NS=   0.
 IA=    11 L=0 SC=0 ISt=    0 NBk=    0 NP=    0 IndPr=    0.
 IA=    12 ShT= 0 ShC= 0 NL=   1 NS=   0.
 IA=    12 L=0 SC=0 ISt=    0 NBk=    0 NP=    0 IndPr=    0.
 IA=    13 ShT= 0 ShC= 0 NL=   1 NS=   0.
 IA=    13 L=0 SC=0 ISt=    0 NBk=    0 NP=    0 IndPr=    0.
 IA=    14 ShT= 0 ShC= 0 NL=   1 NS=   0.
 IA=    14 L=0 SC=0 ISt=    0 NBk=    0 NP=    0 IndPr=    0.
 IA=    14 ShT= 1 ShC= 0 NL=   1 NS=   0.
 IA=    14 L=1 SC=0 ISt=    0 NBk=    0 NP=    0 IndPr=    0.
 IA=    15 ShT= 0 ShC= 0 NL=   1 NS=   0.
 IA=    15 L=0 SC=0 ISt=    0 NBk=    0 NP=    0 IndPr=    0.
 IA=    16 ShT= 0 ShC= 0 NL=   1 NS=   0.
 IA=    16 L=0 SC=0 ISt=    0 NBk=    0 NP=    0 IndPr=    0.
 IA=    16 ShT= 1 ShC= 0 NL=   1 NS=   0.
 IA=    16 L=1 SC=0 ISt=    0 NBk=    0 NP=    0 IndPr=    0.
 IA=    17 ShT= 0 ShC= 0 NL=   1 NS=   0.
 IA=    17 L=0 SC=0 ISt=    0 NBk=    0 NP=    0 IndPr=    0.
 IA=    18 ShT= 0 ShC= 0 NL=   1 NS=   0.
 IA=    18 L=0 SC=0 ISt=    0 NBk=    0 NP=    0 IndPr=    0.
 IA=    19 ShT= 0 ShC= 0 NL=   1 NS=   0.
 IA=    19 L=0 SC=0 ISt=    0 NBk=    0 NP=    0 IndPr=    0.
 IA=    19 ShT= 1 ShC= 0 NL=   1 NS=   0.
 IA=    19 L=1 SC=0 ISt=    0 NBk=    0 NP=    0 IndPr=    0.
 IA=    20 ShT= 0 ShC= 0 NL=   1 NS=   0.
 IA=    20 L=0 SC=0 ISt=    0 NBk=    0 NP=    0 IndPr=    0.
 LdAtmC:  AtmChg=     6.000000     6.000000     6.000000     6.000000     6.000000
 LdAtmC:  AtmChg=     1.000000     1.000000     1.000000     6.000000     6.000000
 LdAtmC:  AtmChg=     1.000000     1.000000     1.000000     6.000000     1.000000
 LdAtmC:  AtmChg=     6.000000     1.000000     1.000000     6.000000     1.000000
 AtZEff=     -3.6000000     -3.6000000     -3.6000000     -3.6000000     -3.6000000
 AtZEff=     -1.0000000     -1.0000000     -1.0000000     -3.6000000     -3.6000000
 AtZEff=     -1.0000000     -1.0000000     -1.0000000     -3.6000000     -1.0000000
 AtZEff=     -3.6000000     -1.0000000     -1.0000000     -3.6000000     -1.0000000
 NEqShl: 
              1            2            3            4
     1            1            7            1            7
     2            2            8            2            8
     3            3            9            3            9
     4            4           10            4           10
     5            5           28            5           28
     6            6           29            6           29
     7            7            1            7            1
     8            8            2            8            2
     9            9            3            9            3
    10           10            4           10            4
    11           11           13           11           13
    12           12           30           12           30
    13           13           11           13           11
    14           14           21           14           21
    15           15           22           15           22
    16           16           24           16           24
    17           17           25           17           25
    18           18           26           18           26
    19           19           23           19           23
    20           20           27           20           27
    21           21           14           21           14
    22           22           15           22           15
    23           23           19           23           19
    24           24           16           24           16
    25           25           17           25           17
    26           26           18           26           18
    27           27           20           27           20
    28           28            5           28            5
    29           29            6           29            6
    30           30           12           30           12
 NEqBas: 
              1            2            3            4
     1            1           16            1           16
     2            2           17            2           17
     3            3          -18            3          -18
     4            4          -19            4          -19
     5            5           20           -5          -20
     6            6           21            6           21
     7            7           22            7           22
     8            8          -23            8          -23
     9            9          -24            9          -24
    10           10           25          -10          -25
    11           11           55           11           55
    12           12           56           12           56
    13           13          -57           13          -57
    14           14          -58           14          -58
    15           15           59          -15          -59
    16           16            1           16            1
    17           17            2           17            2
    18           18           -3           18           -3
    19           19           -4           19           -4
    20           20            5          -20           -5
    21           21            6           21            6
    22           22            7           22            7
    23           23           -8           23           -8
    24           24           -9           24           -9
    25           25           10          -25          -10
    26           26           28           26           28
    27           27           60           27           60
    28           28           26           28           26
    29           29           42           29           42
    30           30           43           30           43
    31           31          -44           31          -44
    32           32          -45           32          -45
    33           33           46          -33          -46
    34           34           48           34           48
    35           35           49           35           49
    36           36          -50           36          -50
    37           37          -51           37          -51
    38           38           52          -38          -52
    39           39           53           39           53
    40           40           47           40           47
    41           41           54           41           54
    42           42           29           42           29
    43           43           30           43           30
    44           44          -31           44          -31
    45           45          -32           45          -32
    46           46           33          -46          -33
    47           47           40           47           40
    48           48           34           48           34
    49           49           35           49           35
    50           50          -36           50          -36
    51           51          -37           51          -37
    52           52           38          -52          -38
    53           53           39           53           39
    54           54           41           54           41
    55           55           11           55           11
    56           56           12           56           12
    57           57          -13           57          -13
    58           58          -14           58          -14
    59           59           15          -59          -15
    60           60           27           60           27
 There are    25 symmetry adapted cartesian basis functions of AG  symmetry.
   1         1  16  16   1
   2         2  17  17   2
   3         3 -18 -18   3
   4         4 -19 -19   4
   5         6  21  21   6
   6         7  22  22   7
   7         8 -23 -23   8
   8         9 -24 -24   9
   9        11  55  55  11
  10        12  56  56  12
  11        13 -57 -57  13
  12        14 -58 -58  14
  13        26  28  28  26
  14        27  60  60  27
  15        29  42  42  29
  16        30  43  43  30
  17        31 -44 -44  31
  18        32 -45 -45  32
  19        34  48  48  34
  20        35  49  49  35
  21        36 -50 -50  36
  22        37 -51 -51  37
  23        39  53  53  39
  24        40  47  47  40
  25        41  54  54  41
 There are     5 symmetry adapted cartesian basis functions of BG  symmetry.
  26         5 -20 -20   5
  27        10 -25 -25  10
  28        15 -59 -59  15
  29        33 -46 -46  33
  30        38 -52 -52  38
 There are     5 symmetry adapted cartesian basis functions of AU  symmetry.
  31         5  20  20   5
  32        10  25  25  10
  33        15  59  59  15
  34        33  46  46  33
  35        38  52  52  38
 There are    25 symmetry adapted cartesian basis functions of BU  symmetry.
  36         1 -16 -16   1
  37         2 -17 -17   2
  38         3  18  18   3
  39         4  19  19   4
  40         6 -21 -21   6
  41         7 -22 -22   7
  42         8  23  23   8
  43         9  24  24   9
  44        11 -55 -55  11
  45        12 -56 -56  12
  46        13  57  57  13
  47        14  58  58  14
  48        26 -28 -28  26
  49        27 -60 -60  27
  50        29 -42 -42  29
  51        30 -43 -43  30
  52        31  44  44  31
  53        32  45  45  32
  54        34 -48 -48  34
  55        35 -49 -49  35
  56        36  50  50  36
  57        37  51  51  37
  58        39 -53 -53  39
  59        40 -47 -47  40
  60        41 -54 -54  41
 Order= 1 4 2 3
 Reordered character table:
              1            2            3            4            5
     1            1            1            1            1            1
     2            4            1           -1            1           -1
     3            2            1           -1           -1            1
     4            3            1            1           -1           -1
 NEqShl: 
              1            2            3            4
     1            1            7            1            7
     2            2            8            2            8
     3            3            9            3            9
     4            4           10            4           10
     5            5           28            5           28
     6            6           29            6           29
     7            7            1            7            1
     8            8            2            8            2
     9            9            3            9            3
    10           10            4           10            4
    11           11           13           11           13
    12           12           30           12           30
    13           13           11           13           11
    14           14           21           14           21
    15           15           22           15           22
    16           16           24           16           24
    17           17           25           17           25
    18           18           26           18           26
    19           19           23           19           23
    20           20           27           20           27
    21           21           14           21           14
    22           22           15           22           15
    23           23           19           23           19
    24           24           16           24           16
    25           25           17           25           17
    26           26           18           26           18
    27           27           20           27           20
    28           28            5           28            5
    29           29            6           29            6
    30           30           12           30           12
 NEqBas: 
              1            2            3            4
     1            1           16            1           16
     2            2           17            2           17
     3            3          -18            3          -18
     4            4          -19            4          -19
     5            5           20           -5          -20
     6            6           21            6           21
     7            7           22            7           22
     8            8          -23            8          -23
     9            9          -24            9          -24
    10           10           25          -10          -25
    11           11           55           11           55
    12           12           56           12           56
    13           13          -57           13          -57
    14           14          -58           14          -58
    15           15           59          -15          -59
    16           16            1           16            1
    17           17            2           17            2
    18           18           -3           18           -3
    19           19           -4           19           -4
    20           20            5          -20           -5
    21           21            6           21            6
    22           22            7           22            7
    23           23           -8           23           -8
    24           24           -9           24           -9
    25           25           10          -25          -10
    26           26           28           26           28
    27           27           60           27           60
    28           28           26           28           26
    29           29           42           29           42
    30           30           43           30           43
    31           31          -44           31          -44
    32           32          -45           32          -45
    33           33           46          -33          -46
    34           34           48           34           48
    35           35           49           35           49
    36           36          -50           36          -50
    37           37          -51           37          -51
    38           38           52          -38          -52
    39           39           53           39           53
    40           40           47           40           47
    41           41           54           41           54
    42           42           29           42           29
    43           43           30           43           30
    44           44          -31           44          -31
    45           45          -32           45          -32
    46           46           33          -46          -33
    47           47           40           47           40
    48           48           34           48           34
    49           49           35           49           35
    50           50          -36           50          -36
    51           51          -37           51          -37
    52           52           38          -52          -38
    53           53           39           53           39
    54           54           41           54           41
    55           55           11           55           11
    56           56           12           56           12
    57           57          -13           57          -13
    58           58          -14           58          -14
    59           59           15          -59          -15
    60           60           27           60           27
 There are    25 symmetry adapted basis functions of AG  symmetry.
   1         1  16  16   1
   2         2  17  17   2
   3         3 -18 -18   3
   4         4 -19 -19   4
   5         6  21  21   6
   6         7  22  22   7
   7         8 -23 -23   8
   8         9 -24 -24   9
   9        11  55  55  11
  10        12  56  56  12
  11        13 -57 -57  13
  12        14 -58 -58  14
  13        26  28  28  26
  14        27  60  60  27
  15        29  42  42  29
  16        30  43  43  30
  17        31 -44 -44  31
  18        32 -45 -45  32
  19        34  48  48  34
  20        35  49  49  35
  21        36 -50 -50  36
  22        37 -51 -51  37
  23        39  53  53  39
  24        40  47  47  40
  25        41  54  54  41
 There are     5 symmetry adapted basis functions of BG  symmetry.
  26         5 -20 -20   5
  27        10 -25 -25  10
  28        15 -59 -59  15
  29        33 -46 -46  33
  30        38 -52 -52  38
 There are     5 symmetry adapted basis functions of AU  symmetry.
  31         5  20  20   5
  32        10  25  25  10
  33        15  59  59  15
  34        33  46  46  33
  35        38  52  52  38
 There are    25 symmetry adapted basis functions of BU  symmetry.
  36         1 -16 -16   1
  37         2 -17 -17   2
  38         3  18  18   3
  39         4  19  19   4
  40         6 -21 -21   6
  41         7 -22 -22   7
  42         8  23  23   8
  43         9  24  24   9
  44        11 -55 -55  11
  45        12 -56 -56  12
  46        13  57  57  13
  47        14  58  58  14
  48        26 -28 -28  26
  49        27 -60 -60  27
  50        29 -42 -42  29
  51        30 -43 -43  30
  52        31  44  44  31
  53        32  45  45  32
  54        34 -48 -48  34
  55        35 -49 -49  35
  56        36  50  50  36
  57        37  51  51  37
  58        39 -53 -53  39
  59        40 -47 -47  40
  60        41 -54 -54  41
 Order= 1 4 2 3
 Reordered character table:
              1            2            3            4            5
     1            1            1            1            1            1
     2            4            1           -1            1           -1
     3            2            1           -1           -1            1
     4            3            1            1           -1           -1
    60 basis functions,   180 primitive gaussians,    60 cartesian basis functions
    35 alpha electrons       34 beta electrons
       nuclear repulsion energy       445.8993310947 Hartrees.
 IS=     1 IAt=     1 ISR=     1 T=0 IP=      1 IndIP=      1 IndIPD=      0 C=  2.707814D+00  0.000000D+00                             NZ=T
 IS=     1 IAt=     1 ISR=     1 T=0 IP=      2 IndIP=      2 IndIPD=      1 C=  2.618880D+00  0.000000D+00                             NZ=T
 IS=     1 IAt=     1 ISR=     1 T=0 IP=      3 IndIP=      3 IndIPD=      2 C=  8.161906D-01  0.000000D+00                             NZ=T
 IS=     2 IAt=     1 ISR=     2 T=1 IP=      1 IndIP=      4 IndIPD=      0 C= -1.600172D-01  8.560445D-01                             NZ=T
 IS=     2 IAt=     1 ISR=     2 T=1 IP=      2 IndIP=      5 IndIPD=      1 C=  2.140359D-01  5.383038D-01                             NZ=T
 IS=     2 IAt=     1 ISR=     2 T=1 IP=      3 IndIP=      6 IndIPD=      2 C=  1.615361D-01  8.527636D-02                             NZ=T
 IS=     3 IAt=     2 ISR=     1 T=0 IP=      1 IndIP=      7 IndIPD=      0 C=  2.707814D+00  0.000000D+00                             NZ=T
 IS=     3 IAt=     2 ISR=     1 T=0 IP=      2 IndIP=      8 IndIPD=      1 C=  2.618880D+00  0.000000D+00                             NZ=T
 IS=     3 IAt=     2 ISR=     1 T=0 IP=      3 IndIP=      9 IndIPD=      2 C=  8.161906D-01  0.000000D+00                             NZ=T
 IS=     4 IAt=     2 ISR=     2 T=1 IP=      1 IndIP=     10 IndIPD=      0 C= -1.600172D-01  8.560445D-01                             NZ=T
 IS=     4 IAt=     2 ISR=     2 T=1 IP=      2 IndIP=     11 IndIPD=      1 C=  2.140359D-01  5.383038D-01                             NZ=T
 IS=     4 IAt=     2 ISR=     2 T=1 IP=      3 IndIP=     12 IndIPD=      2 C=  1.615361D-01  8.527636D-02                             NZ=T
 IS=     5 IAt=     3 ISR=     1 T=0 IP=      1 IndIP=     13 IndIPD=      0 C=  2.707814D+00  0.000000D+00                             NZ=T
 IS=     5 IAt=     3 ISR=     1 T=0 IP=      2 IndIP=     14 IndIPD=      1 C=  2.618880D+00  0.000000D+00                             NZ=T
 IS=     5 IAt=     3 ISR=     1 T=0 IP=      3 IndIP=     15 IndIPD=      2 C=  8.161906D-01  0.000000D+00                             NZ=T
 IS=     6 IAt=     3 ISR=     2 T=1 IP=      1 IndIP=     16 IndIPD=      0 C= -1.600172D-01  8.560445D-01                             NZ=T
 IS=     6 IAt=     3 ISR=     2 T=1 IP=      2 IndIP=     17 IndIPD=      1 C=  2.140359D-01  5.383038D-01                             NZ=T
 IS=     6 IAt=     3 ISR=     2 T=1 IP=      3 IndIP=     18 IndIPD=      2 C=  1.615361D-01  8.527636D-02                             NZ=T
 IS=     7 IAt=     4 ISR=     1 T=0 IP=      1 IndIP=     19 IndIPD=      0 C=  2.707814D+00  0.000000D+00                             NZ=T
 IS=     7 IAt=     4 ISR=     1 T=0 IP=      2 IndIP=     20 IndIPD=      1 C=  2.618880D+00  0.000000D+00                             NZ=T
 IS=     7 IAt=     4 ISR=     1 T=0 IP=      3 IndIP=     21 IndIPD=      2 C=  8.161906D-01  0.000000D+00                             NZ=T
 IS=     8 IAt=     4 ISR=     2 T=1 IP=      1 IndIP=     22 IndIPD=      0 C= -1.600172D-01  8.560445D-01                             NZ=T
 IS=     8 IAt=     4 ISR=     2 T=1 IP=      2 IndIP=     23 IndIPD=      1 C=  2.140359D-01  5.383038D-01                             NZ=T
 IS=     8 IAt=     4 ISR=     2 T=1 IP=      3 IndIP=     24 IndIPD=      2 C=  1.615361D-01  8.527636D-02                             NZ=T
 IS=     9 IAt=     5 ISR=     1 T=0 IP=      1 IndIP=     25 IndIPD=      0 C=  2.707814D+00  0.000000D+00                             NZ=T
 IS=     9 IAt=     5 ISR=     1 T=0 IP=      2 IndIP=     26 IndIPD=      1 C=  2.618880D+00  0.000000D+00                             NZ=T
 IS=     9 IAt=     5 ISR=     1 T=0 IP=      3 IndIP=     27 IndIPD=      2 C=  8.161906D-01  0.000000D+00                             NZ=T
 IS=    10 IAt=     5 ISR=     2 T=1 IP=      1 IndIP=     28 IndIPD=      0 C= -1.600172D-01  8.560445D-01                             NZ=T
 IS=    10 IAt=     5 ISR=     2 T=1 IP=      2 IndIP=     29 IndIPD=      1 C=  2.140359D-01  5.383038D-01                             NZ=T
 IS=    10 IAt=     5 ISR=     2 T=1 IP=      3 IndIP=     30 IndIPD=      2 C=  1.615361D-01  8.527636D-02                             NZ=T
 IS=    11 IAt=     6 ISR=     1 T=0 IP=      1 IndIP=     31 IndIPD=      0 C=  2.769344D-01  0.000000D+00                             NZ=T
 IS=    11 IAt=     6 ISR=     1 T=0 IP=      2 IndIP=     32 IndIPD=      1 C=  2.678389D-01  0.000000D+00                             NZ=T
 IS=    11 IAt=     6 ISR=     1 T=0 IP=      3 IndIP=     33 IndIPD=      2 C=  8.347367D-02  0.000000D+00                             NZ=T
 IS=    12 IAt=     7 ISR=     1 T=0 IP=      1 IndIP=     34 IndIPD=      0 C=  2.769344D-01  0.000000D+00                             NZ=T
 IS=    12 IAt=     7 ISR=     1 T=0 IP=      2 IndIP=     35 IndIPD=      1 C=  2.678389D-01  0.000000D+00                             NZ=T
 IS=    12 IAt=     7 ISR=     1 T=0 IP=      3 IndIP=     36 IndIPD=      2 C=  8.347367D-02  0.000000D+00                             NZ=T
 IS=    13 IAt=     8 ISR=     1 T=0 IP=      1 IndIP=     37 IndIPD=      0 C=  2.769344D-01  0.000000D+00                             NZ=T
 IS=    13 IAt=     8 ISR=     1 T=0 IP=      2 IndIP=     38 IndIPD=      1 C=  2.678389D-01  0.000000D+00                             NZ=T
 IS=    13 IAt=     8 ISR=     1 T=0 IP=      3 IndIP=     39 IndIPD=      2 C=  8.347367D-02  0.000000D+00                             NZ=T
 IS=    14 IAt=     9 ISR=     1 T=0 IP=      1 IndIP=     40 IndIPD=      0 C=  2.707814D+00  0.000000D+00                             NZ=T
 IS=    14 IAt=     9 ISR=     1 T=0 IP=      2 IndIP=     41 IndIPD=      1 C=  2.618880D+00  0.000000D+00                             NZ=T
 IS=    14 IAt=     9 ISR=     1 T=0 IP=      3 IndIP=     42 IndIPD=      2 C=  8.161906D-01  0.000000D+00                             NZ=T
 IS=    15 IAt=     9 ISR=     2 T=1 IP=      1 IndIP=     43 IndIPD=      0 C= -1.600172D-01  8.560445D-01                             NZ=T
 IS=    15 IAt=     9 ISR=     2 T=1 IP=      2 IndIP=     44 IndIPD=      1 C=  2.140359D-01  5.383038D-01                             NZ=T
 IS=    15 IAt=     9 ISR=     2 T=1 IP=      3 IndIP=     45 IndIPD=      2 C=  1.615361D-01  8.527636D-02                             NZ=T
 IS=    16 IAt=    10 ISR=     1 T=0 IP=      1 IndIP=     46 IndIPD=      0 C=  2.707814D+00  0.000000D+00                             NZ=T
 IS=    16 IAt=    10 ISR=     1 T=0 IP=      2 IndIP=     47 IndIPD=      1 C=  2.618880D+00  0.000000D+00                             NZ=T
 IS=    16 IAt=    10 ISR=     1 T=0 IP=      3 IndIP=     48 IndIPD=      2 C=  8.161906D-01  0.000000D+00                             NZ=T
 IS=    17 IAt=    10 ISR=     2 T=1 IP=      1 IndIP=     49 IndIPD=      0 C= -1.600172D-01  8.560445D-01                             NZ=T
 IS=    17 IAt=    10 ISR=     2 T=1 IP=      2 IndIP=     50 IndIPD=      1 C=  2.140359D-01  5.383038D-01                             NZ=T
 IS=    17 IAt=    10 ISR=     2 T=1 IP=      3 IndIP=     51 IndIPD=      2 C=  1.615361D-01  8.527636D-02                             NZ=T
 IS=    18 IAt=    11 ISR=     1 T=0 IP=      1 IndIP=     52 IndIPD=      0 C=  2.769344D-01  0.000000D+00                             NZ=T
 IS=    18 IAt=    11 ISR=     1 T=0 IP=      2 IndIP=     53 IndIPD=      1 C=  2.678389D-01  0.000000D+00                             NZ=T
 IS=    18 IAt=    11 ISR=     1 T=0 IP=      3 IndIP=     54 IndIPD=      2 C=  8.347367D-02  0.000000D+00                             NZ=T
 IS=    19 IAt=    12 ISR=     1 T=0 IP=      1 IndIP=     55 IndIPD=      0 C=  2.769344D-01  0.000000D+00                             NZ=T
 IS=    19 IAt=    12 ISR=     1 T=0 IP=      2 IndIP=     56 IndIPD=      1 C=  2.678389D-01  0.000000D+00                             NZ=T
 IS=    19 IAt=    12 ISR=     1 T=0 IP=      3 IndIP=     57 IndIPD=      2 C=  8.347367D-02  0.000000D+00                             NZ=T
 IS=    20 IAt=    13 ISR=     1 T=0 IP=      1 IndIP=     58 IndIPD=      0 C=  2.769344D-01  0.000000D+00                             NZ=T
 IS=    20 IAt=    13 ISR=     1 T=0 IP=      2 IndIP=     59 IndIPD=      1 C=  2.678389D-01  0.000000D+00                             NZ=T
 IS=    20 IAt=    13 ISR=     1 T=0 IP=      3 IndIP=     60 IndIPD=      2 C=  8.347367D-02  0.000000D+00                             NZ=T
 IS=    21 IAt=    14 ISR=     1 T=0 IP=      1 IndIP=     61 IndIPD=      0 C=  2.707814D+00  0.000000D+00                             NZ=T
 IS=    21 IAt=    14 ISR=     1 T=0 IP=      2 IndIP=     62 IndIPD=      1 C=  2.618880D+00  0.000000D+00                             NZ=T
 IS=    21 IAt=    14 ISR=     1 T=0 IP=      3 IndIP=     63 IndIPD=      2 C=  8.161906D-01  0.000000D+00                             NZ=T
 IS=    22 IAt=    14 ISR=     2 T=1 IP=      1 IndIP=     64 IndIPD=      0 C= -1.600172D-01  8.560445D-01                             NZ=T
 IS=    22 IAt=    14 ISR=     2 T=1 IP=      2 IndIP=     65 IndIPD=      1 C=  2.140359D-01  5.383038D-01                             NZ=T
 IS=    22 IAt=    14 ISR=     2 T=1 IP=      3 IndIP=     66 IndIPD=      2 C=  1.615361D-01  8.527636D-02                             NZ=T
 IS=    23 IAt=    15 ISR=     1 T=0 IP=      1 IndIP=     67 IndIPD=      0 C=  2.769344D-01  0.000000D+00                             NZ=T
 IS=    23 IAt=    15 ISR=     1 T=0 IP=      2 IndIP=     68 IndIPD=      1 C=  2.678389D-01  0.000000D+00                             NZ=T
 IS=    23 IAt=    15 ISR=     1 T=0 IP=      3 IndIP=     69 IndIPD=      2 C=  8.347367D-02  0.000000D+00                             NZ=T
 IS=    24 IAt=    16 ISR=     1 T=0 IP=      1 IndIP=     70 IndIPD=      0 C=  2.707814D+00  0.000000D+00                             NZ=T
 IS=    24 IAt=    16 ISR=     1 T=0 IP=      2 IndIP=     71 IndIPD=      1 C=  2.618880D+00  0.000000D+00                             NZ=T
 IS=    24 IAt=    16 ISR=     1 T=0 IP=      3 IndIP=     72 IndIPD=      2 C=  8.161906D-01  0.000000D+00                             NZ=T
 IS=    25 IAt=    16 ISR=     2 T=1 IP=      1 IndIP=     73 IndIPD=      0 C= -1.600172D-01  8.560445D-01                             NZ=T
 IS=    25 IAt=    16 ISR=     2 T=1 IP=      2 IndIP=     74 IndIPD=      1 C=  2.140359D-01  5.383038D-01                             NZ=T
 IS=    25 IAt=    16 ISR=     2 T=1 IP=      3 IndIP=     75 IndIPD=      2 C=  1.615361D-01  8.527636D-02                             NZ=T
 IS=    26 IAt=    17 ISR=     1 T=0 IP=      1 IndIP=     76 IndIPD=      0 C=  2.769344D-01  0.000000D+00                             NZ=T
 IS=    26 IAt=    17 ISR=     1 T=0 IP=      2 IndIP=     77 IndIPD=      1 C=  2.678389D-01  0.000000D+00                             NZ=T
 IS=    26 IAt=    17 ISR=     1 T=0 IP=      3 IndIP=     78 IndIPD=      2 C=  8.347367D-02  0.000000D+00                             NZ=T
 IS=    27 IAt=    18 ISR=     1 T=0 IP=      1 IndIP=     79 IndIPD=      0 C=  2.769344D-01  0.000000D+00                             NZ=T
 IS=    27 IAt=    18 ISR=     1 T=0 IP=      2 IndIP=     80 IndIPD=      1 C=  2.678389D-01  0.000000D+00                             NZ=T
 IS=    27 IAt=    18 ISR=     1 T=0 IP=      3 IndIP=     81 IndIPD=      2 C=  8.347367D-02  0.000000D+00                             NZ=T
 IS=    28 IAt=    19 ISR=     1 T=0 IP=      1 IndIP=     82 IndIPD=      0 C=  2.707814D+00  0.000000D+00                             NZ=T
 IS=    28 IAt=    19 ISR=     1 T=0 IP=      2 IndIP=     83 IndIPD=      1 C=  2.618880D+00  0.000000D+00                             NZ=T
 IS=    28 IAt=    19 ISR=     1 T=0 IP=      3 IndIP=     84 IndIPD=      2 C=  8.161906D-01  0.000000D+00                             NZ=T
 IS=    29 IAt=    19 ISR=     2 T=1 IP=      1 IndIP=     85 IndIPD=      0 C= -1.600172D-01  8.560445D-01                             NZ=T
 IS=    29 IAt=    19 ISR=     2 T=1 IP=      2 IndIP=     86 IndIPD=      1 C=  2.140359D-01  5.383038D-01                             NZ=T
 IS=    29 IAt=    19 ISR=     2 T=1 IP=      3 IndIP=     87 IndIPD=      2 C=  1.615361D-01  8.527636D-02                             NZ=T
 IS=    30 IAt=    20 ISR=     1 T=0 IP=      1 IndIP=     88 IndIPD=      0 C=  2.769344D-01  0.000000D+00                             NZ=T
 IS=    30 IAt=    20 ISR=     1 T=0 IP=      2 IndIP=     89 IndIPD=      1 C=  2.678389D-01  0.000000D+00                             NZ=T
 IS=    30 IAt=    20 ISR=     1 T=0 IP=      3 IndIP=     90 IndIPD=      2 C=  8.347367D-02  0.000000D+00                             NZ=T
 IExCor=  402 DFT=T Ex+Corr=B3LYP ExCW=0 ScaHFX=  0.200000
 ScaDFX=  0.800000  0.720000  1.000000  0.810000 ScalE2=  1.000000  1.000000
 IRadAn=      5 IRanWt=     -1 IRanGd=            0 ICorTp=0 IEmpDi=  4
 NAtoms=   20 NActive=   20 NUniq=   10 SFac= 4.00D+00 NAtFMM=   60 NAOKFM=F Big=F
 Integral buffers will be    131072 words long.
 Raffenetti 2 integral format.
 Two-electron integral symmetry is turned on.
 Leave Link  301 at Fri Nov 30 14:54:06 2018, MaxMem=   805306368 cpu:               0.4 elap:               0.1
 (Enter /ihome/crc/build/gaussian/a03/g16/l302.exe)
 NPDir=0 NMtPBC=     1 NCelOv=     1 NCel=       1 NClECP=     1 NCelD=      1
         NCelK=      1 NCelE2=     1 NClLst=     1 CellRange=     0.0.
 One-electron integrals computed using PRISM.
 One-electron integral symmetry used in STVInt
 Entering OneElI...
 Calculate overlap and kinetic energy integrals
    NBasis =  60  MinDer = 0  MaxDer = 0
 Requested accuracy = 0.1000D-12
 Symmetry will be used
 PrmmSu-InSpLW:  IPartL=    0 NPrtUS=    8 NPrtUL=    1 DoSpLW=F IThBeg=    0 IThEnd=    7 NThAct=    8.
 PrsmSu:  NPrtUS=   8 ThrOK=T IAlg=1 NPAlg=2 LenDen=           0 ISkipM=0 DoSpLW=F IThBeg=    0 IThEnd=    7.
 Prism:   IPart=     0 DynPar=F LinDyn=F Incr=           1.
 PRISM was handed   100628108 working-precision words and   442 shell-pairs
 PRISM was handed   100628108 working-precision words and   442 shell-pairs
 PRISM was handed   100628108 working-precision words and   442 shell-pairs
 PRISM was handed   100628108 working-precision words and   442 shell-pairs
 PRISM was handed   100628108 working-precision words and   442 shell-pairs
 PRISM was handed   100628108 working-precision words and   442 shell-pairs
 PRISM was handed   100628108 working-precision words and   442 shell-pairs
 PRISM was handed   100628108 working-precision words and   442 shell-pairs
 IPart=  7 NShTot=          21 NBatch=          10 AvBLen=         2.1
 IPart=  4 NShTot=          26 NBatch=          13 AvBLen=         2.0
 IPart=  2 NShTot=          30 NBatch=          15 AvBLen=         2.0
 IPart=  1 NShTot=          35 NBatch=          18 AvBLen=         1.9
 IPart=  6 NShTot=          23 NBatch=          12 AvBLen=         1.9
 IPart=  3 NShTot=          28 NBatch=          14 AvBLen=         2.0
 IPart=  5 NShTot=          25 NBatch=          13 AvBLen=         1.9
 IPart=  0 NShTot=          38 NBatch=          19 AvBLen=         2.0
 PrSmSu:  NxtVal=              9.
 *** Overlap *** 
                1             2             3             4             5 
      1  0.100000D+01
      2  0.248362D+00  0.100000D+01
      3  0.000000D+00  0.000000D+00  0.100000D+01
      4  0.000000D+00  0.000000D+00  0.000000D+00  0.100000D+01
      5  0.000000D+00  0.000000D+00  0.000000D+00  0.000000D+00  0.100000D+01
      6  0.000000D+00  0.356474D-01 -0.555212D-01  0.203648D-01  0.000000D+00
      7  0.356474D-01  0.354146D+00 -0.356945D+00  0.130925D+00  0.000000D+00
      8  0.555212D-01  0.356945D+00 -0.263845D+00  0.171962D+00  0.000000D+00
      9 -0.203648D-01 -0.130925D+00  0.171962D+00  0.141907D+00  0.000000D+00
     10  0.000000D+00  0.000000D+00  0.000000D+00  0.000000D+00  0.204981D+00
     11  0.000000D+00  0.159334D-02 -0.242051D-02  0.283361D-02  0.000000D+00
     12  0.159334D-02  0.563300D-01 -0.543522D-01  0.636284D-01  0.000000D+00
     13  0.242051D-02  0.543522D-01 -0.343642D-01  0.675905D-01  0.000000D+00
     14 -0.283361D-02 -0.636284D-01  0.675905D-01 -0.557536D-01  0.000000D+00
     15  0.000000D+00  0.000000D+00  0.000000D+00  0.000000D+00  0.233725D-01
     16  0.000000D+00  0.298192D-03 -0.152806D-03  0.799573D-03  0.000000D+00
     17  0.298192D-03  0.216835D-01 -0.665587D-02  0.348275D-01  0.000000D+00
     18  0.152806D-03  0.665587D-02  0.604780D-02  0.114792D-01  0.000000D+00
     19 -0.799573D-03 -0.348275D-01  0.114792D-01 -0.518246D-01  0.000000D+00
     20  0.000000D+00  0.000000D+00  0.000000D+00  0.000000D+00  0.824158D-02
     21  0.000000D+00  0.155148D-02  0.117515D-02  0.344415D-02  0.000000D+00
     22  0.155148D-02  0.554696D-01  0.266571D-01  0.781269D-01  0.000000D+00
     23 -0.117515D-02 -0.266571D-01  0.888093D-02 -0.413135D-01  0.000000D+00
     24 -0.344415D-02 -0.781269D-01 -0.413135D-01 -0.981048D-01  0.000000D+00
     25  0.000000D+00  0.000000D+00  0.000000D+00  0.000000D+00  0.229772D-01
     26  0.503522D-02  0.922543D-01 -0.119236D+00 -0.119301D-01  0.000000D+00
     27  0.802831D-04  0.592140D-02 -0.754660D-02  0.636917D-02  0.000000D+00
     28  0.794271D-04  0.588177D-02  0.465100D-02  0.864138D-02  0.000000D+00
     29  0.000000D+00  0.000000D+00  0.000000D+00  0.000000D+00  0.000000D+00
     30  0.000000D+00  0.256747D-03 -0.113796D-03  0.557764D-03  0.000000D+00
     31  0.000000D+00  0.113796D-03  0.314736D-04  0.250292D-03  0.000000D+00
     32  0.000000D+00 -0.557764D-03  0.250292D-03 -0.114425D-02  0.000000D+00
     33  0.000000D+00  0.000000D+00  0.000000D+00  0.000000D+00  0.825385D-04
     34  0.000000D+00  0.000000D+00  0.000000D+00  0.000000D+00  0.000000D+00
     35  0.000000D+00  0.701408D-05  0.000000D+00  0.186031D-04  0.000000D+00
     36  0.000000D+00  0.000000D+00  0.220756D-05  0.000000D+00  0.000000D+00
     37  0.000000D+00 -0.186031D-04  0.000000D+00 -0.472363D-04  0.000000D+00
     38  0.000000D+00  0.000000D+00  0.000000D+00  0.000000D+00  0.220756D-05
     39  0.000000D+00  0.231864D-04  0.109580D-04  0.520008D-04  0.000000D+00
     40  0.000000D+00  0.819694D-04 -0.701735D-04  0.161827D-03  0.000000D+00
     41  0.000000D+00  0.000000D+00  0.000000D+00  0.000000D+00  0.000000D+00
     42  0.000000D+00  0.295675D-01  0.110071D-01 -0.480731D-01  0.000000D+00
     43  0.295675D-01  0.317716D+00  0.785799D-01 -0.343195D+00  0.000000D+00
     44 -0.110071D-01 -0.785799D-01  0.153182D+00  0.108326D+00  0.000000D+00
     45  0.480731D-01  0.343195D+00  0.108326D+00 -0.295123D+00  0.000000D+00
     46  0.000000D+00  0.000000D+00  0.000000D+00  0.000000D+00  0.177985D+00
     47  0.490723D-02  0.905674D-01  0.758840D-01 -0.902554D-01  0.000000D+00
     48  0.000000D+00  0.115899D-02 -0.594607D-03 -0.273811D-02  0.000000D+00
     49  0.115899D-02  0.468872D-01 -0.150872D-01 -0.694748D-01  0.000000D+00
     50  0.594607D-03  0.150872D-01  0.137702D-01 -0.244691D-01  0.000000D+00
     51  0.273811D-02  0.694748D-01 -0.244691D-01 -0.935939D-01  0.000000D+00
     52  0.000000D+00  0.000000D+00  0.000000D+00  0.000000D+00  0.190839D-01
     53  0.733595D-03  0.245234D-01 -0.209661D-01 -0.300936D-01  0.000000D+00
     54  0.577498D-04  0.481999D-02 -0.451550D-03 -0.813884D-02  0.000000D+00
     55  0.000000D+00  0.355361D-01  0.437662D-01  0.395015D-01  0.000000D+00
     56  0.355361D-01  0.353510D+00  0.281890D+00  0.254422D+00  0.000000D+00
     57 -0.437662D-01 -0.281890D+00 -0.883157D-01 -0.264281D+00  0.000000D+00
     58 -0.395015D-01 -0.254422D+00 -0.264281D+00 -0.340314D-01  0.000000D+00
     59  0.000000D+00  0.000000D+00  0.000000D+00  0.000000D+00  0.204497D+00
     60  0.511469D-02  0.932965D-01  0.116381D+00  0.331554D-01  0.000000D+00
                6             7             8             9            10 
      6  0.100000D+01
      7  0.248362D+00  0.100000D+01
      8  0.000000D+00  0.000000D+00  0.100000D+01
      9  0.000000D+00  0.000000D+00  0.000000D+00  0.100000D+01
     10  0.000000D+00  0.000000D+00  0.000000D+00  0.000000D+00  0.100000D+01
     11  0.000000D+00  0.373151D-01 -0.115028D-01  0.607932D-01  0.000000D+00
     12  0.373151D-01  0.363558D+00 -0.719676D-01  0.380356D+00  0.000000D+00
     13  0.115028D-01  0.719676D-01  0.193522D+00  0.986482D-01  0.000000D+00
     14 -0.607932D-01 -0.380356D+00  0.986482D-01 -0.309177D+00  0.000000D+00
     15  0.000000D+00  0.000000D+00  0.000000D+00  0.000000D+00  0.212188D+00
     16  0.000000D+00  0.155148D-02  0.117515D-02  0.344415D-02  0.000000D+00
     17  0.155148D-02  0.554696D-01  0.266571D-01  0.781269D-01  0.000000D+00
     18 -0.117515D-02 -0.266571D-01  0.888093D-02 -0.413135D-01  0.000000D+00
     19 -0.344415D-02 -0.781269D-01 -0.413135D-01 -0.981048D-01  0.000000D+00
     20  0.000000D+00  0.000000D+00  0.000000D+00  0.000000D+00  0.229772D-01
     21  0.000000D+00  0.379395D-03  0.768273D-03  0.664332D-03  0.000000D+00
     22  0.379395D-03  0.248323D-01  0.303413D-01  0.262364D-01  0.000000D+00
     23 -0.768273D-03 -0.303413D-01 -0.303857D-01 -0.345246D-01  0.000000D+00
     24 -0.664332D-03 -0.262364D-01 -0.345246D-01 -0.203131D-01  0.000000D+00
     25  0.000000D+00  0.000000D+00  0.000000D+00  0.000000D+00  0.954059D-02
     26  0.611774D-01  0.486379D+00 -0.355456D+00 -0.299245D+00  0.000000D+00
     27  0.526789D-02  0.952947D-01 -0.739469D-01  0.986247D-01  0.000000D+00
     28  0.109519D-04  0.173132D-02  0.237371D-02  0.203723D-02  0.000000D+00
     29  0.000000D+00  0.247945D-05  0.108466D-05  0.891836D-05  0.000000D+00
     30  0.247945D-05  0.157362D-02  0.377339D-03  0.310257D-02  0.000000D+00
     31 -0.108466D-05 -0.377339D-03  0.431168D-03 -0.765022D-03  0.000000D+00
     32 -0.891836D-05 -0.310257D-02 -0.765022D-03 -0.576598D-02  0.000000D+00
     33  0.000000D+00  0.000000D+00  0.000000D+00  0.000000D+00  0.524211D-03
     34  0.000000D+00  0.000000D+00  0.000000D+00  0.000000D+00  0.000000D+00
     35  0.000000D+00  0.247495D-04  0.165607D-04  0.597353D-04  0.000000D+00
     36  0.000000D+00 -0.165607D-04 -0.330678D-05 -0.401293D-04  0.000000D+00
     37  0.000000D+00 -0.597353D-04 -0.401293D-04 -0.136930D-03  0.000000D+00
     38  0.000000D+00  0.000000D+00  0.000000D+00  0.000000D+00  0.781844D-05
     39  0.000000D+00  0.242135D-04  0.255117D-04  0.491560D-04  0.000000D+00
     40  0.559277D-05  0.115063D-02 -0.324242D-03  0.210716D-02  0.000000D+00
     41  0.000000D+00  0.174863D-05  0.000000D+00  0.442394D-05  0.000000D+00
     42  0.000000D+00  0.104784D-02  0.166396D-02 -0.194394D-02  0.000000D+00
     43  0.104784D-02  0.442500D-01  0.439031D-01 -0.512901D-01  0.000000D+00
     44 -0.166396D-02 -0.439031D-01 -0.296908D-01  0.556056D-01  0.000000D+00
     45  0.194394D-02  0.512901D-01  0.556056D-01 -0.470554D-01  0.000000D+00
     46  0.000000D+00  0.000000D+00  0.000000D+00  0.000000D+00  0.179063D-01
     47  0.648275D-04  0.518029D-02  0.684169D-02 -0.540356D-02  0.000000D+00
     48  0.000000D+00  0.118780D-03  0.897748D-04 -0.335412D-03  0.000000D+00
     49  0.118780D-03  0.129682D-01  0.572733D-02 -0.213982D-01  0.000000D+00
     50 -0.897748D-04 -0.572733D-02  0.206385D-02  0.100423D-01  0.000000D+00
     51  0.335412D-03  0.213982D-01  0.100423D-01 -0.327678D-01  0.000000D+00
     52  0.000000D+00  0.000000D+00  0.000000D+00  0.000000D+00  0.475173D-02
     53  0.747903D-03  0.248392D-01 -0.379959D-02 -0.369122D-01  0.000000D+00
     54  0.326131D-05  0.830279D-03  0.428411D-03 -0.150942D-02  0.000000D+00
     55  0.000000D+00  0.172121D-02  0.391932D-02  0.760306D-03  0.000000D+00
     56  0.172121D-02  0.589034D-01  0.854617D-01  0.165787D-01  0.000000D+00
     57 -0.391932D-02 -0.854617D-01 -0.112157D+00 -0.265217D-01  0.000000D+00
     58 -0.760306D-03 -0.165787D-01 -0.265217D-01  0.194151D-01  0.000000D+00
     59  0.000000D+00  0.000000D+00  0.000000D+00  0.000000D+00  0.245600D-01
     60  0.855323D-04  0.616122D-02  0.102420D-01  0.321137D-03  0.000000D+00
               11            12            13            14            15 
     11  0.100000D+01
     12  0.248362D+00  0.100000D+01
     13  0.000000D+00  0.000000D+00  0.100000D+01
     14  0.000000D+00  0.000000D+00  0.000000D+00  0.100000D+01
     15  0.000000D+00  0.000000D+00  0.000000D+00  0.000000D+00  0.100000D+01
     16  0.000000D+00  0.355361D-01  0.437662D-01  0.395015D-01  0.000000D+00
     17  0.355361D-01  0.353510D+00  0.281890D+00  0.254422D+00  0.000000D+00
     18 -0.437662D-01 -0.281890D+00 -0.883157D-01 -0.264281D+00  0.000000D+00
     19 -0.395015D-01 -0.254422D+00 -0.264281D+00 -0.340314D-01  0.000000D+00
     20  0.000000D+00  0.000000D+00  0.000000D+00  0.000000D+00  0.204497D+00
     21  0.000000D+00  0.172121D-02  0.391932D-02  0.760306D-03  0.000000D+00
     22  0.172121D-02  0.589034D-01  0.854617D-01  0.165787D-01  0.000000D+00
     23 -0.391932D-02 -0.854617D-01 -0.112157D+00 -0.265217D-01  0.000000D+00
     24 -0.760306D-03 -0.165787D-01 -0.265217D-01  0.194151D-01  0.000000D+00
     25  0.000000D+00  0.000000D+00  0.000000D+00  0.000000D+00  0.245600D-01
     26  0.531595D-02  0.959187D-01 -0.331767D-01 -0.119449D+00  0.000000D+00
     27  0.610287D-01  0.485781D+00 -0.439215D+00  0.150501D+00  0.000000D+00
     28  0.840988D-04  0.609625D-02  0.953924D-02  0.345721D-02  0.000000D+00
     29  0.000000D+00  0.125704D-02  0.863692D-03  0.288761D-02  0.000000D+00
     30  0.125704D-02  0.491294D-01  0.212383D-01  0.710067D-01  0.000000D+00
     31 -0.863692D-03 -0.212383D-01  0.100286D-01 -0.336456D-01  0.000000D+00
     32 -0.288761D-02 -0.710067D-01 -0.336456D-01 -0.923963D-01  0.000000D+00
     33  0.000000D+00  0.000000D+00  0.000000D+00  0.000000D+00  0.200922D-01
     34  0.000000D+00  0.296951D-05  0.449440D-05  0.967947D-05  0.000000D+00
     35  0.296951D-05  0.173392D-02  0.144120D-02  0.310388D-02  0.000000D+00
     36 -0.449440D-05 -0.144120D-02 -0.653971D-03 -0.265596D-02  0.000000D+00
     37 -0.967947D-05 -0.310388D-02 -0.265596D-02 -0.514082D-02  0.000000D+00
     38  0.000000D+00  0.000000D+00  0.000000D+00  0.000000D+00  0.579254D-03
     39  0.232638D-05  0.677222D-03  0.819016D-03  0.100368D-02  0.000000D+00
     40  0.132621D-02  0.364447D-01 -0.704847D-02  0.520617D-01  0.000000D+00
     41  0.000000D+00  0.191859D-03  0.106210D-03  0.379885D-03  0.000000D+00
     42  0.000000D+00  0.211760D-05  0.387622D-05 -0.668473D-05  0.000000D+00
     43  0.211760D-05  0.144572D-02  0.144828D-02 -0.249764D-02  0.000000D+00
     44 -0.387622D-05 -0.144828D-02 -0.101000D-02  0.257037D-02  0.000000D+00
     45  0.668473D-05  0.249764D-02  0.257037D-02 -0.395228D-02  0.000000D+00
     46  0.000000D+00  0.000000D+00  0.000000D+00  0.000000D+00  0.480457D-03
     47  0.000000D+00  0.190173D-03  0.252971D-03 -0.298370D-03  0.000000D+00
     48  0.000000D+00  0.000000D+00  0.000000D+00  0.000000D+00  0.000000D+00
     49  0.000000D+00  0.175681D-03  0.938805D-04 -0.386650D-03  0.000000D+00
     50  0.000000D+00 -0.938805D-04  0.554381D-05  0.208765D-03  0.000000D+00
     51  0.000000D+00  0.386650D-03  0.208765D-03 -0.803573D-03  0.000000D+00
     52  0.000000D+00  0.000000D+00  0.000000D+00  0.000000D+00  0.562329D-04
     53  0.284072D-05  0.763893D-03 -0.102725D-04 -0.145076D-02  0.000000D+00
     54  0.000000D+00  0.748756D-05  0.454262D-05 -0.174958D-04  0.000000D+00
     55  0.000000D+00  0.397900D-03  0.100304D-02 -0.345863D-03  0.000000D+00
     56  0.397900D-03  0.255085D-01  0.388570D-01 -0.133985D-01  0.000000D+00
     57 -0.100304D-02 -0.388570D-01 -0.539636D-01  0.219942D-01  0.000000D+00
     58  0.345863D-03  0.133985D-01  0.219942D-01  0.223802D-02  0.000000D+00
     59  0.000000D+00  0.000000D+00  0.000000D+00  0.000000D+00  0.982192D-02
     60  0.114654D-04  0.178039D-02  0.303628D-02 -0.104511D-02  0.000000D+00
               16            17            18            19            20 
     16  0.100000D+01
     17  0.248362D+00  0.100000D+01
     18  0.000000D+00  0.000000D+00  0.100000D+01
     19  0.000000D+00  0.000000D+00  0.000000D+00  0.100000D+01
     20  0.000000D+00  0.000000D+00  0.000000D+00  0.000000D+00  0.100000D+01
     21  0.000000D+00  0.356474D-01  0.555212D-01 -0.203648D-01  0.000000D+00
     22  0.356474D-01  0.354146D+00  0.356945D+00 -0.130925D+00  0.000000D+00
     23 -0.555212D-01 -0.356945D+00 -0.263845D+00  0.171962D+00  0.000000D+00
     24  0.203648D-01  0.130925D+00  0.171962D+00  0.141907D+00  0.000000D+00
     25  0.000000D+00  0.000000D+00  0.000000D+00  0.000000D+00  0.204981D+00
     26  0.794271D-04  0.588177D-02 -0.465100D-02 -0.864138D-02  0.000000D+00
     27  0.511469D-02  0.932965D-01 -0.116381D+00 -0.331554D-01  0.000000D+00
     28  0.503522D-02  0.922543D-01  0.119236D+00  0.119301D-01  0.000000D+00
     29  0.000000D+00  0.295675D-01 -0.110071D-01  0.480731D-01  0.000000D+00
     30  0.295675D-01  0.317716D+00 -0.785799D-01  0.343195D+00  0.000000D+00
     31  0.110071D-01  0.785799D-01  0.153182D+00  0.108326D+00  0.000000D+00
     32 -0.480731D-01 -0.343195D+00  0.108326D+00 -0.295123D+00  0.000000D+00
     33  0.000000D+00  0.000000D+00  0.000000D+00  0.000000D+00  0.177985D+00
     34  0.000000D+00  0.115899D-02  0.594607D-03  0.273811D-02  0.000000D+00
     35  0.115899D-02  0.468872D-01  0.150872D-01  0.694748D-01  0.000000D+00
     36 -0.594607D-03 -0.150872D-01  0.137702D-01 -0.244691D-01  0.000000D+00
     37 -0.273811D-02 -0.694748D-01 -0.244691D-01 -0.935939D-01  0.000000D+00
     38  0.000000D+00  0.000000D+00  0.000000D+00  0.000000D+00  0.190839D-01
     39  0.733595D-03  0.245234D-01  0.209661D-01  0.300936D-01  0.000000D+00
     40  0.490723D-02  0.905674D-01 -0.758840D-01  0.902554D-01  0.000000D+00
     41  0.577498D-04  0.481999D-02  0.451550D-03  0.813884D-02  0.000000D+00
     42  0.000000D+00  0.000000D+00  0.000000D+00  0.000000D+00  0.000000D+00
     43  0.000000D+00  0.256747D-03  0.113796D-03 -0.557764D-03  0.000000D+00
     44  0.000000D+00 -0.113796D-03  0.314736D-04  0.250292D-03  0.000000D+00
     45  0.000000D+00  0.557764D-03  0.250292D-03 -0.114425D-02  0.000000D+00
     46  0.000000D+00  0.000000D+00  0.000000D+00  0.000000D+00  0.825385D-04
     47  0.000000D+00  0.819694D-04  0.701735D-04 -0.161827D-03  0.000000D+00
     48  0.000000D+00  0.000000D+00  0.000000D+00  0.000000D+00  0.000000D+00
     49  0.000000D+00  0.701408D-05  0.000000D+00 -0.186031D-04  0.000000D+00
     50  0.000000D+00  0.000000D+00  0.220756D-05  0.000000D+00  0.000000D+00
     51  0.000000D+00  0.186031D-04  0.000000D+00 -0.472363D-04  0.000000D+00
     52  0.000000D+00  0.000000D+00  0.000000D+00  0.000000D+00  0.220756D-05
     53  0.000000D+00  0.231864D-04 -0.109580D-04 -0.520008D-04  0.000000D+00
     54  0.000000D+00  0.000000D+00  0.000000D+00  0.000000D+00  0.000000D+00
     55  0.000000D+00  0.159334D-02  0.242051D-02 -0.283361D-02  0.000000D+00
     56  0.159334D-02  0.563300D-01  0.543522D-01 -0.636284D-01  0.000000D+00
     57 -0.242051D-02 -0.543522D-01 -0.343642D-01  0.675905D-01  0.000000D+00
     58  0.283361D-02  0.636284D-01  0.675905D-01 -0.557536D-01  0.000000D+00
     59  0.000000D+00  0.000000D+00  0.000000D+00  0.000000D+00  0.233725D-01
     60  0.802831D-04  0.592140D-02  0.754660D-02 -0.636917D-02  0.000000D+00
               21            22            23            24            25 
     21  0.100000D+01
     22  0.248362D+00  0.100000D+01
     23  0.000000D+00  0.000000D+00  0.100000D+01
     24  0.000000D+00  0.000000D+00  0.000000D+00  0.100000D+01
     25  0.000000D+00  0.000000D+00  0.000000D+00  0.000000D+00  0.100000D+01
     26  0.109519D-04  0.173132D-02 -0.237371D-02 -0.203723D-02  0.000000D+00
     27  0.855323D-04  0.616122D-02 -0.102420D-01 -0.321137D-03  0.000000D+00
     28  0.611774D-01  0.486379D+00  0.355456D+00  0.299245D+00  0.000000D+00
     29  0.000000D+00  0.104784D-02 -0.166396D-02  0.194394D-02  0.000000D+00
     30  0.104784D-02  0.442500D-01 -0.439031D-01  0.512901D-01  0.000000D+00
     31  0.166396D-02  0.439031D-01 -0.296908D-01  0.556056D-01  0.000000D+00
     32 -0.194394D-02 -0.512901D-01  0.556056D-01 -0.470554D-01  0.000000D+00
     33  0.000000D+00  0.000000D+00  0.000000D+00  0.000000D+00  0.179063D-01
     34  0.000000D+00  0.118780D-03 -0.897748D-04  0.335412D-03  0.000000D+00
     35  0.118780D-03  0.129682D-01 -0.572733D-02  0.213982D-01  0.000000D+00
     36  0.897748D-04  0.572733D-02  0.206385D-02  0.100423D-01  0.000000D+00
     37 -0.335412D-03 -0.213982D-01  0.100423D-01 -0.327678D-01  0.000000D+00
     38  0.000000D+00  0.000000D+00  0.000000D+00  0.000000D+00  0.475173D-02
     39  0.747903D-03  0.248392D-01  0.379959D-02  0.369122D-01  0.000000D+00
     40  0.648275D-04  0.518029D-02 -0.684169D-02  0.540356D-02  0.000000D+00
     41  0.326131D-05  0.830279D-03 -0.428411D-03  0.150942D-02  0.000000D+00
     42  0.000000D+00  0.247945D-05 -0.108466D-05 -0.891836D-05  0.000000D+00
     43  0.247945D-05  0.157362D-02 -0.377339D-03 -0.310257D-02  0.000000D+00
     44  0.108466D-05  0.377339D-03  0.431168D-03 -0.765022D-03  0.000000D+00
     45  0.891836D-05  0.310257D-02 -0.765022D-03 -0.576598D-02  0.000000D+00
     46  0.000000D+00  0.000000D+00  0.000000D+00  0.000000D+00  0.524211D-03
     47  0.559277D-05  0.115063D-02  0.324242D-03 -0.210716D-02  0.000000D+00
     48  0.000000D+00  0.000000D+00  0.000000D+00  0.000000D+00  0.000000D+00
     49  0.000000D+00  0.247495D-04 -0.165607D-04 -0.597353D-04  0.000000D+00
     50  0.000000D+00  0.165607D-04 -0.330678D-05 -0.401293D-04  0.000000D+00
     51  0.000000D+00  0.597353D-04 -0.401293D-04 -0.136930D-03  0.000000D+00
     52  0.000000D+00  0.000000D+00  0.000000D+00  0.000000D+00  0.781844D-05
     53  0.000000D+00  0.242135D-04 -0.255117D-04 -0.491560D-04  0.000000D+00
     54  0.000000D+00  0.174863D-05  0.000000D+00 -0.442394D-05  0.000000D+00
     55  0.000000D+00  0.373151D-01  0.115028D-01 -0.607932D-01  0.000000D+00
     56  0.373151D-01  0.363558D+00  0.719676D-01 -0.380356D+00  0.000000D+00
     57 -0.115028D-01 -0.719676D-01  0.193522D+00  0.986482D-01  0.000000D+00
     58  0.607932D-01  0.380356D+00  0.986482D-01 -0.309177D+00  0.000000D+00
     59  0.000000D+00  0.000000D+00  0.000000D+00  0.000000D+00  0.212188D+00
     60  0.526789D-02  0.952947D-01  0.739469D-01 -0.986247D-01  0.000000D+00
               26            27            28            29            30 
     26  0.100000D+01
     27  0.510439D-01  0.100000D+01
     28  0.104469D-03  0.710598D-03  0.100000D+01
     29  0.000000D+00  0.113217D-02  0.845031D-03  0.100000D+01
     30  0.171760D-03  0.327569D-01  0.269366D-01  0.248362D+00  0.100000D+01
     31 -0.987044D-04 -0.310297D-01  0.357994D-01  0.000000D+00  0.000000D+00
     32 -0.341296D-03 -0.362401D-01 -0.177318D-01  0.000000D+00  0.000000D+00
     33  0.000000D+00  0.000000D+00  0.000000D+00  0.000000D+00  0.000000D+00
     34  0.000000D+00  0.575235D-05  0.861850D-03  0.223823D-05  0.428323D-01
     35  0.178235D-05  0.117043D-02  0.272922D-01  0.428323D-01  0.393136D+00
     36 -0.167467D-05 -0.140841D-02  0.236672D-01 -0.461398D-01 -0.264909D+00
     37 -0.425198D-05 -0.164608D-02 -0.327783D-01 -0.540034D-01 -0.310057D+00
     38  0.000000D+00  0.000000D+00  0.000000D+00  0.000000D+00  0.000000D+00
     39  0.134995D-05  0.238111D-03  0.873781D-01  0.558225D-02  0.993521D-01
     40  0.246372D-03  0.621407D-01  0.243970D-02  0.607807D-01  0.484783D+00
     41  0.000000D+00  0.252906D-03  0.256956D-02  0.578671D-02  0.101962D+00
     42  0.845031D-03  0.000000D+00  0.000000D+00  0.000000D+00  0.000000D+00
     43  0.269366D-01  0.146589D-03  0.171760D-03  0.000000D+00  0.000000D+00
     44 -0.357994D-01 -0.191926D-03  0.987044D-04  0.000000D+00  0.000000D+00
     45  0.177318D-01  0.238126D-03  0.341296D-03  0.000000D+00  0.165043D-05
     46  0.000000D+00  0.000000D+00  0.000000D+00  0.000000D+00  0.000000D+00
     47  0.243970D-02  0.144631D-04  0.246372D-03  0.000000D+00  0.000000D+00
     48  0.861850D-03  0.000000D+00  0.000000D+00  0.000000D+00  0.000000D+00
     49  0.272922D-01  0.349798D-04  0.178235D-05  0.000000D+00  0.000000D+00
     50 -0.236672D-01 -0.319712D-04  0.167467D-05  0.000000D+00  0.000000D+00
     51  0.327783D-01  0.717935D-04  0.425198D-05  0.000000D+00  0.000000D+00
     52  0.000000D+00  0.000000D+00  0.000000D+00  0.000000D+00  0.000000D+00
     53  0.873781D-01  0.290650D-03  0.134995D-05  0.000000D+00  0.000000D+00
     54  0.256956D-02  0.156602D-05  0.000000D+00  0.000000D+00  0.000000D+00
     55  0.840988D-04  0.114654D-04  0.531595D-02  0.000000D+00  0.211760D-05
     56  0.609625D-02  0.178039D-02  0.959187D-01  0.211760D-05  0.144572D-02
     57 -0.953924D-02 -0.303628D-02  0.331767D-01 -0.387622D-05 -0.144828D-02
     58 -0.345721D-02  0.104511D-02  0.119449D+00  0.668473D-05  0.249764D-02
     59  0.000000D+00  0.000000D+00  0.000000D+00  0.000000D+00  0.000000D+00
     60  0.710598D-03  0.107388D-03  0.510439D-01  0.000000D+00  0.146589D-03
               31            32            33            34            35 
     31  0.100000D+01
     32  0.000000D+00  0.100000D+01
     33  0.000000D+00  0.000000D+00  0.100000D+01
     34  0.461398D-01  0.540034D-01  0.000000D+00  0.100000D+01
     35  0.264909D+00  0.310057D+00  0.000000D+00  0.248362D+00  0.100000D+01
     36 -0.240345D-02 -0.278418D+00  0.000000D+00  0.000000D+00  0.000000D+00
     37 -0.278418D+00 -0.903959D-01  0.000000D+00  0.000000D+00  0.000000D+00
     38  0.000000D+00  0.000000D+00  0.235473D+00  0.000000D+00  0.000000D+00
     39  0.116775D+00  0.519880D-01  0.000000D+00  0.614106D-01  0.487313D+00
     40 -0.454310D+00  0.927388D-01  0.000000D+00  0.608695D-02  0.105754D+00
     41  0.325135D-01  0.126631D+00  0.000000D+00  0.613765D-01  0.487176D+00
     42  0.000000D+00  0.000000D+00  0.000000D+00  0.000000D+00  0.000000D+00
     43  0.000000D+00 -0.165043D-05  0.000000D+00  0.000000D+00  0.000000D+00
     44  0.000000D+00  0.000000D+00  0.000000D+00  0.000000D+00  0.000000D+00
     45  0.000000D+00 -0.455111D-05  0.000000D+00  0.000000D+00  0.000000D+00
     46  0.000000D+00  0.000000D+00  0.000000D+00  0.000000D+00  0.000000D+00
     47  0.000000D+00  0.000000D+00  0.000000D+00  0.000000D+00  0.000000D+00
     48  0.000000D+00  0.000000D+00  0.000000D+00  0.000000D+00  0.000000D+00
     49  0.000000D+00  0.000000D+00  0.000000D+00  0.000000D+00  0.000000D+00
     50  0.000000D+00  0.000000D+00  0.000000D+00  0.000000D+00  0.000000D+00
     51  0.000000D+00  0.000000D+00  0.000000D+00  0.000000D+00  0.000000D+00
     52  0.000000D+00  0.000000D+00  0.000000D+00  0.000000D+00  0.000000D+00
     53  0.000000D+00  0.000000D+00  0.000000D+00  0.000000D+00  0.000000D+00
     54  0.000000D+00  0.000000D+00  0.000000D+00  0.000000D+00  0.000000D+00
     55  0.387622D-05 -0.668473D-05  0.000000D+00  0.000000D+00  0.000000D+00
     56  0.144828D-02 -0.249764D-02  0.000000D+00  0.000000D+00  0.175681D-03
     57 -0.101000D-02  0.257037D-02  0.000000D+00  0.000000D+00 -0.938805D-04
     58  0.257037D-02 -0.395228D-02  0.000000D+00  0.000000D+00  0.386650D-03
     59  0.000000D+00  0.000000D+00  0.480457D-03  0.000000D+00  0.000000D+00
     60  0.191926D-03 -0.238126D-03  0.000000D+00  0.000000D+00  0.349798D-04
               36            37            38            39            40 
     36  0.100000D+01
     37  0.000000D+00  0.100000D+01
     38  0.000000D+00  0.000000D+00  0.100000D+01
     39  0.460836D+00 -0.636438D-01  0.000000D+00  0.100000D+01
     40 -0.124821D+00 -0.512967D-01  0.000000D+00  0.145542D-01  0.100000D+01
     41 -0.145751D+00  0.441702D+00  0.000000D+00  0.149278D+00  0.547832D-01
     42  0.000000D+00  0.000000D+00  0.000000D+00  0.000000D+00  0.000000D+00
     43  0.000000D+00  0.000000D+00  0.000000D+00  0.000000D+00  0.000000D+00
     44  0.000000D+00  0.000000D+00  0.000000D+00  0.000000D+00  0.000000D+00
     45  0.000000D+00  0.000000D+00  0.000000D+00  0.000000D+00  0.000000D+00
     46  0.000000D+00  0.000000D+00  0.000000D+00  0.000000D+00  0.000000D+00
     47  0.000000D+00  0.000000D+00  0.000000D+00  0.000000D+00  0.000000D+00
[...]
     7  H    0.127046  -0.001291
     8  H    0.123201  -0.001508
     9  C   -0.040164  -0.056126
    10  C   -0.076792   0.327896
    11  H    0.123966  -0.014409
    12  H    0.124621   0.002075
    13  H    0.141703  -0.014803
    14  C   -0.040164  -0.056126
    15  H    0.124621   0.002075
    16  C   -0.076792   0.327896
    17  H    0.123966  -0.014409
    18  H    0.141703  -0.014803
    19  C   -0.038510   0.019734
    20  H    0.127046  -0.001291
 Sum of Mulliken charges =   1.00000   1.00000
 Mulliken charges and spin densities with hydrogens summed into heavy atoms:
               1          2
     1  C    0.055742   0.213022
     2  C    0.082389   0.023902
     3  C    0.088536   0.018444
     4  C    0.055742   0.213022
     5  C    0.082389   0.023902
     9  C    0.084457  -0.054051
    10  C    0.188876   0.298683
    14  C    0.084457  -0.054051
    16  C    0.188876   0.298683
    19  C    0.088536   0.018444
 N-N= 4.458993310947D+02 E-N=-1.761452626493D+03  KE= 3.748927231104D+02
 Symmetry AG   KE= 1.816316541936D+02
 Symmetry BG   KE= 6.418600276601D+00
 Symmetry AU   KE= 4.703229421556D+00
 Symmetry BU   KE= 1.821392392186D+02
 Symmetry AG   SP= 3.945154186976D-14
 Symmetry BG   SP= 1.000000000000D+00
 Symmetry AU   SP= 3.667211089708D-15
 Symmetry BU   SP= 1.232928253908D-14
 Orbital energies and kinetic energies (alpha):
                                 1                 2
   1         (BU)--O         -10.253566         15.585117
   2         (AG)--O         -10.253517         15.586644
   3         (BU)--O         -10.219293         15.578496
   4         (AG)--O         -10.219255         15.577988
   5         (BU)--O         -10.217924         15.598267
   6         (AG)--O         -10.217828         15.601203
   7         (BU)--O         -10.217734         15.588078
   8         (AG)--O         -10.217723         15.590270
   9         (BU)--O         -10.215385         15.593703
  10         (AG)--O         -10.215384         15.593720
  11         (AG)--O          -1.020765          1.393976
  12         (BU)--O          -0.961926          1.471765
  13         (AG)--O          -0.921664          1.480542
  14         (BU)--O          -0.899045          1.524979
  15         (BU)--O          -0.876871          1.590697
  16         (AG)--O          -0.787251          1.374453
  17         (AG)--O          -0.759616          1.386276
  18         (BU)--O          -0.722747          1.364567
  19         (AG)--O          -0.703794          1.182005
  20         (AG)--O          -0.650313          1.055122
  21         (BU)--O          -0.635120          1.097420
  22         (BU)--O          -0.603744          1.300229
  23         (BU)--O          -0.596031          1.140368
  24         (AG)--O          -0.587920          1.130017
  25         (BU)--O          -0.568381          1.157499
  26         (BU)--O          -0.552430          1.312608
  27         (AG)--O          -0.537363          1.205316
  28         (AU)--O          -0.533634          1.065514
  29         (BU)--O          -0.501196          1.182420
  30         (AG)--O          -0.492966          1.372847
  31         (AG)--O          -0.482686          1.302807
  32         (BG)--O          -0.473667          1.184104
  33         (AU)--O          -0.417975          1.285200
  34         (BG)--O          -0.394198          1.322577
  35         (BG)--O          -0.369759          1.406444
  36         (AU)--V          -0.177496          1.702899
  37         (AU)--V          -0.111271          1.818284
  38         (BG)--V          -0.094444          1.834096
  39         (AU)--V          -0.029595          2.009314
  40         (BG)--V           0.060206          2.209493
  41         (AG)--V           0.139511          2.355747
  42         (BU)--V           0.149074          2.170568
  43         (BU)--V           0.179250          2.607367
  44         (AG)--V           0.196609          2.218660
  45         (AG)--V           0.215435          2.941447
  46         (BU)--V           0.221027          2.755474
  47         (AG)--V           0.239899          3.095259
  48         (BU)--V           0.241559          2.262776
  49         (BU)--V           0.262127          2.765029
  50         (AG)--V           0.285275          2.796855
  51         (AG)--V           0.320505          2.880051
  52         (BU)--V           0.343759          2.847373
  53         (AG)--V           0.379612          2.642509
  54         (BU)--V           0.398968          3.209446
  55         (BU)--V           0.425567          2.913181
  56         (AG)--V           0.438147          2.927629
  57         (AG)--V           0.477676          3.136312
  58         (BU)--V           0.505987          3.401065
  59         (AG)--V           0.568200          3.425078
  60         (BU)--V           0.582030          3.463597
 Orbital energies and kinetic energies (beta):
                                 1                 2
   1         (BU)--O         -10.250590         15.588146
   2         (AG)--O         -10.250545         15.589625
   3         (BU)--O         -10.218988         15.578685
   4         (AG)--O         -10.218954         15.577995
   5         (BU)--O         -10.218580         15.589819
   6         (AG)--O         -10.218579         15.589788
   7         (BU)--O         -10.217697         15.598994
   8         (AG)--O         -10.217591         15.604307
   9         (AG)--O         -10.210918         15.595938
  10         (BU)--O         -10.210918         15.595937
  11         (AG)--O          -1.014712          1.390742
  12         (BU)--O          -0.954491          1.464577
  13         (AG)--O          -0.913794          1.473510
  14         (BU)--O          -0.897400          1.525964
  15         (BU)--O          -0.864672          1.580174
  16         (AG)--O          -0.781937          1.354062
  17         (AG)--O          -0.755563          1.389330
  18         (BU)--O          -0.718835          1.348958
  19         (AG)--O          -0.700667          1.167086
  20         (AG)--O          -0.648113          1.058010
  21         (BU)--O          -0.633052          1.098241
  22         (BU)--O          -0.601003          1.297839
  23         (BU)--O          -0.593244          1.137028
  24         (AG)--O          -0.585022          1.131515
  25         (BU)--O          -0.567659          1.153547
  26         (BU)--O          -0.549490          1.317992
  27         (AG)--O          -0.535407          1.203276
  28         (AU)--O          -0.517363          1.063860
  29         (BU)--O          -0.499578          1.177127
  30         (AG)--O          -0.491468          1.371653
  31         (AG)--O          -0.481111          1.301631
  32         (BG)--O          -0.450852          1.182907
  33         (BG)--O          -0.391018          1.322569
  34         (AU)--O          -0.388817          1.288654
  35         (BG)--V          -0.300529          1.409922
  36         (AU)--V          -0.147048          1.701467
  37         (AU)--V          -0.103161          1.818362
  38         (BG)--V          -0.073720          1.830362
  39         (AU)--V          -0.008235          2.008867
  40         (BG)--V           0.076388          2.210954
  41         (AG)--V           0.141941          2.333360
  42         (BU)--V           0.150964          2.144767
  43         (BU)--V           0.181106          2.614876
  44         (AG)--V           0.198119          2.203619
  45         (AG)--V           0.221057          2.964156
  46         (BU)--V           0.226382          2.781201
  47         (BU)--V           0.242933          2.252941
  48         (AG)--V           0.246583          3.134414
  49         (BU)--V           0.269280          2.763175
  50         (AG)--V           0.290462          2.778705
  51         (AG)--V           0.324234          2.887523
  52         (BU)--V           0.347230          2.852864
  53         (AG)--V           0.381088          2.643933
  54         (BU)--V           0.401112          3.209009
  55         (BU)--V           0.429896          2.925396
  56         (AG)--V           0.440712          2.933941
  57         (AG)--V           0.481463          3.144025
  58         (BU)--V           0.511389          3.414307
  59         (AG)--V           0.571922          3.430587
  60         (BU)--V           0.585194          3.470525
 Total kinetic energy from orbitals= 3.748927231104D+02
                          Isotropic Fermi Contact Couplings
        Atom                 a.u.       MegaHertz       Gauss      10(-4) cm-1
     1  C(13)              0.02543      28.58292      10.19910       9.53424
     2  C(13)             -0.00086      -0.96557      -0.34454      -0.32208
     3  C(13)             -0.00167      -1.87670      -0.66965      -0.62600
     4  C(13)              0.02543      28.58292      10.19910       9.53424
     5  C(13)             -0.00086      -0.96557      -0.34454      -0.32208
     6  H(1)              -0.00060      -2.67092      -0.95305      -0.89092
     7  H(1)              -0.00052      -2.31387      -0.82564      -0.77182
     8  H(1)              -0.00060      -2.67092      -0.95305      -0.89092
     9  C(13)             -0.01557     -17.50623      -6.24666      -5.83945
    10  C(13)              0.03910      43.96100      15.68638      14.66381
    11  H(1)              -0.00509     -22.73200      -8.11134      -7.58258
    12  H(1)               0.00068       3.02033       1.07773       1.00747
    13  H(1)              -0.00523     -23.37366      -8.34030      -7.79661
    14  C(13)             -0.01557     -17.50623      -6.24666      -5.83945
    15  H(1)               0.00068       3.02033       1.07773       1.00747
    16  C(13)              0.03910      43.96100      15.68638      14.66381
    17  H(1)              -0.00509     -22.73200      -8.11134      -7.58258
    18  H(1)              -0.00523     -23.37366      -8.34030      -7.79661
    19  C(13)             -0.00167      -1.87670      -0.66965      -0.62600
    20  H(1)              -0.00052      -2.31387      -0.82564      -0.77182
 --------------------------------------------------------
       Center         ----  Spin Dipole Couplings  ----
                      3XX-RR        3YY-RR        3ZZ-RR
 --------------------------------------------------------
     1   Atom       -0.113170     -0.110003      0.223173
     2   Atom       -0.012074     -0.017651      0.029725
     3   Atom       -0.011228     -0.012954      0.024182
     4   Atom       -0.113170     -0.110003      0.223173
     5   Atom       -0.012074     -0.017651      0.029725
     6   Atom        0.005593     -0.000548     -0.005045
     7   Atom        0.007327     -0.003300     -0.004027
     8   Atom        0.005593     -0.000548     -0.005045
     9   Atom        0.014973      0.030337     -0.045311
    10   Atom       -0.168917     -0.164922      0.333840
    11   Atom        0.029776     -0.020792     -0.008984
    12   Atom        0.002060      0.002403     -0.004463
    13   Atom       -0.019502      0.027797     -0.008295
    14   Atom        0.014973      0.030337     -0.045311
    15   Atom        0.002060      0.002403     -0.004463
    16   Atom       -0.168917     -0.164922      0.333840
    17   Atom        0.029776     -0.020792     -0.008984
    18   Atom       -0.019502      0.027797     -0.008295
    19   Atom       -0.011228     -0.012954      0.024182
    20   Atom        0.007327     -0.003300     -0.004027
 --------------------------------------------------------
                        XY            XZ            YZ
 --------------------------------------------------------
     1   Atom        0.002741     -0.000000      0.000000
     2   Atom       -0.002518      0.000000      0.000000
     3   Atom        0.005031     -0.000000      0.000000
     4   Atom        0.002741     -0.000000     -0.000000
     5   Atom       -0.002518     -0.000000      0.000000
     6   Atom        0.002263     -0.000000      0.000000
     7   Atom       -0.000015     -0.000000      0.000000
     8   Atom        0.002263      0.000000     -0.000000
     9   Atom        0.012964      0.000000     -0.000000
    10   Atom       -0.001140      0.000000      0.000000
    11   Atom       -0.005533      0.000000     -0.000000
    12   Atom        0.003052      0.000000     -0.000000
    13   Atom       -0.016111      0.000000     -0.000000
    14   Atom        0.012964     -0.000000      0.000000
    15   Atom        0.003052      0.000000      0.000000
    16   Atom       -0.001140     -0.000000     -0.000000
    17   Atom       -0.005533     -0.000000      0.000000
    18   Atom       -0.016111      0.000000     -0.000000
    19   Atom        0.005031     -0.000000      0.000000
    20   Atom       -0.000015      0.000000      0.000000
 --------------------------------------------------------


 ---------------------------------------------------------------------------------
              Anisotropic Spin Dipole Couplings in Principal Axis System
 ---------------------------------------------------------------------------------

       Atom             a.u.   MegaHertz   Gauss  10(-4) cm-1        Axes

              Baa    -0.1148   -15.399    -5.495    -5.136  0.8661 -0.4999  0.0000
     1 C(13)  Bbb    -0.1084   -14.549    -5.191    -4.853  0.4999  0.8661  0.0000
              Bcc     0.2232    29.948    10.686     9.989  0.0000  0.0000  1.0000
 
              Baa    -0.0186    -2.499    -0.892    -0.833  0.3590  0.9333 -0.0000
     2 C(13)  Bbb    -0.0111    -1.490    -0.532    -0.497  0.9333 -0.3590 -0.0000
              Bcc     0.0297     3.989     1.423     1.331  0.0000  0.0000  1.0000
 
              Baa    -0.0172    -2.307    -0.823    -0.770 -0.6445  0.7646 -0.0000
     3 C(13)  Bbb    -0.0070    -0.938    -0.335    -0.313  0.7646  0.6445 -0.0000
              Bcc     0.0242     3.245     1.158     1.082  0.0000  0.0000  1.0000
 
              Baa    -0.1148   -15.399    -5.495    -5.136  0.8661 -0.4999 -0.0000
     4 C(13)  Bbb    -0.1084   -14.549    -5.191    -4.853  0.4999  0.8661 -0.0000
              Bcc     0.2232    29.948    10.686     9.989  0.0000  0.0000  1.0000
 
              Baa    -0.0186    -2.499    -0.892    -0.833  0.3590  0.9333 -0.0000
     5 C(13)  Bbb    -0.0111    -1.490    -0.532    -0.497  0.9333 -0.3590  0.0000
              Bcc     0.0297     3.989     1.423     1.331  0.0000  0.0000  1.0000
 
              Baa    -0.0050    -2.692    -0.961    -0.898  0.0000  0.0000  1.0000
     6 H(1)   Bbb    -0.0013    -0.689    -0.246    -0.230 -0.3123  0.9500  0.0000
              Bcc     0.0063     3.381     1.206     1.128  0.9500  0.3123  0.0000
 
              Baa    -0.0040    -2.149    -0.767    -0.717  0.0000  0.0000  1.0000
     7 H(1)   Bbb    -0.0033    -1.761    -0.628    -0.587  0.0014  1.0000  0.0000
              Bcc     0.0073     3.910     1.395     1.304  1.0000 -0.0014  0.0000
 
              Baa    -0.0050    -2.692    -0.961    -0.898  0.0000  0.0000  1.0000
     8 H(1)   Bbb    -0.0013    -0.689    -0.246    -0.230 -0.3123  0.9500 -0.0000
              Bcc     0.0063     3.381     1.206     1.128  0.9500  0.3123  0.0000
 
              Baa    -0.0453    -6.080    -2.170    -2.028  0.0000  0.0000  1.0000
     9 C(13)  Bbb     0.0076     1.018     0.363     0.340  0.8688 -0.4951  0.0000
              Bcc     0.0377     5.062     1.806     1.689  0.4951  0.8688 -0.0000
 
              Baa    -0.1692   -22.708    -8.103    -7.574  0.9665  0.2565 -0.0000
    10 C(13)  Bbb    -0.1646   -22.090    -7.882    -7.369 -0.2565  0.9665  0.0000
              Bcc     0.3338    44.798    15.985    14.943  0.0000  0.0000  1.0000
 
              Baa    -0.0214   -11.413    -4.072    -3.807  0.1075  0.9942 -0.0000
    11 H(1)   Bbb    -0.0090    -4.793    -1.710    -1.599  0.0000  0.0000  1.0000
              Bcc     0.0304    16.207     5.783     5.406  0.9942 -0.1075  0.0000
 
              Baa    -0.0045    -2.381    -0.850    -0.794  0.0000  0.0000  1.0000
    12 H(1)   Bbb    -0.0008    -0.440    -0.157    -0.147  0.7266 -0.6870  0.0000
              Bcc     0.0053     2.821     1.007     0.941  0.6870  0.7266 -0.0000
 
              Baa    -0.0245   -13.055    -4.658    -4.355  0.9556  0.2946  0.0000
    13 H(1)   Bbb    -0.0083    -4.426    -1.579    -1.476  0.0000  0.0000  1.0000
              Bcc     0.0328    17.481     6.238     5.831 -0.2946  0.9556 -0.0000
 
              Baa    -0.0453    -6.080    -2.170    -2.028  0.0000  0.0000  1.0000
    14 C(13)  Bbb     0.0076     1.018     0.363     0.340  0.8688 -0.4951  0.0000
              Bcc     0.0377     5.062     1.806     1.689  0.4951  0.8688 -0.0000
 
              Baa    -0.0045    -2.381    -0.850    -0.794  0.0000  0.0000  1.0000
    15 H(1)   Bbb    -0.0008    -0.440    -0.157    -0.147  0.7266 -0.6870  0.0000
              Bcc     0.0053     2.821     1.007     0.941  0.6870  0.7266 -0.0000
 
              Baa    -0.1692   -22.708    -8.103    -7.574  0.9665  0.2565 -0.0000
    16 C(13)  Bbb    -0.1646   -22.090    -7.882    -7.369 -0.2565  0.9665 -0.0000
              Bcc     0.3338    44.798    15.985    14.943  0.0000  0.0000  1.0000
 
              Baa    -0.0214   -11.413    -4.072    -3.807  0.1075  0.9942 -0.0000
    17 H(1)   Bbb    -0.0090    -4.793    -1.710    -1.599  0.0000  0.0000  1.0000
              Bcc     0.0304    16.207     5.783     5.406  0.9942 -0.1075  0.0000
 
              Baa    -0.0245   -13.055    -4.658    -4.355  0.9556  0.2946 -0.0000
    18 H(1)   Bbb    -0.0083    -4.426    -1.579    -1.476  0.0000  0.0000  1.0000
              Bcc     0.0328    17.481     6.238     5.831 -0.2946  0.9556 -0.0000
 
              Baa    -0.0172    -2.307    -0.823    -0.770 -0.6445  0.7646 -0.0000
    19 C(13)  Bbb    -0.0070    -0.938    -0.335    -0.313  0.7646  0.6445  0.0000
              Bcc     0.0242     3.245     1.158     1.082  0.0000  0.0000  1.0000
 
              Baa    -0.0040    -2.149    -0.767    -0.717  0.0000  0.0000  1.0000
    20 H(1)   Bbb    -0.0033    -1.761    -0.628    -0.587  0.0014  1.0000 -0.0000
              Bcc     0.0073     3.910     1.395     1.304  1.0000 -0.0014 -0.0000
 

 ---------------------------------------------------------------------------------

 No NMR shielding tensors so no spin-rotation constants.
 Leave Link  601 at Fri Nov 30 14:54:08 2018, MaxMem=   805306368 cpu:               0.8 elap:               0.1
 (Enter /ihome/crc/build/gaussian/a03/g16/l9999.exe)

 Test job not archived.
 1\1\GINC-SMP-N92\SP\UB3LYP\STO-3G\C10H10(1+,2)\SHU8\30-Nov-2018\0\\#p 
 ub3lyp/sto-3g pop=(full,NOAB) iop(3/33=1,3/36=-1)\\Notitle\\1,2\C\C,1,
 1.42115359\C,2,1.4021734,1,120.85704891\C,3,1.42244766,2,121.35373441,
 1,0.,0\C,4,1.42115359,3,117.78921668,2,0.,0\H,2,1.09761941,1,119.76455
 629,5,180.,0\H,3,1.09866227,2,119.62884041,1,180.,0\H,5,1.09761941,4,1
 19.76455629,3,180.,0\C,4,1.49760663,3,119.17161712,2,180.,0\C,9,1.3442
 6798,4,126.5934113,3,180.,0\H,10,1.09599008,9,122.64703396,4,0.,0\H,9,
 1.10040656,4,114.43382075,3,0.,0\H,10,1.09622825,9,121.22829314,4,180.
 ,0\C,1,1.49760663,2,123.0391662,3,180.,0\H,14,1.10040656,1,114.4338207
 5,2,180.,0\C,14,1.34426798,1,126.5934113,2,0.,0\H,16,1.09599008,14,122
 .64703396,1,0.,0\H,16,1.09622825,14,121.22829314,1,180.,0\C,5,1.402173
 4,4,120.85704891,3,0.,0\H,19,1.09866227,5,119.62884041,4,180.,0\\Versi
 on=ES64L-G16RevA.03\State=2-BG\HF=-382.0813924\S2=0.777802\S2-1=0.\S2A
 =0.750385\RMSD=7.968e-09\PG=C02H [SGH(C10H10)]\\@


 ALL THINGS ARE POSSIBLE EXCEPT SKIING THROUGH A REVOLVING DOOR.
 Job cpu time:       0 days  0 hours  0 minutes 12.7 seconds.
 Elapsed time:       0 days  0 hours  0 minutes  1.7 seconds.
 File lengths (MBytes):  RWF=      6 Int=      0 D2E=      0 Chk=      1 Scr=      1
 Normal termination of Gaussian 16 at Fri Nov 30 14:54:08 2018.
