 Entering Gaussian System, Link 0=g16_main
 Initial command:
 /software/Gaussian16/g16_sse4/g16/l1.exe "/tmp/Gau-4071.inp" -scrdir="/tmp/"
 Entering Link 1 = /software/Gaussian16/g16_sse4/g16/l1.exe PID=      4072.
  
 Copyright (c) 1988,1990,1992,1993,1995,1998,2003,2009,2016,
            Gaussian, Inc.  All Rights Reserved.
  
 This is part of the Gaussian(R) 16 program.  It is based on
 the Gaussian(R) 09 system (copyright 2009, Gaussian, Inc.),
 the Gaussian(R) 03 system (copyright 2003, Gaussian, Inc.),
 the Gaussian(R) 98 system (copyright 1998, Gaussian, Inc.),
 the Gaussian(R) 94 system (copyright 1995, Gaussian, Inc.),
 the Gaussian 92(TM) system (copyright 1992, Gaussian, Inc.),
 the Gaussian 90(TM) system (copyright 1990, Gaussian, Inc.),
 the Gaussian 88(TM) system (copyright 1988, Gaussian, Inc.),
 the Gaussian 86(TM) system (copyright 1986, Carnegie Mellon
 University), and the Gaussian 82(TM) system (copyright 1983,
 Carnegie Mellon University). Gaussian is a federally registered
 trademark of Gaussian, Inc.
  
 This software contains proprietary and confidential information,
 including trade secrets, belonging to Gaussian, Inc.
  
 This software is provided under written license and may be
 used, copied, transmitted, or stored only in accord with that
 written license.
  
 The following legend is applicable only to US Government
 contracts under FAR:
  
                    RESTRICTED RIGHTS LEGEND
  
 Use, reproduction and disclosure by the US Government is
 subject to restrictions as set forth in subparagraphs (a)
 and (c) of the Commercial Computer Software - Restricted
 Rights clause in FAR 52.227-19.
  
 Gaussian, Inc.
 340 Quinnipiac St., Bldg. 40, Wallingford CT 06492
  
  
 ---------------------------------------------------------------
 Warning -- This program may not be used in any manner that
 competes with the business of Gaussian, Inc. or will provide
 assistance to any competitor of Gaussian, Inc.  The licensee
 of this program is prohibited from giving any competitor of
 Gaussian, Inc. access to this program.  By using this program,
 the user acknowledges that Gaussian, Inc. is engaged in the
 business of creating and licensing software in the field of
 computational chemistry and represents and warrants to the
 licensee that it is not a competitor of Gaussian, Inc. and that
 it will not use this program in any manner prohibited above.
 ---------------------------------------------------------------
  

 Cite this work as:
 Gaussian 16, Revision A.03,
 M. J. Frisch, G. W. Trucks, H. B. Schlegel, G. E. Scuseria, 
 M. A. Robb, J. R. Cheeseman, G. Scalmani, V. Barone, 
 G. A. Petersson, H. Nakatsuji, X. Li, M. Caricato, A. V. Marenich, 
 J. Bloino, B. G. Janesko, R. Gomperts, B. Mennucci, H. P. Hratchian, 
 J. V. Ortiz, A. F. Izmaylov, J. L. Sonnenberg, D. Williams-Young, 
 F. Ding, F. Lipparini, F. Egidi, J. Goings, B. Peng, A. Petrone, 
 T. Henderson, D. Ranasinghe, V. G. Zakrzewski, J. Gao, N. Rega, 
 G. Zheng, W. Liang, M. Hada, M. Ehara, K. Toyota, R. Fukuda, 
 J. Hasegawa, M. Ishida, T. Nakajima, Y. Honda, O. Kitao, H. Nakai, 
 T. Vreven, K. Throssell, J. A. Montgomery, Jr., J. E. Peralta, 
 F. Ogliaro, M. J. Bearpark, J. J. Heyd, E. N. Brothers, K. N. Kudin, 
 V. N. Staroverov, T. A. Keith, R. Kobayashi, J. Normand, 
 K. Raghavachari, A. P. Rendell, J. C. Burant, S. S. Iyengar, 
 J. Tomasi, M. Cossi, J. M. Millam, M. Klene, C. Adamo, R. Cammi, 
 J. W. Ochterski, R. L. Martin, K. Morokuma, O. Farkas, 
 J. B. Foresman, and D. J. Fox, Gaussian, Inc., Wallingford CT, 2016.
 
 ******************************************
 Gaussian 16:  ES64L-G16RevA.03 25-Dec-2016
                 4-Apr-2018 
 ******************************************
 %chk=PhCCCC.chk
 %mem=400MB
 %nproc=4
 Will use up to    4 processors via shared memory.
 --------------------------------
 #p b3lyp/sto-3g opt=modredundant
 --------------------------------
 1/18=120,19=15,26=3,38=1/1,3;
 2/9=110,12=2,17=6,18=5,40=1/2;
 3/6=3,11=2,25=1,30=1,71=1,74=-5/1,2,3;
 4//1;
 5/5=2,38=5/2;
 6/7=2,8=2,9=2,10=2,28=1/1;
 7//1,2,3,16;
 1/18=20,19=15,26=3/3(2);
 2/9=110/2;
 99//99;
 2/9=110/2;
 3/6=3,11=2,25=1,30=1,71=1,74=-5/1,2,3;
 4/5=5,16=3,69=1/1;
 5/5=2,38=5/2;
 7//1,2,3,16;
 1/18=20,19=15,26=3/3(-5);
 2/9=110/2;
 6/7=2,8=2,9=2,10=2,19=2,28=1/1;
 99/9=1/99;
 Leave Link    1 at Wed Apr  4 10:30:46 2018, MaxMem=    52428800 cpu:               0.1 elap:               0.0
 (Enter /software/Gaussian16/g16_sse4/g16/l101.exe)
 -----------------
 DVB scan dihedral
 -----------------
 Symbolic Z-matrix:
 Charge =  0 Multiplicity = 1
 C                     0.26948  -1.41009   0. 
 C                    -1.06475  -0.9207    0. 
 C                    -1.32543   0.45703   0. 
 C                    -0.26948   1.41009   0. 
 C                     1.06475   0.9207    0. 
 H                    -1.90444  -1.6276    0. 
 H                    -2.36477   0.81317   0. 
 H                     1.90444   1.6276    0. 
 C                    -0.60373   2.86992   0. 
 C                     0.26948   3.89195   0. 
 H                     1.35517   3.74201   0. 
 H                    -1.6819    3.09      0. 
 H                    -0.07403   4.93297   0. 
 C                     0.60373  -2.86992   0. 
 H                     1.6819   -3.09      0. 
 C                    -0.26948  -3.89195   0. 
 H                    -1.35517  -3.74201   0. 
 H                     0.07403  -4.93297   0. 
 C                     1.32543  -0.45703   0. 
 H                     2.36477  -0.81317   0. 
 
 The following ModRedundant input section has been read:
 D       3       4       9      10 S  12 30.000                                
 
 ITRead=  0  0  0  0  0  0  0  0  0  0  0  0  0  0  0  0  0  0  0  0
 MicOpt= -1 -1 -1 -1 -1 -1 -1 -1 -1 -1 -1 -1 -1 -1 -1 -1 -1 -1 -1 -1
 NAtoms=     20 NQM=       20 NQMF=       0 NMMI=      0 NMMIF=      0
                NMic=       0 NMicF=      0.
                    Isotopes and Nuclear Properties:
 (Nuclear quadrupole moments (NQMom) in fm**2, nuclear magnetic moments (NMagM)
  in nuclear magnetons)

  Atom         1           2           3           4           5           6           7           8           9          10
 IAtWgt=          12          12          12          12          12           1           1           1          12          12
 AtmWgt=  12.0000000  12.0000000  12.0000000  12.0000000  12.0000000   1.0078250   1.0078250   1.0078250  12.0000000  12.0000000
 NucSpn=           0           0           0           0           0           1           1           1           0           0
 AtZEff=  -0.0000000  -0.0000000  -0.0000000  -0.0000000  -0.0000000  -0.0000000  -0.0000000  -0.0000000  -0.0000000  -0.0000000
 NQMom=    0.0000000   0.0000000   0.0000000   0.0000000   0.0000000   0.0000000   0.0000000   0.0000000   0.0000000   0.0000000
 NMagM=    0.0000000   0.0000000   0.0000000   0.0000000   0.0000000   2.7928460   2.7928460   2.7928460   0.0000000   0.0000000
 AtZNuc=   6.0000000   6.0000000   6.0000000   6.0000000   6.0000000   1.0000000   1.0000000   1.0000000   6.0000000   6.0000000

  Atom        11          12          13          14          15          16          17          18          19          20
 IAtWgt=           1           1           1          12           1          12           1           1          12           1
 AtmWgt=   1.0078250   1.0078250   1.0078250  12.0000000   1.0078250  12.0000000   1.0078250   1.0078250  12.0000000   1.0078250
 NucSpn=           1           1           1           0           1           0           1           1           0           1
 AtZEff=  -0.0000000  -0.0000000  -0.0000000  -0.0000000  -0.0000000  -0.0000000  -0.0000000  -0.0000000  -0.0000000  -0.0000000
 NQMom=    0.0000000   0.0000000   0.0000000   0.0000000   0.0000000   0.0000000   0.0000000   0.0000000   0.0000000   0.0000000
 NMagM=    2.7928460   2.7928460   2.7928460   0.0000000   2.7928460   0.0000000   2.7928460   2.7928460   0.0000000   2.7928460
 AtZNuc=   1.0000000   1.0000000   1.0000000   6.0000000   1.0000000   6.0000000   1.0000000   1.0000000   6.0000000   1.0000000
 Leave Link  101 at Wed Apr  4 10:30:46 2018, MaxMem=    52428800 cpu:               0.4 elap:               0.1
 (Enter /software/Gaussian16/g16_sse4/g16/l103.exe)

 GradGradGradGradGradGradGradGradGradGradGradGradGradGradGradGradGradGrad
 Berny optimization.
 Initialization pass.
                           ----------------------------
                           !    Initial Parameters    !
                           ! (Angstroms and Degrees)  !
 --------------------------                            --------------------------
 ! Name  Definition              Value          Derivative Info.                !
 --------------------------------------------------------------------------------
 ! R1    R(1,2)                  1.4212         estimate D2E/DX2                !
 ! R2    R(1,14)                 1.4976         estimate D2E/DX2                !
 ! R3    R(1,19)                 1.4224         estimate D2E/DX2                !
 ! R4    R(2,3)                  1.4022         estimate D2E/DX2                !
 ! R5    R(2,6)                  1.0976         estimate D2E/DX2                !
 ! R6    R(3,4)                  1.4224         estimate D2E/DX2                !
 ! R7    R(3,7)                  1.0987         estimate D2E/DX2                !
 ! R8    R(4,5)                  1.4212         estimate D2E/DX2                !
 ! R9    R(4,9)                  1.4976         estimate D2E/DX2                !
 ! R10   R(5,8)                  1.0976         estimate D2E/DX2                !
 ! R11   R(5,19)                 1.4022         estimate D2E/DX2                !
 ! R12   R(9,10)                 1.3443         estimate D2E/DX2                !
 ! R13   R(9,12)                 1.1004         estimate D2E/DX2                !
 ! R14   R(10,11)                1.096          estimate D2E/DX2                !
 ! R15   R(10,13)                1.0962         estimate D2E/DX2                !
 ! R16   R(14,15)                1.1004         estimate D2E/DX2                !
 ! R17   R(14,16)                1.3443         estimate D2E/DX2                !
 ! R18   R(16,17)                1.096          estimate D2E/DX2                !
 ! R19   R(16,18)                1.0962         estimate D2E/DX2                !
 ! R20   R(19,20)                1.0987         estimate D2E/DX2                !
 ! A1    A(2,1,14)             123.0393         estimate D2E/DX2                !
 ! A2    A(2,1,19)             117.789          estimate D2E/DX2                !
 ! A3    A(14,1,19)            119.1718         estimate D2E/DX2                !
 ! A4    A(1,2,3)              120.8571         estimate D2E/DX2                !
 ! A5    A(1,2,6)              119.7645         estimate D2E/DX2                !
 ! A6    A(3,2,6)              119.3784         estimate D2E/DX2                !
 ! A7    A(2,3,4)              121.3539         estimate D2E/DX2                !
 ! A8    A(2,3,7)              119.6288         estimate D2E/DX2                !
 ! A9    A(4,3,7)              119.0173         estimate D2E/DX2                !
 ! A10   A(3,4,5)              117.789          estimate D2E/DX2                !
 ! A11   A(3,4,9)              119.1718         estimate D2E/DX2                !
 ! A12   A(5,4,9)              123.0393         estimate D2E/DX2                !
 ! A13   A(4,5,8)              119.7645         estimate D2E/DX2                !
 ! A14   A(4,5,19)             120.8571         estimate D2E/DX2                !
 ! A15   A(8,5,19)             119.3784         estimate D2E/DX2                !
 ! A16   A(4,9,10)             126.5934         estimate D2E/DX2                !
 ! A17   A(4,9,12)             114.4334         estimate D2E/DX2                !
 ! A18   A(10,9,12)            118.9732         estimate D2E/DX2                !
 ! A19   A(9,10,11)            122.647          estimate D2E/DX2                !
 ! A20   A(9,10,13)            121.2283         estimate D2E/DX2                !
 ! A21   A(11,10,13)           116.1247         estimate D2E/DX2                !
 ! A22   A(1,14,15)            114.4334         estimate D2E/DX2                !
 ! A23   A(1,14,16)            126.5934         estimate D2E/DX2                !
 ! A24   A(15,14,16)           118.9732         estimate D2E/DX2                !
 ! A25   A(14,16,17)           122.647          estimate D2E/DX2                !
 ! A26   A(14,16,18)           121.2283         estimate D2E/DX2                !
 ! A27   A(17,16,18)           116.1247         estimate D2E/DX2                !
 ! A28   A(1,19,5)             121.3539         estimate D2E/DX2                !
 ! A29   A(1,19,20)            119.0173         estimate D2E/DX2                !
 ! A30   A(5,19,20)            119.6288         estimate D2E/DX2                !
 ! D1    D(14,1,2,3)           180.0            estimate D2E/DX2                !
 ! D2    D(14,1,2,6)             0.0            estimate D2E/DX2                !
 ! D3    D(19,1,2,3)             0.0            estimate D2E/DX2                !
 ! D4    D(19,1,2,6)           180.0            estimate D2E/DX2                !
 ! D5    D(2,1,14,15)          180.0            estimate D2E/DX2                !
 ! D6    D(2,1,14,16)            0.0            estimate D2E/DX2                !
 ! D7    D(19,1,14,15)           0.0            estimate D2E/DX2                !
 ! D8    D(19,1,14,16)         180.0            estimate D2E/DX2                !
 ! D9    D(2,1,19,5)             0.0            estimate D2E/DX2                !
 ! D10   D(2,1,19,20)          180.0            estimate D2E/DX2                !
 ! D11   D(14,1,19,5)          180.0            estimate D2E/DX2                !
 ! D12   D(14,1,19,20)           0.0            estimate D2E/DX2                !
 ! D13   D(1,2,3,4)              0.0            estimate D2E/DX2                !
 ! D14   D(1,2,3,7)            180.0            estimate D2E/DX2                !
 ! D15   D(6,2,3,4)            180.0            estimate D2E/DX2                !
 ! D16   D(6,2,3,7)              0.0            estimate D2E/DX2                !
 ! D17   D(2,3,4,5)              0.0            estimate D2E/DX2                !
 ! D18   D(2,3,4,9)            180.0            estimate D2E/DX2                !
 ! D19   D(7,3,4,5)            180.0            estimate D2E/DX2                !
 ! D20   D(7,3,4,9)              0.0            estimate D2E/DX2                !
 ! D21   D(3,4,5,8)            180.0            estimate D2E/DX2                !
 ! D22   D(3,4,5,19)             0.0            estimate D2E/DX2                !
 ! D23   D(9,4,5,8)              0.0            estimate D2E/DX2                !
 ! D24   D(9,4,5,19)           180.0            estimate D2E/DX2                !
 ! D25   D(3,4,9,10)           180.0            Scan                            !
 ! D26   D(3,4,9,12)             0.0            estimate D2E/DX2                !
 ! D27   D(5,4,9,10)             0.0            estimate D2E/DX2                !
 ! D28   D(5,4,9,12)           180.0            estimate D2E/DX2                !
 ! D29   D(4,5,19,1)             0.0            estimate D2E/DX2                !
 ! D30   D(4,5,19,20)          180.0            estimate D2E/DX2                !
 ! D31   D(8,5,19,1)           180.0            estimate D2E/DX2                !
 ! D32   D(8,5,19,20)            0.0            estimate D2E/DX2                !
 ! D33   D(4,9,10,11)            0.0            estimate D2E/DX2                !
 ! D34   D(4,9,10,13)          180.0            estimate D2E/DX2                !
 ! D35   D(12,9,10,11)         180.0            estimate D2E/DX2                !
 ! D36   D(12,9,10,13)           0.0            estimate D2E/DX2                !
 ! D37   D(1,14,16,17)           0.0            estimate D2E/DX2                !
 ! D38   D(1,14,16,18)         180.0            estimate D2E/DX2                !
 ! D39   D(15,14,16,17)        180.0            estimate D2E/DX2                !
 ! D40   D(15,14,16,18)          0.0            estimate D2E/DX2                !
 --------------------------------------------------------------------------------
 Trust Radius=3.00D-01 FncErr=1.00D-07 GrdErr=1.00D-06 EigMax=2.50D+02 EigMin=1.00D-04
 Number of optimizations in scan=  13
 Number of steps in this run=    100 maximum allowed number of steps=    120.
 GradGradGradGradGradGradGradGradGradGradGradGradGradGradGradGradGradGrad

 Leave Link  103 at Wed Apr  4 10:30:46 2018, MaxMem=    52428800 cpu:               0.1 elap:               0.0
 (Enter /software/Gaussian16/g16_sse4/g16/l202.exe)
                          Input orientation:                          
 ---------------------------------------------------------------------
 Center     Atomic      Atomic             Coordinates (Angstroms)
 Number     Number       Type             X           Y           Z
 ---------------------------------------------------------------------
      1          6           0        0.269480   -1.410090    0.000000
      2          6           0       -1.064750   -0.920700    0.000000
      3          6           0       -1.325430    0.457030    0.000000
      4          6           0       -0.269480    1.410090    0.000000
      5          6           0        1.064750    0.920700    0.000000
      6          1           0       -1.904440   -1.627600    0.000000
      7          1           0       -2.364770    0.813170    0.000000
      8          1           0        1.904440    1.627600    0.000000
      9          6           0       -0.603730    2.869920    0.000000
     10          6           0        0.269480    3.891950    0.000000
     11          1           0        1.355170    3.742010    0.000000
     12          1           0       -1.681900    3.090000    0.000000
     13          1           0       -0.074030    4.932970    0.000000
     14          6           0        0.603730   -2.869920    0.000000
     15          1           0        1.681900   -3.090000    0.000000
     16          6           0       -0.269480   -3.891950    0.000000
     17          1           0       -1.355170   -3.742010    0.000000
     18          1           0        0.074030   -4.932970    0.000000
     19          6           0        1.325430   -0.457030    0.000000
     20          1           0        2.364770   -0.813170    0.000000
 ---------------------------------------------------------------------
                    Distance matrix (angstroms):
                    1          2          3          4          5
     1  C    0.000000
     2  C    1.421152   0.000000
     3  C    2.455580   1.402175   0.000000
     4  C    2.871218   2.462729   1.422446   0.000000
     5  C    2.462729   2.815231   2.434738   1.421152   0.000000
     6  H    2.184774   1.097628   2.163547   3.449733   3.912790
     7  H    3.447051   2.167108   1.098664   2.178659   3.431205
     8  H    3.449733   3.912790   3.435447   2.184774   1.097628
     9  C    4.368178   3.818552   2.518509   1.497607   2.565791
    10  C    5.302040   4.994174   3.787138   2.539706   3.075838
    11  H    5.265250   5.253273   4.239895   2.842066   2.836218
    12  H    4.904966   4.057904   2.656991   2.194773   3.499993
    13  H    6.352355   5.936917   4.647584   3.528298   4.170747
    14  C    1.497607   2.565791   3.845810   4.368178   3.818552
    15  H    2.194773   3.499993   4.650318   4.904966   4.057904
    16  C    2.539706   3.075838   4.475339   5.302040   4.994174
    17  H    2.842066   2.836218   4.199145   5.265250   5.253273
    18  H    3.528298   4.170747   5.568715   6.352355   5.936917
    19  C    1.422446   2.434738   2.804026   2.455580   1.402175
    20  H    2.178659   3.431205   3.902689   3.447051   2.167108
                    6          7          8          9         10
     6  H    0.000000
     7  H    2.483800   0.000000
     8  H    5.010379   4.346200   0.000000
     9  C    4.681830   2.707671   2.798978   0.000000
    10  C    5.932231   4.051933   2.792915   1.344262   0.000000
    11  H    6.281542   4.734560   2.184589   2.144255   1.095995
    12  H    4.722846   2.377029   3.873041   1.100403   2.109741
    13  H    6.811129   4.713835   3.852248   2.129967   1.096231
    14  C    2.798978   4.730449   4.681830   5.865469   6.770126
    15  H    3.873041   5.622301   4.722846   6.383162   7.123381
    16  C    2.792915   5.150572   5.932231   6.770126   7.802537
    17  H    2.184589   4.665721   6.281542   6.654493   7.804924
    18  H    3.852248   6.242265   6.811129   7.832270   8.827084
    19  C    3.435447   3.902689   2.163547   3.845810   4.475339
    20  H    4.346200   5.001353   2.483800   4.730449   5.150572
                   11         12         13         14         15
    11  H    0.000000
    12  H    3.106270   0.000000
    13  H    1.860376   2.445769   0.000000
    14  C    6.654493   6.383162   7.832270   0.000000
    15  H    6.839818   7.036160   8.212876   1.100403   0.000000
    16  C    7.804924   7.123381   8.827084   1.344262   2.109741
    17  H    7.959680   6.839818   8.769071   2.144255   3.106270
    18  H    8.769071   8.212876   9.867051   2.129967   2.445769
    19  C    4.199145   4.650318   5.568715   2.518509   2.656991
    20  H    4.665721   5.622301   6.242265   2.707671   2.377029
                   16         17         18         19         20
    16  C    0.000000
    17  H    1.095995   0.000000
    18  H    1.096231   1.860376   0.000000
    19  C    3.787138   4.239895   4.647584   0.000000
    20  H    4.051933   4.734560   4.713835   1.098664   0.000000
 Stoichiometry    C10H10
 Framework group  C2H[SGH(C10H10)]
 Deg. of freedom    19
 Full point group                 C2H     NOp   4
 Largest Abelian subgroup         C2H     NOp   4
 Largest concise Abelian subgroup C2      NOp   2
                         Standard orientation:                         
 ---------------------------------------------------------------------
 Center     Atomic      Atomic             Coordinates (Angstroms)
 Number     Number       Type             X           Y           Z
 ---------------------------------------------------------------------
      1          6           0        0.269480   -1.410090    0.000000
      2          6           0       -1.064750   -0.920700    0.000000
      3          6           0       -1.325430    0.457030    0.000000
      4          6           0       -0.269480    1.410090    0.000000
      5          6           0        1.064750    0.920700    0.000000
      6          1           0       -1.904440   -1.627600    0.000000
      7          1           0       -2.364770    0.813170    0.000000
      8          1           0        1.904440    1.627600    0.000000
      9          6           0       -0.603730    2.869920    0.000000
     10          6           0        0.269480    3.891950    0.000000
     11          1           0        1.355170    3.742010    0.000000
     12          1           0       -1.681900    3.090000    0.000000
     13          1           0       -0.074030    4.932970    0.000000
     14          6           0        0.603730   -2.869920    0.000000
     15          1           0        1.681900   -3.090000    0.000000
     16          6           0       -0.269480   -3.891950    0.000000
     17          1           0       -1.355170   -3.742010    0.000000
     18          1           0        0.074030   -4.932970    0.000000
     19          6           0        1.325430   -0.457030    0.000000
     20          1           0        2.364770   -0.813170    0.000000
 ---------------------------------------------------------------------
 Rotational constants (GHZ):           4.6265078           0.6849394           0.5966128
 Leave Link  202 at Wed Apr  4 10:30:46 2018, MaxMem=    52428800 cpu:               0.0 elap:               0.0
 (Enter /software/Gaussian16/g16_sse4/g16/l301.exe)
 Standard basis: STO-3G (5D, 7F)
 Ernie: Thresh=  0.10000D-02 Tol=  0.10000D-05 Strict=F.
 There are    25 symmetry adapted cartesian basis functions of AG  symmetry.
 There are     5 symmetry adapted cartesian basis functions of BG  symmetry.
 There are     5 symmetry adapted cartesian basis functions of AU  symmetry.
 There are    25 symmetry adapted cartesian basis functions of BU  symmetry.
 There are    25 symmetry adapted basis functions of AG  symmetry.
 There are     5 symmetry adapted basis functions of BG  symmetry.
 There are     5 symmetry adapted basis functions of AU  symmetry.
 There are    25 symmetry adapted basis functions of BU  symmetry.
    60 basis functions,   180 primitive gaussians,    60 cartesian basis functions
    35 alpha electrons       35 beta electrons
       nuclear repulsion energy       445.8994808574 Hartrees.
 IExCor=  402 DFT=T Ex+Corr=B3LYP ExCW=0 ScaHFX=  0.200000
 ScaDFX=  0.800000  0.720000  1.000000  0.810000 ScalE2=  1.000000  1.000000
 IRadAn=      5 IRanWt=     -1 IRanGd=            0 ICorTp=0 IEmpDi=  4
 NAtoms=   20 NActive=   20 NUniq=   10 SFac= 4.00D+00 NAtFMM=   60 NAOKFM=F Big=F
 Integral buffers will be    131072 words long.
 Raffenetti 2 integral format.
 Two-electron integral symmetry is turned on.
 Leave Link  301 at Wed Apr  4 10:30:46 2018, MaxMem=    52428800 cpu:               0.2 elap:               0.1
 (Enter /software/Gaussian16/g16_sse4/g16/l302.exe)
 NPDir=0 NMtPBC=     1 NCelOv=     1 NCel=       1 NClECP=     1 NCelD=      1
         NCelK=      1 NCelE2=     1 NClLst=     1 CellRange=     0.0.
 One-electron integrals computed using PRISM.
 One-electron integral symmetry used in STVInt
 NBasis=    60 RedAO= T EigKep=  1.81D-01  NBF=    25     5     5    25
 NBsUse=    60 1.00D-06 EigRej= -1.00D+00 NBFU=    25     5     5    25
 Precomputing XC quadrature grid using
 IXCGrd= 4 IRadAn=           5 IRanWt=          -1 IRanGd=           0 AccXCQ= 0.00D+00.
 Generated NRdTot=       0 NPtTot=           0 NUsed=           0 NTot=          32
 NSgBfM=    59    59    59    59    59 MxSgAt=    20 MxSgA2=    20.
 Leave Link  302 at Wed Apr  4 10:30:46 2018, MaxMem=    52428800 cpu:               0.8 elap:               0.2
 (Enter /software/Gaussian16/g16_sse4/g16/l303.exe)
 DipDrv:  MaxL=1.
 Leave Link  303 at Wed Apr  4 10:30:46 2018, MaxMem=    52428800 cpu:               0.1 elap:               0.0
 (Enter /software/Gaussian16/g16_sse4/g16/l401.exe)
 ExpMin= 1.69D-01 ExpMax= 7.16D+01 ExpMxC= 7.16D+01 IAcc=3 IRadAn=         5 AccDes= 0.00D+00
 Harris functional with IExCor=  402 and IRadAn=       5 diagonalized for initial guess.
 HarFok:  IExCor=  402 AccDes= 0.00D+00 IRadAn=         5 IDoV= 1 UseB2=F ITyADJ=14
 ICtDFT=  3500011 ScaDFX=  1.000000  1.000000  1.000000  1.000000
 FoFCou: FMM=F IPFlag=           0 FMFlag=      100000 FMFlg1=           0
         NFxFlg=           0 DoJE=T BraDBF=F KetDBF=T FulRan=T
         wScrn=  0.000000 ICntrl=       500 IOpCl=  0 I1Cent=   200000004 NGrid=           0
         NMat0=    1 NMatS0=      1 NMatT0=    0 NMatD0=    1 NMtDS0=    0 NMtDT0=    0
 Petite list used in FoFCou.
 Harris En= -382.205676422665    
 JPrj=0 DoOrth=F DoCkMO=F.
 Initial guess orbital symmetries:
       Occupied  (BU) (AG) (BU) (AG) (BU) (AG) (BU) (AG) (BU) (AG)
                 (AG) (BU) (AG) (BU) (BU) (AG) (AG) (BU) (AG) (AG)
                 (BU) (BU) (AG) (BU) (BU) (BU) (AG) (AU) (BU) (AG)
                 (AG) (BG) (AU) (BG) (BG)
       Virtual   (AU) (AU) (BG) (AU) (BG) (AG) (BU) (BU) (AG) (AG)
                 (BU) (BU) (AG) (BU) (AG) (AG) (BU) (AG) (BU) (BU)
                 (AG) (AG) (BU) (AG) (BU)
 The electronic state of the initial guess is 1-AG.
 Leave Link  401 at Wed Apr  4 10:30:47 2018, MaxMem=    52428800 cpu:               1.3 elap:               0.3
 (Enter /software/Gaussian16/g16_sse4/g16/l502.exe)
 Keep R1 ints in memory in symmetry-blocked form, NReq=5217937.
 FoFCou: FMM=F IPFlag=           0 FMFlag=           0 FMFlg1=           0
         NFxFlg=           0 DoJE=F BraDBF=F KetDBF=F FulRan=T
         wScrn=  0.000000 ICntrl=       600 IOpCl=  0 I1Cent=           0 NGrid=           0
         NMat0=    1 NMatS0=   1830 NMatT0=    0 NMatD0=    1 NMtDS0=    0 NMtDT0=    0
 Petite list used in FoFCou.
 Closed shell SCF:
 Using DIIS extrapolation, IDIIS=  1040.
 NGot=    52428800 LenX=    51908911 LenY=    51904870
 Requested convergence on RMS density matrix=1.00D-08 within 128 cycles.
 Requested convergence on MAX density matrix=1.00D-06.
 Requested convergence on             energy=1.00D-06.
 No special actions if energy rises.
 Integral accuracy reduced to 1.0D-05 until final iterations.

 Cycle   1  Pass 0  IDiag  1:
 E= -382.254547416098    
 DIIS: error= 1.76D-02 at cycle   1 NSaved=   1.
 NSaved= 1 IEnMin= 1 EnMin= -382.254547416098     IErMin= 1 ErrMin= 1.76D-02
 ErrMax= 1.76D-02  0.00D+00 EMaxC= 1.00D-01 BMatC= 3.90D-02 BMatP= 3.90D-02
 IDIUse=3 WtCom= 8.24D-01 WtEn= 1.76D-01
 Coeff-Com:  0.100D+01
 Coeff-En:   0.100D+01
 Coeff:      0.100D+01
 Gap=     0.191 Goal=   None    Shift=    0.000
 GapD=    0.191 DampG=1.000 DampE=0.500 DampFc=0.5000 IDamp=-1.
 Damping current iteration by 5.00D-01
 RMSDP=7.80D-03 MaxDP=9.48D-02              OVMax= 3.59D-02

 Cycle   2  Pass 0  IDiag  1:
 E= -382.283409439121     Delta-E=       -0.028862023023 Rises=F Damp=T
 DIIS: error= 5.39D-03 at cycle   2 NSaved=   2.
 NSaved= 2 IEnMin= 2 EnMin= -382.283409439121     IErMin= 2 ErrMin= 5.39D-03
 ErrMax= 5.39D-03  0.00D+00 EMaxC= 1.00D-01 BMatC= 3.09D-03 BMatP= 3.90D-02
 IDIUse=3 WtCom= 9.46D-01 WtEn= 5.39D-02
 Coeff-Com: -0.209D+00 0.121D+01
 Coeff-En:   0.000D+00 0.100D+01
 Coeff:     -0.197D+00 0.120D+01
 Gap=     0.191 Goal=   None    Shift=    0.000
 RMSDP=2.10D-03 MaxDP=3.89D-02 DE=-2.89D-02 OVMax= 5.09D-02

 Cycle   3  Pass 0  IDiag  1:
 E= -382.303676299162     Delta-E=       -0.020266860041 Rises=F Damp=F
 DIIS: error= 8.90D-03 at cycle   3 NSaved=   3.
 NSaved= 3 IEnMin= 3 EnMin= -382.303676299162     IErMin= 2 ErrMin= 5.39D-03
 ErrMax= 8.90D-03  0.00D+00 EMaxC= 1.00D-01 BMatC= 3.58D-03 BMatP= 3.09D-03
 IDIUse=3 WtCom= 9.58D-02 WtEn= 9.04D-01
 Coeff-Com: -0.172D+00 0.737D+00 0.435D+00
 Coeff-En:   0.000D+00 0.000D+00 0.100D+01
 Coeff:     -0.165D-01 0.707D-01 0.946D+00
 Gap=     0.190 Goal=   None    Shift=    0.000
 RMSDP=3.27D-03 MaxDP=8.00D-02 DE=-2.03D-02 OVMax= 6.31D-02

 Cycle   4  Pass 0  IDiag  1:
 E= -382.294752375695     Delta-E=        0.008923923467 Rises=F Damp=F
 DIIS: error= 1.58D-02 at cycle   4 NSaved=   4.
 NSaved= 4 IEnMin= 3 EnMin= -382.303676299162     IErMin= 2 ErrMin= 5.39D-03
 ErrMax= 1.58D-02  0.00D+00 EMaxC= 1.00D-01 BMatC= 1.06D-02 BMatP= 3.09D-03
 IDIUse=2 WtCom= 0.00D+00 WtEn= 1.00D+00
 Coeff-En:   0.000D+00 0.000D+00 0.702D+00 0.298D+00
 Coeff:      0.000D+00 0.000D+00 0.702D+00 0.298D+00
 Gap=     0.190 Goal=   None    Shift=    0.000
 RMSDP=1.64D-03 MaxDP=4.05D-02 DE= 8.92D-03 OVMax= 3.09D-02

 Cycle   5  Pass 0  IDiag  1:
 E= -382.307691643622     Delta-E=       -0.012939267927 Rises=F Damp=F
 DIIS: error= 3.17D-03 at cycle   5 NSaved=   5.
 NSaved= 5 IEnMin= 5 EnMin= -382.307691643622     IErMin= 5 ErrMin= 3.17D-03
 ErrMax= 3.17D-03  0.00D+00 EMaxC= 1.00D-01 BMatC= 4.52D-04 BMatP= 3.09D-03
 IDIUse=3 WtCom= 9.68D-01 WtEn= 3.17D-02
 Coeff-Com:  0.891D-02-0.190D-01 0.331D+00 0.744D-01 0.605D+00
 Coeff-En:   0.000D+00 0.000D+00 0.132D+00 0.000D+00 0.868D+00
 Coeff:      0.863D-02-0.184D-01 0.324D+00 0.720D-01 0.613D+00
 Gap=     0.190 Goal=   None    Shift=    0.000
 RMSDP=4.37D-04 MaxDP=1.03D-02 DE=-1.29D-02 OVMax= 7.84D-03

 Cycle   6  Pass 0  IDiag  1:
 E= -382.308266127794     Delta-E=       -0.000574484172 Rises=F Damp=F
 DIIS: error= 9.62D-05 at cycle   6 NSaved=   6.
 NSaved= 6 IEnMin= 6 EnMin= -382.308266127794     IErMin= 6 ErrMin= 9.62D-05
 ErrMax= 9.62D-05  0.00D+00 EMaxC= 1.00D-01 BMatC= 3.68D-07 BMatP= 4.52D-04
 IDIUse=1 WtCom= 1.00D+00 WtEn= 0.00D+00
 Coeff-Com:  0.194D-02-0.449D-02 0.784D-01 0.146D-01 0.177D+00 0.732D+00
 Coeff:      0.194D-02-0.449D-02 0.784D-01 0.146D-01 0.177D+00 0.732D+00
 Gap=     0.190 Goal=   None    Shift=    0.000
 RMSDP=1.26D-05 MaxDP=2.34D-04 DE=-5.74D-04 OVMax= 1.67D-04

 Cycle   7  Pass 0  IDiag  1:
 E= -382.308266568245     Delta-E=       -0.000000440451 Rises=F Damp=F
 DIIS: error= 1.02D-05 at cycle   7 NSaved=   7.
 NSaved= 7 IEnMin= 7 EnMin= -382.308266568245     IErMin= 7 ErrMin= 1.02D-05
 ErrMax= 1.02D-05  0.00D+00 EMaxC= 1.00D-01 BMatC= 7.10D-09 BMatP= 3.68D-07
 IDIUse=1 WtCom= 1.00D+00 WtEn= 0.00D+00
 Coeff-Com: -0.111D-03 0.119D-03-0.179D-02-0.154D-02 0.101D-01 0.299D+00
 Coeff-Com:  0.694D+00
 Coeff:     -0.111D-03 0.119D-03-0.179D-02-0.154D-02 0.101D-01 0.299D+00
 Coeff:      0.694D+00
 Gap=     0.191 Goal=   None    Shift=    0.000
 RMSDP=2.27D-06 MaxDP=2.25D-05 DE=-4.40D-07 OVMax= 1.47D-05

 Initial convergence to 1.0D-05 achieved.  Increase integral accuracy.
 Cycle   8  Pass 1  IDiag  1:
 E= -382.308266558715     Delta-E=        0.000000009530 Rises=F Damp=F
 DIIS: error= 1.56D-06 at cycle   1 NSaved=   1.
 NSaved= 1 IEnMin= 1 EnMin= -382.308266558715     IErMin= 1 ErrMin= 1.56D-06
 ErrMax= 1.56D-06  0.00D+00 EMaxC= 1.00D-01 BMatC= 1.23D-10 BMatP= 1.23D-10
 IDIUse=1 WtCom= 1.00D+00 WtEn= 0.00D+00
 Coeff-Com:  0.100D+01
 Coeff:      0.100D+01
 Gap=     0.191 Goal=   None    Shift=    0.000
 RMSDP=2.27D-06 MaxDP=2.25D-05 DE= 9.53D-09 OVMax= 3.72D-07

 Cycle   9  Pass 1  IDiag  1:
 E= -382.308266558783     Delta-E=       -0.000000000068 Rises=F Damp=F
 DIIS: error= 1.40D-06 at cycle   2 NSaved=   2.
 NSaved= 2 IEnMin= 2 EnMin= -382.308266558783     IErMin= 2 ErrMin= 1.40D-06
 ErrMax= 1.40D-06  0.00D+00 EMaxC= 1.00D-01 BMatC= 1.16D-10 BMatP= 1.23D-10
 IDIUse=1 WtCom= 1.00D+00 WtEn= 0.00D+00
 Coeff-Com:  0.491D+00 0.509D+00
 Coeff:      0.491D+00 0.509D+00
 Gap=     0.191 Goal=   None    Shift=    0.000
 RMSDP=2.65D-07 MaxDP=4.16D-06 DE=-6.78D-11 OVMax= 3.31D-06

 Cycle  10  Pass 1  IDiag  1:
 E= -382.308266558912     Delta-E=       -0.000000000130 Rises=F Damp=F
 DIIS: error= 3.87D-07 at cycle   3 NSaved=   3.
 NSaved= 3 IEnMin= 3 EnMin= -382.308266558912     IErMin= 3 ErrMin= 3.87D-07
 ErrMax= 3.87D-07  0.00D+00 EMaxC= 1.00D-01 BMatC= 7.65D-12 BMatP= 1.16D-10
 IDIUse=1 WtCom= 1.00D+00 WtEn= 0.00D+00
 Coeff-Com:  0.473D-01 0.208D+00 0.745D+00
 Coeff:      0.473D-01 0.208D+00 0.745D+00
 Gap=     0.191 Goal=   None    Shift=    0.000
 RMSDP=8.18D-08 MaxDP=1.90D-06 DE=-1.30D-10 OVMax= 1.48D-06

 Cycle  11  Pass 1  IDiag  1:
 E= -382.308266558921     Delta-E=       -0.000000000009 Rises=F Damp=F
 DIIS: error= 2.51D-07 at cycle   4 NSaved=   4.
 NSaved= 4 IEnMin= 4 EnMin= -382.308266558921     IErMin= 4 ErrMin= 2.51D-07
 ErrMax= 2.51D-07  0.00D+00 EMaxC= 1.00D-01 BMatC= 2.51D-12 BMatP= 7.65D-12
 IDIUse=1 WtCom= 1.00D+00 WtEn= 0.00D+00
 Coeff-Com: -0.116D-01 0.906D-01 0.475D+00 0.446D+00
 Coeff:     -0.116D-01 0.906D-01 0.475D+00 0.446D+00
 Gap=     0.191 Goal=   None    Shift=    0.000
 RMSDP=3.55D-08 MaxDP=8.09D-07 DE=-8.75D-12 OVMax= 7.50D-07

 Cycle  12  Pass 1  IDiag  1:
 E= -382.308266558925     Delta-E=       -0.000000000004 Rises=F Damp=F
 DIIS: error= 3.58D-08 at cycle   5 NSaved=   5.
 NSaved= 5 IEnMin= 5 EnMin= -382.308266558925     IErMin= 5 ErrMin= 3.58D-08
 ErrMax= 3.58D-08  0.00D+00 EMaxC= 1.00D-01 BMatC= 6.10D-14 BMatP= 2.51D-12
 IDIUse=1 WtCom= 1.00D+00 WtEn= 0.00D+00
 Coeff-Com: -0.787D-02 0.338D-01 0.192D+00 0.222D+00 0.561D+00
 Coeff:     -0.787D-02 0.338D-01 0.192D+00 0.222D+00 0.561D+00
 Gap=     0.191 Goal=   None    Shift=    0.000
 RMSDP=5.82D-09 MaxDP=8.61D-08 DE=-3.52D-12 OVMax= 3.15D-08

 SCF Done:  E(RB3LYP) =  -382.308266559     A.U. after   12 cycles
            NFock= 12  Conv=0.58D-08     -V/T= 2.0172
 KE= 3.758473525118D+02 PE=-1.776415005137D+03 EE= 5.723599052088D+02
 Leave Link  502 at Wed Apr  4 10:30:48 2018, MaxMem=    52428800 cpu:               6.4 elap:               1.6
 (Enter /software/Gaussian16/g16_sse4/g16/l601.exe)
 Copying SCF densities to generalized density rwf, IOpCl= 0 IROHF=0.

 **********************************************************************

            Population analysis using the SCF density.

 **********************************************************************

 Orbital symmetries:
       Occupied  (BU) (AG) (BU) (AG) (BU) (AG) (BU) (AG) (BU) (AG)
                 (AG) (BU) (AG) (BU) (BU) (AG) (AG) (BU) (AG) (AG)
                 (BU) (BU) (BU) (AG) (BU) (BU) (AG) (AU) (BU) (AG)
                 (AG) (BG) (AU) (BG) (BG)
       Virtual   (AU) (AU) (BG) (AU) (BG) (AG) (BU) (BU) (AG) (AG)
                 (BU) (BU) (AG) (BU) (AG) (AG) (BU) (AG) (BU) (BU)
                 (AG) (AG) (BU) (AG) (BU)
 The electronic state is 1-AG.
 Alpha  occ. eigenvalues --  -10.02021 -10.02016 -10.00811 -10.00811 -10.00679
 Alpha  occ. eigenvalues --  -10.00678 -10.00605 -10.00591  -9.99233  -9.99233
 Alpha  occ. eigenvalues --   -0.80951  -0.75399  -0.71797  -0.69978  -0.66751
 Alpha  occ. eigenvalues --   -0.58869  -0.55892  -0.53167  -0.51017  -0.45745
 Alpha  occ. eigenvalues --   -0.43936  -0.41060  -0.39796  -0.39607  -0.37396
 Alpha  occ. eigenvalues --   -0.35115  -0.34729  -0.32451  -0.31125  -0.29278
 Alpha  occ. eigenvalues --   -0.28746  -0.26355  -0.21245  -0.19505  -0.15309
 Alpha virt. eigenvalues --    0.03742   0.09036   0.11061   0.18220   0.27253
 Alpha virt. eigenvalues --    0.33223   0.34073   0.37936   0.38145   0.41097
 Alpha virt. eigenvalues --    0.41195   0.42676   0.43964   0.45276   0.47826
 Alpha virt. eigenvalues --    0.52624   0.54582   0.57601   0.59944   0.62498
 Alpha virt. eigenvalues --    0.63971   0.68280   0.71725   0.77956   0.79458
          Condensed to atoms (all electrons):
               1          2          3          4          5          6
     1  C    4.778698   0.488326  -0.027150  -0.009776  -0.026980  -0.024562
     2  C    0.488326   4.810694   0.508956  -0.026980  -0.010504   0.387878
     3  C   -0.027150   0.508956   4.815060   0.488799  -0.030713  -0.025273
     4  C   -0.009776  -0.026980   0.488799   4.778698   0.488326   0.001331
     5  C   -0.026980  -0.010504  -0.030713   0.488326   4.810694   0.000032
     6  H   -0.024562   0.387878  -0.025273   0.001331   0.000032   0.586987
     7  H    0.001335  -0.025206   0.387925  -0.025305   0.001342  -0.003826
     8  H    0.001331   0.000032   0.001346  -0.024562   0.387878   0.000002
     9  C    0.000016   0.000818  -0.028765   0.411854  -0.024071  -0.000015
    10  C    0.000000  -0.000007   0.000680  -0.023794  -0.003969   0.000000
    11  H   -0.000000  -0.000000   0.000013  -0.003533  -0.000563   0.000000
    12  H   -0.000001   0.000022  -0.003962  -0.026070   0.001086  -0.000002
    13  H    0.000000   0.000000  -0.000016   0.001320   0.000018  -0.000000
    14  C    0.411854  -0.024071   0.000749   0.000016   0.000818  -0.003040
    15  H   -0.026070   0.001086  -0.000017  -0.000001   0.000022   0.000019
    16  C   -0.023794  -0.003969   0.000015   0.000000  -0.000007  -0.000607
    17  H   -0.003533  -0.000563  -0.000012  -0.000000  -0.000000   0.000563
    18  H    0.001320   0.000018   0.000000   0.000000   0.000000  -0.000017
    19  C    0.488799  -0.030713  -0.011068  -0.027150   0.508956   0.001346
    20  H   -0.025305   0.001342   0.000039   0.001335  -0.025206  -0.000034
               7          8          9         10         11         12
     1  C    0.001335   0.001331   0.000016   0.000000  -0.000000  -0.000001
     2  C   -0.025206   0.000032   0.000818  -0.000007  -0.000000   0.000022
     3  C    0.387925   0.001346  -0.028765   0.000680   0.000013  -0.003962
     4  C   -0.025305  -0.024562   0.411854  -0.023794  -0.003533  -0.026070
     5  C    0.001342   0.387878  -0.024071  -0.003969  -0.000563   0.001086
     6  H   -0.003826   0.000002  -0.000015   0.000000   0.000000  -0.000002
     7  H    0.588890  -0.000034  -0.003903   0.000029   0.000001   0.001033
     8  H   -0.000034   0.586987  -0.003040  -0.000607   0.000563   0.000019
     9  C   -0.003903  -0.003040   4.798259   0.586100  -0.023816   0.386256
    10  C    0.000029  -0.000607   0.586100   4.849813   0.385951  -0.027659
    11  H    0.000001   0.000563  -0.023816   0.385951   0.586747   0.002044
    12  H    0.001033   0.000019   0.386256  -0.027659   0.002044   0.595452
    13  H   -0.000002  -0.000017  -0.024045   0.388264  -0.023726  -0.005090
    14  C   -0.000014  -0.000015   0.000000  -0.000000   0.000000  -0.000000
    15  H    0.000000  -0.000002  -0.000000   0.000000  -0.000000   0.000000
    16  C    0.000000   0.000000  -0.000000  -0.000000   0.000000   0.000000
    17  H    0.000002   0.000000   0.000000   0.000000  -0.000000  -0.000000
    18  H   -0.000000  -0.000000  -0.000000   0.000000   0.000000  -0.000000
    19  C    0.000039  -0.025273   0.000749   0.000015  -0.000012  -0.000017
    20  H    0.000002  -0.003826  -0.000014   0.000000   0.000002   0.000000
              13         14         15         16         17         18
     1  C    0.000000   0.411854  -0.026070  -0.023794  -0.003533   0.001320
     2  C    0.000000  -0.024071   0.001086  -0.003969  -0.000563   0.000018
     3  C   -0.000016   0.000749  -0.000017   0.000015  -0.000012   0.000000
     4  C    0.001320   0.000016  -0.000001   0.000000  -0.000000   0.000000
     5  C    0.000018   0.000818   0.000022  -0.000007  -0.000000   0.000000
     6  H   -0.000000  -0.003040   0.000019  -0.000607   0.000563  -0.000017
     7  H   -0.000002  -0.000014   0.000000   0.000000   0.000002  -0.000000
     8  H   -0.000017  -0.000015  -0.000002   0.000000   0.000000  -0.000000
     9  C   -0.024045   0.000000  -0.000000  -0.000000   0.000000  -0.000000
    10  C    0.388264  -0.000000   0.000000  -0.000000   0.000000   0.000000
    11  H   -0.023726   0.000000  -0.000000   0.000000  -0.000000   0.000000
    12  H   -0.005090  -0.000000   0.000000   0.000000  -0.000000  -0.000000
    13  H    0.583948  -0.000000  -0.000000   0.000000   0.000000  -0.000000
    14  C   -0.000000   4.798259   0.386256   0.586100  -0.023816  -0.024045
    15  H   -0.000000   0.386256   0.595452  -0.027659   0.002044  -0.005090
    16  C    0.000000   0.586100  -0.027659   4.849813   0.385951   0.388264
    17  H    0.000000  -0.023816   0.002044   0.385951   0.586747  -0.023726
    18  H   -0.000000  -0.024045  -0.005090   0.388264  -0.023726   0.583948
    19  C    0.000000  -0.028765  -0.003962   0.000680   0.000013  -0.000016
    20  H   -0.000000  -0.003903   0.001033   0.000029   0.000001  -0.000002
              19         20
     1  C    0.488799  -0.025305
     2  C   -0.030713   0.001342
     3  C   -0.011068   0.000039
     4  C   -0.027150   0.001335
     5  C    0.508956  -0.025206
     6  H    0.001346  -0.000034
     7  H    0.000039   0.000002
     8  H   -0.025273  -0.003826
     9  C    0.000749  -0.000014
    10  C    0.000015   0.000000
    11  H   -0.000012   0.000002
    12  H   -0.000017   0.000000
    13  H    0.000000  -0.000000
    14  C   -0.028765  -0.003903
    15  H   -0.003962   0.001033
    16  C    0.000680   0.000029
    17  H    0.000013   0.000001
    18  H   -0.000016  -0.000002
    19  C    4.815060   0.387925
    20  H    0.387925   0.588890
 Mulliken charges:
               1
     1  C   -0.004506
     2  C   -0.077160
     3  C   -0.076608
     4  C   -0.004506
     5  C   -0.077160
     6  H    0.079218
     7  H    0.077690
     8  H    0.079218
     9  C   -0.076383
    10  C   -0.154816
    11  H    0.076331
    12  H    0.076888
    13  H    0.079346
    14  C   -0.076383
    15  H    0.076888
    16  C   -0.154816
    17  H    0.076331
    18  H    0.079346
    19  C   -0.076608
    20  H    0.077690
 Sum of Mulliken charges =  -0.00000
 Mulliken charges with hydrogens summed into heavy atoms:
               1
     1  C   -0.004506
     2  C    0.002058
     3  C    0.001083
     4  C   -0.004506
     5  C    0.002058
     9  C    0.000505
    10  C    0.000861
    14  C    0.000505
    16  C    0.000861
    19  C    0.001083
 Electronic spatial extent (au):  <R**2>=           1861.7252
 Charge=              0.0000 electrons
 Dipole moment (field-independent basis, Debye):
    X=              0.0000    Y=             -0.0000    Z=              0.0000  Tot=              0.0000
 Quadrupole moment (field-independent basis, Debye-Ang):
   XX=            -50.2216   YY=            -50.7167   ZZ=            -58.6254
   XY=             -0.0592   XZ=              0.0000   YZ=              0.0000
 Traceless Quadrupole moment (field-independent basis, Debye-Ang):
   XX=              2.9663   YY=              2.4712   ZZ=             -5.4375
   XY=             -0.0592   XZ=              0.0000   YZ=              0.0000
 Octapole moment (field-independent basis, Debye-Ang**2):
  XXX=              0.0000  YYY=              0.0000  ZZZ=              0.0000  XYY=              0.0000
  XXY=              0.0000  XXZ=              0.0000  XZZ=              0.0000  YZZ=              0.0000
  YYZ=              0.0000  XYZ=              0.0000
 Hexadecapole moment (field-independent basis, Debye-Ang**3):
 XXXX=           -330.0935 YYYY=          -1861.9920 ZZZZ=            -47.6115 XXXY=             13.8197
 XXXZ=              0.0000 YYYX=              8.0843 YYYZ=              0.0000 ZZZX=              0.0000
 ZZZY=              0.0000 XXYY=           -367.7209 XXZZ=            -72.2589 YYZZ=           -367.5322
 XXYZ=              0.0000 YYXZ=              0.0000 ZZXY=              5.8264
 N-N= 4.458994808574D+02 E-N=-1.776415005469D+03  KE= 3.758473525118D+02
 Symmetry AG   KE= 1.814054803432D+02
 Symmetry BG   KE= 7.823289943667D+00
 Symmetry AU   KE= 4.696945307553D+00
 Symmetry BU   KE= 1.819216369173D+02
 No NMR shielding tensors so no spin-rotation constants.
 Leave Link  601 at Wed Apr  4 10:30:48 2018, MaxMem=    52428800 cpu:               0.4 elap:               0.1
 (Enter /software/Gaussian16/g16_sse4/g16/l701.exe)
 ... and contract with generalized density number  0.
 Compute integral first derivatives.
 Leave Link  701 at Wed Apr  4 10:30:48 2018, MaxMem=    52428800 cpu:               0.4 elap:               0.1
 (Enter /software/Gaussian16/g16_sse4/g16/l702.exe)
 L702 exits ... SP integral derivatives will be done elsewhere.
 Leave Link  702 at Wed Apr  4 10:30:49 2018, MaxMem=    52428800 cpu:               0.1 elap:               0.0
 (Enter /software/Gaussian16/g16_sse4/g16/l703.exe)
 Integral derivatives from FoFJK, PRISM(SPDF).
 Compute integral first derivatives, UseDBF=F ICtDFT=           0.
 Calling FoFJK, ICntrl=      2127 FMM=F ISym2X=1 I1Cent= 0 IOpClX= 0 NMat=1 NMatS=1 NMatT=0.
 FoFJK:  IHMeth= 1 ICntrl=    2127 DoSepK=F KAlg= 0 I1Cent=           0 FoldK=F
 IRaf=         0 NMat=       1 IRICut=       1 DoRegI=T DoRafI=F ISym2E= 1 IDoP0=0 IntGTp=1.
 FoFCou: FMM=F IPFlag=           0 FMFlag=      100000 FMFlg1=         800
         NFxFlg=           0 DoJE=F BraDBF=F KetDBF=F FulRan=T
         wScrn=  0.000000 ICntrl=      2127 IOpCl=  0 I1Cent=           0 NGrid=           0
         NMat0=    1 NMatS0=      1 NMatT0=    0 NMatD0=    1 NMtDS0=    0 NMtDT0=    0
 Petite list used in FoFCou.
 Leave Link  703 at Wed Apr  4 10:30:49 2018, MaxMem=    52428800 cpu:               2.2 elap:               0.6
 (Enter /software/Gaussian16/g16_sse4/g16/l716.exe)
 Dipole        = 2.66453526D-15-1.02140518D-14 0.00000000D+00
 ***** Axes restored to original set *****
 -------------------------------------------------------------------
 Center     Atomic                   Forces (Hartrees/Bohr)
 Number     Number              X              Y              Z
 -------------------------------------------------------------------
      1        6           0.000042886   -0.000029442   -0.000000000
      2        6          -0.000075547   -0.000006272   -0.000000000
      3        6           0.000019401    0.000021675   -0.000000000
      4        6          -0.000042886    0.000029442   -0.000000000
      5        6           0.000075547    0.000006272   -0.000000000
      6        1           0.000022020    0.000015390   -0.000000000
      7        1           0.000006217   -0.000031016   -0.000000000
      8        1          -0.000022020   -0.000015390   -0.000000000
      9        6           0.000041807   -0.000065711   -0.000000000
     10        6           0.000001716    0.000024126   -0.000000000
     11        1           0.000006243    0.000014515   -0.000000000
     12        1          -0.000019914    0.000023308   -0.000000000
     13        1          -0.000007667   -0.000005091   -0.000000000
     14        6          -0.000041807    0.000065711   -0.000000000
     15        1           0.000019914   -0.000023308   -0.000000000
     16        6          -0.000001716   -0.000024126   -0.000000000
     17        1          -0.000006243   -0.000014515   -0.000000000
     18        1           0.000007667    0.000005091   -0.000000000
     19        6          -0.000019401   -0.000021675   -0.000000000
     20        1          -0.000006217    0.000031016   -0.000000000
 -------------------------------------------------------------------
 Cartesian Forces:  Max     0.000075547 RMS     0.000025130
 Leave Link  716 at Wed Apr  4 10:30:49 2018, MaxMem=    52428800 cpu:               0.1 elap:               0.0
 (Enter /software/Gaussian16/g16_sse4/g16/l103.exe)

 GradGradGradGradGradGradGradGradGradGradGradGradGradGradGradGradGradGrad
 Berny optimization.
 FormGI is forming the generalized inverse of G from B-inverse, IUseBI=4.
 Internal  Forces:  Max     0.000055829 RMS     0.000016676
 Search for a local minimum.
 Step number   1 out of a maximum of  100 on scan point     1 out of    13
 All quantities printed in internal units (Hartrees-Bohrs-Radians)
 RMS Force = .16770D-04 SwitMx=.10000D-02 MixMth= 2
 Mixed Optimization -- En-DIIS/RFO-DIIS
 Second derivative matrix not updated -- first step.
 ITU=  0
     Eigenvalues ---    0.00798   0.01253   0.01495   0.01682   0.01800
     Eigenvalues ---    0.01852   0.01866   0.01887   0.01927   0.01934
     Eigenvalues ---    0.01966   0.01975   0.02826   0.02826   0.02826
     Eigenvalues ---    0.02826   0.16000   0.16000   0.16000   0.16000
     Eigenvalues ---    0.16000   0.16000   0.16000   0.16000   0.16000
     Eigenvalues ---    0.16000   0.22000   0.22000   0.22000   0.22948
     Eigenvalues ---    0.24000   0.25000   0.25000   0.32630   0.32630
     Eigenvalues ---    0.33638   0.33638   0.33830   0.33830   0.33946
     Eigenvalues ---    0.33946   0.34102   0.34102   0.34129   0.34129
     Eigenvalues ---    0.39143   0.39744   0.42094   0.42287   0.43758
     Eigenvalues ---    0.45262   0.56260   0.562601000.000001000.00000
     Eigenvalues --- 1000.000001000.000001000.000001000.000001000.00000
     Eigenvalues --- 1000.000001000.000001000.000001000.000001000.00000
     Eigenvalues --- 1000.000001000.000001000.000001000.000001000.00000
     Eigenvalues --- 1000.000001000.000001000.000001000.000001000.00000
     Eigenvalues --- 1000.000001000.000001000.000001000.000001000.00000
     Eigenvalues --- 1000.000001000.000001000.000001000.000001000.00000
     Eigenvalues --- 1000.000001000.000001000.000001000.000001000.00000
 RFO step:  Lambda=-1.13250595D-07 EMin= 7.97602483D-03
 Linear search not attempted -- first point.
 Iteration  1 RMS(Cart)=  0.00025534 RMS(Int)=  0.00000003
 Iteration  2 RMS(Cart)=  0.00000004 RMS(Int)=  0.00000000
 Iteration  1 RMS(Cart)=  0.00000000 RMS(Int)=  0.00000000
 ITry= 1 IFail=0 DXMaxC= 1.24D-03 DCOld= 1.00D+10 DXMaxT= 3.00D-01 DXLimC= 3.00D+00 Rises=F
 ClnCor:  largest displacement from symmetrization is 1.34D-11 for atom    18.
 Variable       Old X    -DE/DX   Delta X   Delta X   Delta X     New X
                                 (Linear)    (Quad)   (Total)
    R1        2.68559   0.00003   0.00000   0.00006   0.00006   2.68565
    R2        2.83007  -0.00001   0.00000  -0.00004  -0.00004   2.83003
    R3        2.68803   0.00001   0.00000   0.00002   0.00002   2.68806
    R4        2.64973  -0.00000   0.00000  -0.00001  -0.00001   2.64972
    R5        2.07422  -0.00003   0.00000  -0.00008  -0.00008   2.07414
    R6        2.68803   0.00001   0.00000   0.00002   0.00002   2.68806
    R7        2.07617  -0.00002   0.00000  -0.00005  -0.00005   2.07613
    R8        2.68559   0.00003   0.00000   0.00006   0.00006   2.68565
    R9        2.83007  -0.00001   0.00000  -0.00004  -0.00004   2.83003
   R10        2.07422  -0.00003   0.00000  -0.00008  -0.00008   2.07414
   R11        2.64973  -0.00000   0.00000  -0.00001  -0.00001   2.64972
   R12        2.54029   0.00003   0.00000   0.00005   0.00005   2.54033
   R13        2.07946   0.00002   0.00000   0.00007   0.00007   2.07953
   R14        2.07113   0.00000   0.00000   0.00001   0.00001   2.07114
   R15        2.07158  -0.00000   0.00000  -0.00001  -0.00001   2.07157
   R16        2.07946   0.00002   0.00000   0.00007   0.00007   2.07953
   R17        2.54029   0.00003   0.00000   0.00005   0.00005   2.54033
   R18        2.07113   0.00000   0.00000   0.00001   0.00001   2.07114
   R19        2.07158  -0.00000   0.00000  -0.00001  -0.00001   2.07157
   R20        2.07617  -0.00002   0.00000  -0.00005  -0.00005   2.07613
    A1        2.14744   0.00001   0.00000   0.00003   0.00003   2.14747
    A2        2.05581  -0.00001   0.00000  -0.00004  -0.00004   2.05577
    A3        2.07994   0.00000   0.00000   0.00001   0.00001   2.07995
    A4        2.10935  -0.00001   0.00000  -0.00005  -0.00005   2.10930
    A5        2.09029   0.00000   0.00000   0.00001   0.00001   2.09030
    A6        2.08355   0.00001   0.00000   0.00004   0.00004   2.08359
    A7        2.11803   0.00002   0.00000   0.00009   0.00009   2.11812
    A8        2.08792  -0.00004   0.00000  -0.00022  -0.00022   2.08769
    A9        2.07724   0.00002   0.00000   0.00013   0.00013   2.07737
   A10        2.05581  -0.00001   0.00000  -0.00004  -0.00004   2.05577
   A11        2.07994   0.00000   0.00000   0.00001   0.00001   2.07995
   A12        2.14744   0.00001   0.00000   0.00003   0.00003   2.14747
   A13        2.09029   0.00000   0.00000   0.00001   0.00001   2.09030
   A14        2.10935  -0.00001   0.00000  -0.00005  -0.00005   2.10930
   A15        2.08355   0.00001   0.00000   0.00004   0.00004   2.08359
   A16        2.20947   0.00006   0.00000   0.00025   0.00025   2.20973
   A17        1.99724  -0.00001   0.00000  -0.00000  -0.00000   1.99724
   A18        2.07647  -0.00005   0.00000  -0.00025  -0.00025   2.07622
   A19        2.14059   0.00003   0.00000   0.00017   0.00017   2.14076
   A20        2.11583  -0.00002   0.00000  -0.00014  -0.00014   2.11569
   A21        2.02676  -0.00000   0.00000  -0.00003  -0.00003   2.02673
   A22        1.99724  -0.00001   0.00000  -0.00000  -0.00000   1.99724
   A23        2.20947   0.00006   0.00000   0.00025   0.00025   2.20973
   A24        2.07647  -0.00005   0.00000  -0.00025  -0.00025   2.07622
   A25        2.14059   0.00003   0.00000   0.00017   0.00017   2.14076
   A26        2.11583  -0.00002   0.00000  -0.00014  -0.00014   2.11569
   A27        2.02676  -0.00000   0.00000  -0.00003  -0.00003   2.02673
   A28        2.11803   0.00002   0.00000   0.00009   0.00009   2.11812
   A29        2.07724   0.00002   0.00000   0.00013   0.00013   2.07737
   A30        2.08792  -0.00004   0.00000  -0.00022  -0.00022   2.08769
    D1        3.14159  -0.00000   0.00000  -0.00000   0.00000   3.14159
    D2        0.00000   0.00000   0.00000  -0.00000   0.00000   0.00000
    D3        0.00000   0.00000   0.00000   0.00000   0.00000   0.00000
    D4        3.14159  -0.00000   0.00000   0.00000   0.00000   3.14159
    D5        3.14159  -0.00000   0.00000   0.00000   0.00000   3.14159
    D6        0.00000   0.00000   0.00000   0.00000   0.00000   0.00000
    D7        0.00000   0.00000   0.00000   0.00000   0.00000   0.00000
    D8        3.14159   0.00000   0.00000   0.00000   0.00000   3.14159
    D9        0.00000  -0.00000   0.00000   0.00000   0.00000   0.00000
   D10        3.14159   0.00000   0.00000  -0.00000   0.00000   3.14159
   D11        3.14159  -0.00000   0.00000   0.00000   0.00000   3.14159
   D12        0.00000   0.00000   0.00000  -0.00000   0.00000   0.00000
   D13        0.00000  -0.00000   0.00000  -0.00000   0.00000   0.00000
   D14        3.14159   0.00000   0.00000   0.00000   0.00000   3.14159
   D15        3.14159   0.00000   0.00000  -0.00000   0.00000   3.14159
   D16        0.00000   0.00000   0.00000   0.00000   0.00000   0.00000
   D17        0.00000  -0.00000   0.00000   0.00000   0.00000   0.00000
   D18        3.14159   0.00000   0.00000   0.00000   0.00000   3.14159
   D19        3.14159   0.00000   0.00000  -0.00000   0.00000   3.14159
   D20        0.00000   0.00000   0.00000  -0.00000   0.00000   0.00000
   D21        3.14159   0.00000   0.00000  -0.00000   0.00000   3.14159
   D22        0.00000   0.00000   0.00000   0.00000   0.00000   0.00000
   D23        0.00000   0.00000   0.00000  -0.00000   0.00000   0.00000
   D24        3.14159  -0.00000   0.00000   0.00000   0.00000   3.14159
   D25        3.14159   0.00000   0.00000   0.00000   0.00000   3.14159
   D26        0.00000   0.00000   0.00000  -0.00000   0.00000   0.00000
   D27        0.00000   0.00000   0.00000  -0.00000   0.00000   0.00000
   D28        3.14159  -0.00000   0.00000  -0.00000   0.00000   3.14159
   D29        0.00000  -0.00000   0.00000  -0.00000   0.00000   0.00000
   D30        3.14159  -0.00000   0.00000   0.00000   0.00000   3.14159
   D31        3.14159   0.00000   0.00000  -0.00000   0.00000   3.14159
   D32        0.00000   0.00000   0.00000   0.00000   0.00000   0.00000
   D33        0.00000   0.00000   0.00000  -0.00000   0.00000   0.00000
   D34        3.14159  -0.00000   0.00000  -0.00000   0.00000   3.14159
   D35        3.14159   0.00000   0.00000   0.00000   0.00000   3.14159
   D36        0.00000   0.00000   0.00000   0.00000   0.00000   0.00000
   D37        0.00000   0.00000   0.00000   0.00000   0.00000   0.00000
   D38        3.14159   0.00000   0.00000  -0.00000   0.00000   3.14159
   D39        3.14159   0.00000   0.00000   0.00000   0.00000   3.14159
   D40        0.00000   0.00000   0.00000   0.00000   0.00000   0.00000
         Item               Value     Threshold  Converged?
 Maximum Force            0.000056     0.000450     YES
 RMS     Force            0.000017     0.000300     YES
 Maximum Displacement     0.001236     0.001800     YES
 RMS     Displacement     0.000255     0.001200     YES
 Predicted change in Energy=-5.662530D-08
 Optimization completed.
    -- Stationary point found.
                           ----------------------------
                           !   Optimized Parameters   !
                           ! (Angstroms and Degrees)  !
 --------------------------                            --------------------------
 ! Name  Definition              Value          Derivative Info.                !
 --------------------------------------------------------------------------------
 ! R1    R(1,2)                  1.4212         -DE/DX =    0.0                 !
 ! R2    R(1,14)                 1.4976         -DE/DX =    0.0                 !
 ! R3    R(1,19)                 1.4224         -DE/DX =    0.0                 !
 ! R4    R(2,3)                  1.4022         -DE/DX =    0.0                 !
 ! R5    R(2,6)                  1.0976         -DE/DX =    0.0                 !
 ! R6    R(3,4)                  1.4224         -DE/DX =    0.0                 !
 ! R7    R(3,7)                  1.0987         -DE/DX =    0.0                 !
 ! R8    R(4,5)                  1.4212         -DE/DX =    0.0                 !
 ! R9    R(4,9)                  1.4976         -DE/DX =    0.0                 !
 ! R10   R(5,8)                  1.0976         -DE/DX =    0.0                 !
 ! R11   R(5,19)                 1.4022         -DE/DX =    0.0                 !
 ! R12   R(9,10)                 1.3443         -DE/DX =    0.0                 !
 ! R13   R(9,12)                 1.1004         -DE/DX =    0.0                 !
 ! R14   R(10,11)                1.096          -DE/DX =    0.0                 !
 ! R15   R(10,13)                1.0962         -DE/DX =    0.0                 !
 ! R16   R(14,15)                1.1004         -DE/DX =    0.0                 !
 ! R17   R(14,16)                1.3443         -DE/DX =    0.0                 !
 ! R18   R(16,17)                1.096          -DE/DX =    0.0                 !
 ! R19   R(16,18)                1.0962         -DE/DX =    0.0                 !
 ! R20   R(19,20)                1.0987         -DE/DX =    0.0                 !
 ! A1    A(2,1,14)             123.0393         -DE/DX =    0.0                 !
 ! A2    A(2,1,19)             117.789          -DE/DX =    0.0                 !
 ! A3    A(14,1,19)            119.1718         -DE/DX =    0.0                 !
 ! A4    A(1,2,3)              120.8571         -DE/DX =    0.0                 !
 ! A5    A(1,2,6)              119.7645         -DE/DX =    0.0                 !
 ! A6    A(3,2,6)              119.3784         -DE/DX =    0.0                 !
 ! A7    A(2,3,4)              121.3539         -DE/DX =    0.0                 !
 ! A8    A(2,3,7)              119.6288         -DE/DX =    0.0                 !
 ! A9    A(4,3,7)              119.0173         -DE/DX =    0.0                 !
 ! A10   A(3,4,5)              117.789          -DE/DX =    0.0                 !
 ! A11   A(3,4,9)              119.1718         -DE/DX =    0.0                 !
 ! A12   A(5,4,9)              123.0393         -DE/DX =    0.0                 !
 ! A13   A(4,5,8)              119.7645         -DE/DX =    0.0                 !
 ! A14   A(4,5,19)             120.8571         -DE/DX =    0.0                 !
 ! A15   A(8,5,19)             119.3784         -DE/DX =    0.0                 !
 ! A16   A(4,9,10)             126.5934         -DE/DX =    0.0001              !
 ! A17   A(4,9,12)             114.4334         -DE/DX =    0.0                 !
 ! A18   A(10,9,12)            118.9732         -DE/DX =    0.0                 !
 ! A19   A(9,10,11)            122.647          -DE/DX =    0.0                 !
 ! A20   A(9,10,13)            121.2283         -DE/DX =    0.0                 !
 ! A21   A(11,10,13)           116.1247         -DE/DX =    0.0                 !
 ! A22   A(1,14,15)            114.4334         -DE/DX =    0.0                 !
 ! A23   A(1,14,16)            126.5934         -DE/DX =    0.0001              !
 ! A24   A(15,14,16)           118.9732         -DE/DX =    0.0                 !
 ! A25   A(14,16,17)           122.647          -DE/DX =    0.0                 !
 ! A26   A(14,16,18)           121.2283         -DE/DX =    0.0                 !
 ! A27   A(17,16,18)           116.1247         -DE/DX =    0.0                 !
 ! A28   A(1,19,5)             121.3539         -DE/DX =    0.0                 !
 ! A29   A(1,19,20)            119.0173         -DE/DX =    0.0                 !
 ! A30   A(5,19,20)            119.6288         -DE/DX =    0.0                 !
 ! D1    D(14,1,2,3)           180.0            -DE/DX =    0.0                 !
 ! D2    D(14,1,2,6)             0.0            -DE/DX =    0.0                 !
 ! D3    D(19,1,2,3)             0.0            -DE/DX =    0.0                 !
 ! D4    D(19,1,2,6)           180.0            -DE/DX =    0.0                 !
 ! D5    D(2,1,14,15)          180.0            -DE/DX =    0.0                 !
 ! D6    D(2,1,14,16)            0.0            -DE/DX =    0.0                 !
 ! D7    D(19,1,14,15)           0.0            -DE/DX =    0.0                 !
 ! D8    D(19,1,14,16)         180.0            -DE/DX =    0.0                 !
 ! D9    D(2,1,19,5)             0.0            -DE/DX =    0.0                 !
 ! D10   D(2,1,19,20)          180.0            -DE/DX =    0.0                 !
 ! D11   D(14,1,19,5)          180.0            -DE/DX =    0.0                 !
 ! D12   D(14,1,19,20)           0.0            -DE/DX =    0.0                 !
 ! D13   D(1,2,3,4)              0.0            -DE/DX =    0.0                 !
 ! D14   D(1,2,3,7)            180.0            -DE/DX =    0.0                 !
 ! D15   D(6,2,3,4)            180.0            -DE/DX =    0.0                 !
 ! D16   D(6,2,3,7)              0.0            -DE/DX =    0.0                 !
 ! D17   D(2,3,4,5)              0.0            -DE/DX =    0.0                 !
 ! D18   D(2,3,4,9)            180.0            -DE/DX =    0.0                 !
 ! D19   D(7,3,4,5)            180.0            -DE/DX =    0.0                 !
 ! D20   D(7,3,4,9)              0.0            -DE/DX =    0.0                 !
 ! D21   D(3,4,5,8)            180.0            -DE/DX =    0.0                 !
 ! D22   D(3,4,5,19)             0.0            -DE/DX =    0.0                 !
 ! D23   D(9,4,5,8)              0.0            -DE/DX =    0.0                 !
 ! D24   D(9,4,5,19)           180.0            -DE/DX =    0.0                 !
 ! D25   D(3,4,9,10)           180.0            -DE/DX =    0.0                 !
 ! D26   D(3,4,9,12)             0.0            -DE/DX =    0.0                 !
 ! D27   D(5,4,9,10)             0.0            -DE/DX =    0.0                 !
 ! D28   D(5,4,9,12)           180.0            -DE/DX =    0.0                 !
 ! D29   D(4,5,19,1)             0.0            -DE/DX =    0.0                 !
 ! D30   D(4,5,19,20)          180.0            -DE/DX =    0.0                 !
 ! D31   D(8,5,19,1)           180.0            -DE/DX =    0.0                 !
 ! D32   D(8,5,19,20)            0.0            -DE/DX =    0.0                 !
 ! D33   D(4,9,10,11)            0.0            -DE/DX =    0.0                 !
 ! D34   D(4,9,10,13)          180.0            -DE/DX =    0.0                 !
 ! D35   D(12,9,10,11)         180.0            -DE/DX =    0.0                 !
 ! D36   D(12,9,10,13)           0.0            -DE/DX =    0.0                 !
 ! D37   D(1,14,16,17)           0.0            -DE/DX =    0.0                 !
 ! D38   D(1,14,16,18)         180.0            -DE/DX =    0.0                 !
 ! D39   D(15,14,16,17)        180.0            -DE/DX =    0.0                 !
 ! D40   D(15,14,16,18)          0.0            -DE/DX =    0.0                 !
 --------------------------------------------------------------------------------
 Lowest energy point so far.  Saving SCF results.
 Iteration  1 RMS(Cart)=  0.03181693 RMS(Int)=  0.04690652
 Iteration  2 RMS(Cart)=  0.01439315 RMS(Int)=  0.04413900
 Iteration  3 RMS(Cart)=  0.00647611 RMS(Int)=  0.04314305
 Iteration  4 RMS(Cart)=  0.00293025 RMS(Int)=  0.04274816
 Iteration  5 RMS(Cart)=  0.00132824 RMS(Int)=  0.04258104
 Iteration  6 RMS(Cart)=  0.00060242 RMS(Int)=  0.04250772
 Iteration  7 RMS(Cart)=  0.00027328 RMS(Int)=  0.04247498
 Iteration  8 RMS(Cart)=  0.00012398 RMS(Int)=  0.04246023
 Iteration  9 RMS(Cart)=  0.00005625 RMS(Int)=  0.04245356
 Iteration 10 RMS(Cart)=  0.00002552 RMS(Int)=  0.04245054
 Iteration 11 RMS(Cart)=  0.00001158 RMS(Int)=  0.04244917
 Iteration 12 RMS(Cart)=  0.00000525 RMS(Int)=  0.04244855
 Iteration 13 RMS(Cart)=  0.00000238 RMS(Int)=  0.04244826
 Iteration 14 RMS(Cart)=  0.00000108 RMS(Int)=  0.04244814
 Iteration 15 RMS(Cart)=  0.00000049 RMS(Int)=  0.04244808
 Iteration  1 RMS(Cart)=  0.03188250 RMS(Int)=  0.03029099
 Iteration  2 RMS(Cart)=  0.03199403 RMS(Int)=  0.02823217
 Iteration  3 RMS(Cart)=  0.02884605 RMS(Int)=  0.03207371
 Iteration  4 RMS(Cart)=  0.01589895 RMS(Int)=  0.03595410
 Iteration  5 RMS(Cart)=  0.00872145 RMS(Int)=  0.03844916
 Iteration  6 RMS(Cart)=  0.00477074 RMS(Int)=  0.03990089
 Iteration  7 RMS(Cart)=  0.00260548 RMS(Int)=  0.04071651
 Iteration  8 RMS(Cart)=  0.00142168 RMS(Int)=  0.04116787
 Iteration  9 RMS(Cart)=  0.00077536 RMS(Int)=  0.04141584
 Iteration 10 RMS(Cart)=  0.00042275 RMS(Int)=  0.04155157
 Iteration 11 RMS(Cart)=  0.00023046 RMS(Int)=  0.04162572
 Iteration 12 RMS(Cart)=  0.00012563 RMS(Int)=  0.04166618
 Iteration 13 RMS(Cart)=  0.00006848 RMS(Int)=  0.04168825
 Iteration 14 RMS(Cart)=  0.00003733 RMS(Int)=  0.04170029
 Iteration 15 RMS(Cart)=  0.00002034 RMS(Int)=  0.04170685
 Iteration 16 RMS(Cart)=  0.00001109 RMS(Int)=  0.04171042
 Iteration 17 RMS(Cart)=  0.00000604 RMS(Int)=  0.04171237
 Iteration 18 RMS(Cart)=  0.00000329 RMS(Int)=  0.04171344
 Iteration 19 RMS(Cart)=  0.00000180 RMS(Int)=  0.04171402
 Iteration 20 RMS(Cart)=  0.00000098 RMS(Int)=  0.04171433
 GradGradGradGradGradGradGradGradGradGradGradGradGradGradGradGradGradGrad

 Leave Link  103 at Wed Apr  4 10:30:49 2018, MaxMem=    52428800 cpu:               0.1 elap:               0.1
 (Enter /software/Gaussian16/g16_sse4/g16/l202.exe)
                          Input orientation:                          
 ---------------------------------------------------------------------
 Center     Atomic      Atomic             Coordinates (Angstroms)
 Number     Number       Type             X           Y           Z
 ---------------------------------------------------------------------
      1          6           0        0.274015   -1.406470    0.046761
      2          6           0       -1.055137   -0.908350    0.015071
      3          6           0       -1.309459    0.468696    0.090788
      4          6           0       -0.257648    1.417343    0.243927
      5          6           0        1.073587    0.916467    0.213199
      6          1           0       -1.896631   -1.607186   -0.080157
      7          1           0       -2.346115    0.829615    0.042704
      8          1           0        1.917239    1.617230    0.258793
      9          6           0       -0.581846    2.878776    0.198334
     10          6           0        0.239396    3.860369   -0.234370
     11          1           0        1.296150    3.688084   -0.480687
     12          1           0       -1.652091    3.121078    0.285542
     13          1           0       -0.120037    4.889041   -0.360421
     14          6           0        0.602957   -2.865537   -0.032433
     15          1           0        1.679618   -3.091418   -0.003615
     16          6           0       -0.272918   -3.880923   -0.131789
     17          1           0       -1.357371   -3.725471   -0.165377
     18          1           0        0.067143   -4.921882   -0.184069
     19          6           0        1.330446   -0.460127    0.138580
     20          1           0        2.368703   -0.819337    0.139218
 ---------------------------------------------------------------------
                    Distance matrix (angstroms):
                    1          2          3          4          5
     1  C    0.000000
     2  C    1.419779   0.000000
     3  C    2.454705   1.402380   0.000000
     4  C    2.880184   2.469253   1.424672   0.000000
     5  C    2.462327   2.810814   2.427837   1.422677   0.000000
     6  H    2.183598   1.097977   2.164088   3.455296   3.908590
     7  H    3.444587   2.165159   1.098740   2.178901   3.425051
     8  H    3.447884   3.908065   3.429131   2.184104   1.097678
     9  C    4.372506   3.820983   2.519816   1.497654   2.567360
    10  C    5.274450   4.947597   3.742743   2.538542   3.092370
    11  H    5.222781   5.186669   4.180938   2.845280   2.865811
    12  H    4.926012   4.082377   2.681502   2.202025   3.506404
    13  H    6.320960   5.884314   4.599757   3.526593   4.187496
    14  C    1.497782   2.565563   3.845729   4.377222   3.819081
    15  H    2.194836   3.499288   4.649506   4.913573   4.059239
    16  C    2.540459   3.077275   4.476957   5.311593   4.994702
    17  H    2.843270   2.839027   4.202256   5.274984   5.253614
    18  H    3.529051   4.172242   5.570360   6.361953   5.937767
    19  C    1.421281   2.430465   2.798946   2.461308   1.402340
    20  H    2.177382   3.427246   3.897468   3.451293   2.166983
                    6          7          8          9         10
     6  H    0.000000
     7  H    2.480953   0.000000
     8  H    5.005732   4.340878   0.000000
     9  C    4.682955   2.708491   2.800104   0.000000
    10  C    5.872014   3.993383   2.844300   1.350998   0.000000
    11  H    6.196302   4.659493   2.284955   2.154743   1.098673
    12  H    4.748685   2.406541   3.873293   1.100791   2.096327
    13  H    6.740608   4.647244   3.903674   2.136970   1.096927
    14  C    2.798869   4.728300   4.680529   5.869765   6.738751
    15  H    3.872772   5.619891   4.721937   6.387348   7.103156
    16  C    2.794457   5.149540   5.931191   6.774802   7.758904
    17  H    2.187509   4.665804   6.280720   6.659565   7.752379
    18  H    3.854143   6.241391   6.810211   7.836943   8.784084
    19  C    3.431853   3.897400   2.161988   3.848208   4.471708
    20  H    4.343030   4.995785   2.480923   4.731308   5.154917
                   11         12         13         14         15
    11  H    0.000000
    12  H    3.098505   0.000000
    13  H    1.860738   2.426964   0.000000
    14  C    6.605407   6.405147   7.795112   0.000000
    15  H    6.807077   7.055424   8.188638   1.100478   0.000000
    16  C    7.737801   7.148727   8.774276   1.344633   2.110011
    17  H    7.880443   6.867708   8.705105   2.144771   3.106685
    18  H    8.702296   8.238052   9.814293   2.130410   2.446066
    19  C    4.194321   4.662849   5.564756   2.518825   2.658163
    20  H    4.674559   5.631614   6.247324   2.708183   2.378569
                   16         17         18         19         20
    16  C    0.000000
    17  H    1.096052   0.000000
    18  H    1.096344   1.860373   0.000000
    19  C    3.787574   4.240190   4.648364   0.000000
    20  H    4.052766   4.735189   4.715142   1.098640   0.000000
 Stoichiometry    C10H10
 Framework group  C1[X(C10H10)]
 Deg. of freedom    54
 Full point group                 C1      NOp   1
 Omega: Change in point group or standard orientation.

 Old FWG=C02H [SGH(C10H10)]
 New FWG=C01  [X(C10H10)]
 RotChk:  IX=2 Diff= 1.98D+00
 Largest Abelian subgroup         C1      NOp   1
 Largest concise Abelian subgroup C1      NOp   1
                         Standard orientation:                         
 ---------------------------------------------------------------------
 Center     Atomic      Atomic             Coordinates (Angstroms)
 Number     Number       Type             X           Y           Z
 ---------------------------------------------------------------------
      1          6           0        1.413555    0.239213    0.017923
      2          6           0        0.885845   -1.078608   -0.007420
      3          6           0       -0.497199   -1.301236    0.058122
      4          6           0       -1.423151   -0.227105    0.194301
      5          6           0       -0.892096    1.092219    0.157238
      6          1           0        1.566304   -1.936380   -0.089616
      7          1           0       -0.881002   -2.329869    0.015235
      8          1           0       -1.574001    1.951779    0.189769
      9          6           0       -2.891080   -0.518695    0.138358
     10          6           0       -3.850079    0.320812   -0.309688
     11          1           0       -3.651842    1.371339   -0.563019
     12          1           0       -3.158234   -1.582455    0.232080
     13          1           0       -4.885470   -0.016411   -0.441954
     14          6           0        2.880310    0.534563   -0.050971
     15          1           0        3.130185    1.606069   -0.028873
     16          6           0        3.876486   -0.364739   -0.134205
     17          1           0        3.696886   -1.445659   -0.160385
     18          1           0        4.925274   -0.048638   -0.179991
     19          6           0        0.490544    1.317401    0.092770
     20          1           0        0.873087    2.347280    0.088186
 ---------------------------------------------------------------------
 Rotational constants (GHZ):           4.5458373           0.6861574           0.6007027
 Leave Link  202 at Wed Apr  4 10:30:49 2018, MaxMem=    52428800 cpu:               0.1 elap:               0.0
 (Enter /software/Gaussian16/g16_sse4/g16/l301.exe)
 Standard basis: STO-3G (5D, 7F)
 Ernie: Thresh=  0.10000D-02 Tol=  0.10000D-05 Strict=F.
 There are    60 symmetry adapted cartesian basis functions of A   symmetry.
 There are    60 symmetry adapted basis functions of A   symmetry.
    60 basis functions,   180 primitive gaussians,    60 cartesian basis functions
    35 alpha electrons       35 beta electrons
       nuclear repulsion energy       445.8673638991 Hartrees.
 IExCor=  402 DFT=T Ex+Corr=B3LYP ExCW=0 ScaHFX=  0.200000
 ScaDFX=  0.800000  0.720000  1.000000  0.810000 ScalE2=  1.000000  1.000000
 IRadAn=      5 IRanWt=     -1 IRanGd=            0 ICorTp=0 IEmpDi=  4
 NAtoms=   20 NActive=   20 NUniq=   20 SFac= 1.00D+00 NAtFMM=   60 NAOKFM=F Big=F
 Integral buffers will be    131072 words long.
 Raffenetti 2 integral format.
 Two-electron integral symmetry is turned on.
 Leave Link  301 at Wed Apr  4 10:30:49 2018, MaxMem=    52428800 cpu:               0.2 elap:               0.1
 (Enter /software/Gaussian16/g16_sse4/g16/l302.exe)
 NPDir=0 NMtPBC=     1 NCelOv=     1 NCel=       1 NClECP=     1 NCelD=      1
         NCelK=      1 NCelE2=     1 NClLst=     1 CellRange=     0.0.
 One-electron integrals computed using PRISM.
 One-electron integral symmetry used in STVInt
 NBasis=    60 RedAO= T EigKep=  1.81D-01  NBF=    60
 NBsUse=    60 1.00D-06 EigRej= -1.00D+00 NBFU=    60
 Precomputing XC quadrature grid using
 IXCGrd= 4 IRadAn=           5 IRanWt=          -1 IRanGd=           0 AccXCQ= 0.00D+00.
 Generated NRdTot=       0 NPtTot=           0 NUsed=           0 NTot=          32
 NSgBfM=    59    59    59    59    59 MxSgAt=    20 MxSgA2=    20.
 Leave Link  302 at Wed Apr  4 10:30:50 2018, MaxMem=    52428800 cpu:               0.8 elap:               0.2
 (Enter /software/Gaussian16/g16_sse4/g16/l303.exe)
 DipDrv:  MaxL=1.
 Leave Link  303 at Wed Apr  4 10:30:50 2018, MaxMem=    52428800 cpu:               0.1 elap:               0.0
 (Enter /software/Gaussian16/g16_sse4/g16/l401.exe)
 Initial guess from the checkpoint file:  "PhCCCC.chk"
 B after Tr=     0.000000    0.000000   -0.000000
         Rot=    0.715144    0.001103   -0.000874   -0.698976 Ang=  88.69 deg.
 Guess basis will be translated and rotated to current coordinates.
 JPrj=2 DoOrth=T DoCkMO=T.
 Generating alternative initial guess.
 ExpMin= 1.69D-01 ExpMax= 7.16D+01 ExpMxC= 7.16D+01 IAcc=2 IRadAn=         4 AccDes= 0.00D+00
 Harris functional with IExCor=  402 and IRadAn=       4 diagonalized for initial guess.
 HarFok:  IExCor=  402 AccDes= 0.00D+00 IRadAn=         4 IDoV= 1 UseB2=F ITyADJ=14
 ICtDFT=  3500011 ScaDFX=  1.000000  1.000000  1.000000  1.000000
 FoFCou: FMM=F IPFlag=           0 FMFlag=      100000 FMFlg1=           0
         NFxFlg=           0 DoJE=T BraDBF=F KetDBF=T FulRan=T
         wScrn=  0.000000 ICntrl=       500 IOpCl=  0 I1Cent=   200000004 NGrid=           0
         NMat0=    1 NMatS0=      1 NMatT0=    0 NMatD0=    1 NMtDS0=    0 NMtDT0=    0
 Petite list used in FoFCou.
 Harris En= -382.201667727500    
 Leave Link  401 at Wed Apr  4 10:30:50 2018, MaxMem=    52428800 cpu:               1.9 elap:               0.5
 (Enter /software/Gaussian16/g16_sse4/g16/l502.exe)
 Keep R1 ints in memory in canonical form, NReq=5212687.
 FoFCou: FMM=F IPFlag=           0 FMFlag=           0 FMFlg1=           0
         NFxFlg=           0 DoJE=F BraDBF=F KetDBF=F FulRan=T
         wScrn=  0.000000 ICntrl=       600 IOpCl=  0 I1Cent=           0 NGrid=           0
[...]
           D33          3.82044   2.34982  -0.00048
           D34       -177.12968-177.97439 179.98136
           D35        177.45641 177.59827 179.99001
           D36         -3.49371  -2.72594  -0.02815
           D37          0.01242   0.04110   0.00936
           D38       -179.98869-179.95684 180.02736
           D39       -179.95519-179.97371-180.00832
           D40          0.04370   0.02834   0.00969
 Largest change from initial coordinates is atom   13       3.502 Angstoms.
 GradGradGradGradGradGradGradGradGradGradGradGradGradGradGradGradGradGrad

 Leave Link  103 at Wed Apr  4 10:40:13 2018, MaxMem=    52428800 cpu:               0.1 elap:               0.0
 (Enter /software/Gaussian16/g16_sse4/g16/l202.exe)
                          Input orientation:                          
 ---------------------------------------------------------------------
 Center     Atomic      Atomic             Coordinates (Angstroms)
 Number     Number       Type             X           Y           Z
 ---------------------------------------------------------------------
      1          6           0        0.181970   -1.414154    0.168499
      2          6           0       -0.511306   -0.895257   -0.958205
      3          6           0       -0.687512    0.486337   -1.120265
      4          6           0       -0.181415    1.414042   -0.168048
      5          6           0        0.511489    0.894948    0.958936
      6          1           0       -0.915209   -1.582052   -1.713175
      7          1           0       -1.226882    0.865374   -1.999076
      8          1           0        0.915323    1.581705    1.713901
      9          6           0       -0.398509    2.879167   -0.390128
     10          6           0        0.012056    3.880554    0.407236
     11          1           0        0.568751    3.707154    1.335236
     12          1           0       -0.953823    3.123114   -1.308396
     13          1           0       -0.196255    4.927394    0.157623
     14          6           0        0.398328   -2.879253    0.390058
     15          1           0        0.952406   -3.123756    1.308862
     16          6           0       -0.012054   -3.879958   -0.408227
     17          1           0       -0.567848   -3.706002   -1.336717
     18          1           0        0.195529   -4.927084   -0.158908
     19          6           0        0.687852   -0.486556    1.120962
     20          1           0        1.227107   -0.865715    1.999831
 ---------------------------------------------------------------------
                    Distance matrix (angstroms):
                    1          2          3          4          5
     1  C    0.000000
     2  C    1.421038   0.000000
     3  C    2.455357   1.402182   0.000000
     4  C    2.871238   2.462933   1.422494   0.000000
     5  C    2.462789   2.815382   2.434675   1.421150   0.000000
     6  H    2.184648   1.097635   2.163706   3.449993   3.912949
     7  H    3.446665   2.166860   1.098589   2.178693   3.431128
     8  H    3.449818   3.912897   3.435318   2.184646   1.097583
     9  C    4.368252   3.818601   2.518384   1.497678   2.566163
    10  C    5.302811   4.994669   3.787264   2.540092   3.076955
    11  H    5.266752   5.254387   4.240442   2.842705   2.837848
    12  H    4.904900   4.057802   2.656860   2.194979   3.500379
    13  H    6.352826   5.936968   4.647291   3.528445   4.171765
    14  C    1.497469   2.565441   3.845428   4.368062   3.818510
    15  H    2.194707   3.499751   4.650028   4.904939   4.057936
    16  C    2.539773   3.075739   4.475240   5.302151   4.994293
    17  H    2.842617   2.836681   4.199629   5.265926   5.253926
    18  H    3.528180   4.170626   5.568581   6.352327   5.936789
    19  C    1.422512   2.434739   2.803791   2.455493   1.402109
    20  H    2.178732   3.431171   3.902411   3.446872   2.166912
                    6          7          8          9         10
     6  H    0.000000
     7  H    2.483702   0.000000
     8  H    5.010494   4.346075   0.000000
     9  C    4.681870   2.707449   2.799375   0.000000
    10  C    5.932624   4.051743   2.794275   1.344295   0.000000
    11  H    6.282567   4.734728   2.186557   2.144303   1.095976
    12  H    4.722703   2.376760   3.873491   1.100500   2.109510
    13  H    6.810996   4.713125   3.853731   2.129829   1.096163
    14  C    2.798517   4.729852   4.681878   5.865410   6.770856
    15  H    3.872666   5.621825   4.723007   6.383308   7.124434
    16  C    2.792660   5.150222   5.932387   6.770188   7.803276
    17  H    2.184844   4.665890   6.282190   6.655010   7.805992
    18  H    3.852106   6.241958   6.811009   7.832235   8.827722
    19  C    3.435440   3.902379   2.163567   3.845993   4.476355
    20  H    4.346155   5.000999   2.483713   4.730610   5.151678
                   11         12         13         14         15
    11  H    0.000000
    12  H    3.106144   0.000000
    13  H    1.860375   2.445107   0.000000
    14  C    6.656062   6.382904   7.832706   0.000000
    15  H    6.841726   7.036131   8.213756   1.100448   0.000000
    16  C    7.806489   7.123219   8.827432   1.344278   2.109602
    17  H    7.961538   6.840073   8.769644   2.144473   3.106328
    18  H    8.770509   8.212674   9.867341   2.129813   2.445241
    19  C    4.200869   4.650440   5.569607   2.518540   2.657089
    20  H    4.667574   5.622418   6.243380   2.707873   2.377319
                   16         17         18         19         20
    16  C    0.000000
    17  H    1.096021   0.000000
    18  H    1.096232   1.860382   0.000000
    19  C    3.787277   4.240496   4.647445   0.000000
    20  H    4.052150   4.735151   4.713706   1.098621   0.000000
 Stoichiometry    C10H10
 Framework group  C1[X(C10H10)]
 Deg. of freedom    54
 Full point group                 C1      NOp   1
 RotChk:  IX=0 Diff= 6.26D-16
 Largest Abelian subgroup         C1      NOp   1
 Largest concise Abelian subgroup C1      NOp   1
                         Standard orientation:                         
 ---------------------------------------------------------------------
 Center     Atomic      Atomic             Coordinates (Angstroms)
 Number     Number       Type             X           Y           Z
 ---------------------------------------------------------------------
      1          6           0        1.415217    0.241722    0.000130
      2          6           0        0.899681   -1.082503    0.000191
      3          6           0       -0.482968   -1.315736    0.000030
      4          6           0       -1.415115   -0.241217   -0.000323
      5          6           0       -0.899406    1.083060    0.000088
      6          1           0        1.589949   -1.935927    0.000282
      7          1           0       -0.859359   -2.347834    0.000193
      8          1           0       -1.589638    1.936446    0.000055
      9          6           0       -2.881209   -0.547169    0.000102
     10          6           0       -3.886584    0.345216   -0.000147
     11          1           0       -3.716228    1.427871   -0.000702
     12          1           0       -3.122238   -1.620950    0.000834
     13          1           0       -4.933783    0.021261   -0.000097
     14          6           0        2.881269    0.546851    0.000073
     15          1           0        3.122787    1.620469    0.000704
     16          6           0        3.885996   -0.346237   -0.000337
     17          1           0        3.715137   -1.428858   -0.000832
     18          1           0        4.933459   -0.022903    0.000106
     19          6           0        0.483160    1.316344    0.000092
     20          1           0        0.859667    2.348434    0.000063
 ---------------------------------------------------------------------
 Rotational constants (GHZ):           4.6271763           0.6848511           0.5965569
 Leave Link  202 at Wed Apr  4 10:40:13 2018, MaxMem=    52428800 cpu:               0.1 elap:               0.0
 (Enter /software/Gaussian16/g16_sse4/g16/l601.exe)
 Copying SCF densities to generalized density rwf, IOpCl= 0 IROHF=0.

 **********************************************************************

            Population analysis using the SCF density.

 **********************************************************************

 Orbital symmetries:
       Occupied  (A) (A) (A) (A) (A) (A) (A) (A) (A) (A) (A) (A)
                 (A) (A) (A) (A) (A) (A) (A) (A) (A) (A) (A) (A)
                 (A) (A) (A) (A) (A) (A) (A) (A) (A) (A) (A)
       Virtual   (A) (A) (A) (A) (A) (A) (A) (A) (A) (A) (A) (A)
                 (A) (A) (A) (A) (A) (A) (A) (A) (A) (A) (A) (A)
                 (A)
 The electronic state is 1-A.
 Alpha  occ. eigenvalues --  -10.02023 -10.02018 -10.00811 -10.00811 -10.00680
 Alpha  occ. eigenvalues --  -10.00678 -10.00606 -10.00592  -9.99233  -9.99232
 Alpha  occ. eigenvalues --   -0.80952  -0.75398  -0.71797  -0.69979  -0.66753
 Alpha  occ. eigenvalues --   -0.58869  -0.55894  -0.53165  -0.51018  -0.45744
 Alpha  occ. eigenvalues --   -0.43936  -0.41062  -0.39796  -0.39607  -0.37397
 Alpha  occ. eigenvalues --   -0.35115  -0.34728  -0.32452  -0.31125  -0.29280
 Alpha  occ. eigenvalues --   -0.28745  -0.26355  -0.21245  -0.19506  -0.15309
 Alpha virt. eigenvalues --    0.03741   0.09036   0.11061   0.18221   0.27253
 Alpha virt. eigenvalues --    0.33223   0.34074   0.37937   0.38146   0.41100
 Alpha virt. eigenvalues --    0.41199   0.42677   0.43964   0.45270   0.47822
 Alpha virt. eigenvalues --    0.52628   0.54580   0.57601   0.59943   0.62505
 Alpha virt. eigenvalues --    0.63962   0.68289   0.71719   0.77954   0.79461
          Condensed to atoms (all electrons):
               1          2          3          4          5          6
     1  C    4.778647   0.488358  -0.027168  -0.009776  -0.026974  -0.024567
     2  C    0.488358   4.810682   0.508941  -0.026963  -0.010498   0.387887
     3  C   -0.027168   0.508941   4.815092   0.488797  -0.030720  -0.025261
     4  C   -0.009776  -0.026963   0.488797   4.778685   0.488302   0.001330
     5  C   -0.026974  -0.010498  -0.030720   0.488302   4.810646   0.000032
     6  H   -0.024567   0.387887  -0.025261   0.001330   0.000032   0.586962
     7  H    0.001336  -0.025223   0.387936  -0.025301   0.001343  -0.003826
     8  H    0.001330   0.000032   0.001347  -0.024571   0.387886   0.000002
     9  C    0.000016   0.000818  -0.028775   0.411848  -0.024050  -0.000015
    10  C    0.000000  -0.000007   0.000680  -0.023773  -0.003951   0.000000
    11  H   -0.000000  -0.000000   0.000012  -0.003527  -0.000556   0.000000
    12  H   -0.000001   0.000022  -0.003965  -0.026060   0.001085  -0.000002
    13  H    0.000000   0.000000  -0.000016   0.001319   0.000018  -0.000000
    14  C    0.411898  -0.024092   0.000750   0.000016   0.000818  -0.003044
    15  H   -0.026074   0.001087  -0.000017  -0.000001   0.000022   0.000019
    16  C   -0.023787  -0.003970   0.000015   0.000000  -0.000007  -0.000606
    17  H   -0.003527  -0.000562  -0.000012  -0.000000  -0.000000   0.000562
    18  H    0.001320   0.000018   0.000000   0.000000   0.000000  -0.000017
    19  C    0.488776  -0.030711  -0.011076  -0.027155   0.508998   0.001347
    20  H   -0.025299   0.001342   0.000039   0.001335  -0.025216  -0.000034
               7          8          9         10         11         12
     1  C    0.001336   0.001330   0.000016   0.000000  -0.000000  -0.000001
     2  C   -0.025223   0.000032   0.000818  -0.000007  -0.000000   0.000022
     3  C    0.387936   0.001347  -0.028775   0.000680   0.000012  -0.003965
     4  C   -0.025301  -0.024571   0.411848  -0.023773  -0.003527  -0.026060
     5  C    0.001343   0.387886  -0.024050  -0.003951  -0.000556   0.001085
     6  H   -0.003826   0.000002  -0.000015   0.000000   0.000000  -0.000002
     7  H    0.588896  -0.000034  -0.003905   0.000029   0.000001   0.001032
     8  H   -0.000034   0.586955  -0.003036  -0.000600   0.000561   0.000019
     9  C   -0.003905  -0.003036   4.798285   0.586066  -0.023815   0.386236
    10  C    0.000029  -0.000600   0.586066   4.849835   0.385949  -0.027681
    11  H    0.000001   0.000561  -0.023815   0.385949   0.586737   0.002045
    12  H    0.001032   0.000019   0.386236  -0.027681   0.002045   0.595519
    13  H   -0.000002  -0.000017  -0.024052   0.388286  -0.023725  -0.005098
    14  C   -0.000014  -0.000015   0.000000  -0.000000   0.000000  -0.000000
    15  H    0.000000  -0.000002  -0.000000   0.000000  -0.000000   0.000000
    16  C    0.000000   0.000000  -0.000000  -0.000000   0.000000   0.000000
    17  H    0.000002   0.000000   0.000000   0.000000  -0.000000  -0.000000
    18  H   -0.000000  -0.000000  -0.000000   0.000000   0.000000  -0.000000
    19  C    0.000039  -0.025267   0.000749   0.000015  -0.000012  -0.000017
    20  H    0.000002  -0.003827  -0.000014   0.000000   0.000002   0.000000
              13         14         15         16         17         18
     1  C    0.000000   0.411898  -0.026074  -0.023787  -0.003527   0.001320
     2  C    0.000000  -0.024092   0.001087  -0.003970  -0.000562   0.000018
     3  C   -0.000016   0.000750  -0.000017   0.000015  -0.000012   0.000000
     4  C    0.001319   0.000016  -0.000001   0.000000  -0.000000   0.000000
     5  C    0.000018   0.000818   0.000022  -0.000007  -0.000000   0.000000
     6  H   -0.000000  -0.003044   0.000019  -0.000606   0.000562  -0.000017
     7  H   -0.000002  -0.000014   0.000000   0.000000   0.000002  -0.000000
     8  H   -0.000017  -0.000015  -0.000002   0.000000   0.000000  -0.000000
     9  C   -0.024052   0.000000  -0.000000  -0.000000   0.000000  -0.000000
    10  C    0.388286  -0.000000   0.000000  -0.000000   0.000000   0.000000
    11  H   -0.023725   0.000000  -0.000000   0.000000  -0.000000   0.000000
    12  H   -0.005098  -0.000000   0.000000   0.000000  -0.000000  -0.000000
    13  H    0.583927  -0.000000  -0.000000   0.000000   0.000000  -0.000000
    14  C   -0.000000   4.798250   0.386247   0.586087  -0.023804  -0.024056
    15  H   -0.000000   0.386247   0.595495  -0.027669   0.002044  -0.005097
    16  C    0.000000   0.586087  -0.027669   4.849827   0.385943   0.388266
    17  H    0.000000  -0.023804   0.002044   0.385943   0.586746  -0.023728
    18  H   -0.000000  -0.024056  -0.005097   0.388266  -0.023728   0.583971
    19  C    0.000000  -0.028760  -0.003962   0.000680   0.000012  -0.000016
    20  H   -0.000000  -0.003901   0.001033   0.000029   0.000001  -0.000002
              19         20
     1  C    0.488776  -0.025299
     2  C   -0.030711   0.001342
     3  C   -0.011076   0.000039
     4  C   -0.027155   0.001335
     5  C    0.508998  -0.025216
     6  H    0.001347  -0.000034
     7  H    0.000039   0.000002
     8  H   -0.025267  -0.003827
     9  C    0.000749  -0.000014
    10  C    0.000015   0.000000
    11  H   -0.000012   0.000002
    12  H   -0.000017   0.000000
    13  H    0.000000  -0.000000
    14  C   -0.028760  -0.003901
    15  H   -0.003962   0.001033
    16  C    0.000680   0.000029
    17  H    0.000012   0.000001
    18  H   -0.000016  -0.000002
    19  C    4.815037   0.387933
    20  H    0.387933   0.588873
 Mulliken charges:
               1
     1  C   -0.004506
     2  C   -0.077161
     3  C   -0.076600
     4  C   -0.004505
     5  C   -0.077178
     6  H    0.079232
     7  H    0.077689
     8  H    0.079237
     9  C   -0.076354
    10  C   -0.154848
    11  H    0.076328
    12  H    0.076864
    13  H    0.079359
    14  C   -0.076381
    15  H    0.076874
    16  C   -0.154808
    17  H    0.076323
    18  H    0.079340
    19  C   -0.076608
    20  H    0.077703
 Sum of Mulliken charges =  -0.00000
 Mulliken charges with hydrogens summed into heavy atoms:
               1
     1  C   -0.004506
     2  C    0.002071
     3  C    0.001089
     4  C   -0.004505
     5  C    0.002059
     9  C    0.000510
    10  C    0.000839
    14  C    0.000493
    16  C    0.000856
    19  C    0.001095
 Electronic spatial extent (au):  <R**2>=           1861.8960
 Charge=              0.0000 electrons
 Dipole moment (field-independent basis, Debye):
    X=              0.0002    Y=             -0.0003    Z=              0.0003  Tot=              0.0005
 Quadrupole moment (field-independent basis, Debye-Ang):
   XX=            -50.7139   YY=            -50.2247   ZZ=            -58.6253
   XY=              0.0689   XZ=              0.0010   YZ=             -0.0005
 Traceless Quadrupole moment (field-independent basis, Debye-Ang):
   XX=              2.4741   YY=              2.9633   ZZ=             -5.4374
   XY=              0.0689   XZ=              0.0010   YZ=             -0.0005
 Octapole moment (field-independent basis, Debye-Ang**2):
  XXX=             -0.0048  YYY=              0.0009  ZZZ=              0.0001  XYY=              0.0020
  XXY=             -0.0064  XXZ=              0.0045  XZZ=              0.0004  YZZ=             -0.0001
  YYZ=              0.0014  XYZ=              0.0069
 Hexadecapole moment (field-independent basis, Debye-Ang**3):
 XXXX=          -1862.3130 YYYY=           -329.5695 ZZZZ=            -47.6115 XXXY=              6.8627
 XXXZ=              0.0280 YYYX=              1.3692 YYYZ=             -0.0027 ZZZX=              0.0007
 ZZZY=             -0.0001 XXYY=           -367.9612 XXZZ=           -367.6951 YYZZ=            -72.1365
 XXYZ=             -0.0021 YYXZ=             -0.0005 ZZXY=             -0.0207
 N-N= 4.458920764102D+02 E-N=-1.776399952768D+03  KE= 3.758474078011D+02
 No NMR shielding tensors so no spin-rotation constants.
 Leave Link  601 at Wed Apr  4 10:40:13 2018, MaxMem=    52428800 cpu:               0.3 elap:               0.1
 (Enter /software/Gaussian16/g16_sse4/g16/l9999.exe)
 1\1\GINC-QNODE4113\Scan\RB3LYP\STO-3G\C10H10\ASR731\04-Apr-2018\0\\#p 
 b3lyp/sto-3g opt=modredundant\\DVB scan dihedral\\0,1\C,0.181970131,-1
 .4141543572,0.1684993188\C,-0.5113062858,-0.895257203,-0.958205082\C,-
 0.6875116563,0.4863370153,-1.1202650901\C,-0.1814151219,1.4140421617,-
 0.1680478196\C,0.5114889164,0.8949482862,0.9589358286\H,-0.9152085445,
 -1.5820521819,-1.7131747519\H,-1.2268820174,0.8653740094,-1.9990759439
 \H,0.9153230851,1.5817045149,1.7139009768\C,-0.3985085275,2.8791669678
 ,-0.39012804\C,0.01205636,3.8805543927,0.4072358455\H,0.5687514935,3.7
 07153795,1.335236448\H,-0.9538231549,3.123113537,-1.3083963977\H,-0.19
 62545389,4.9273937288,0.1576228592\C,0.3983277829,-2.8792526941,0.3900
 582237\H,0.9524064446,-3.1237563067,1.3088622786\C,-0.0120539142,-3.87
 99580496,-0.408226807\H,-0.5678484991,-3.706002331,-1.3367172077\H,0.1
 95528522,-4.927084231,-0.1589075842\C,0.6878522895,-0.4865558861,1.120
 962067\H,1.2271072356,-0.865715168,1.9998308784\\Version=ES64L-G16RevA
 .03\State=1-A\HF=-382.3082666,-382.3069508,-382.3026496,-382.2995517,-
 382.302603,-382.3069467,-382.3082726,-382.3069466,-382.3026028,-382.29
 95516,-382.3026496,-382.3069508,-382.3082663\RMSD=5.825e-09,4.123e-09,
 3.769e-09,1.210e-09,2.315e-09,7.926e-09,3.839e-09,2.067e-09,9.178e-09,
 6.945e-09,2.491e-09,6.061e-09,5.934e-09\PG=C01 [X(C10H10)]\\@


 SATCHEL PAIGE'S GUIDE TO LONGEVITY

    1.  AVOID FRIED MEATS, WHICH ANGRY UP THE BLOOD.

    2.  IF YOUR STOMACH DISPUTES YOU, LIE DOWN AND PACIFY IT WITH COOL
        THOUGHTS.

    3.  KEEP THE JUICES FLOWING BY JANGLING AROUND GENTLY AS YOU MOVE.

    4.  GO VERY LIGHT ON THE VICES, SUCH AS CARRYING ON IN SOCIETY.
        THE SOCIAL RUMBLE AIN'T RESTFUL.

    5.  AVOID RUNNING AT ALL TIMES.

    6.  DON'T LOOK BACK.  SOMETHING MAY BE GAINING ON YOU.
 Job cpu time:       0 days  0 hours 35 minutes 53.0 seconds.
 Elapsed time:       0 days  0 hours  9 minutes 23.8 seconds.
 File lengths (MBytes):  RWF=     10 Int=      0 D2E=      0 Chk=     16 Scr=      1
 Normal termination of Gaussian 16 at Wed Apr  4 10:40:13 2018.
