 Entering Gaussian System, Link 0=g16
 Input=dvb_ir.gjf
 Output=dvb_ir.log
 Initial command:
 /gpfs1/apps/software/Gaussian16/AVX2/g16/l1.exe "/scratch/tmp/osl/350325/Gau-19353.inp" -scrdir="/scratch/tmp/osl/350325/"
 Entering Link 1 = /gpfs1/apps/software/Gaussian16/AVX2/g16/l1.exe PID=     19355.
  
 Copyright (c) 1988-2019, Gaussian, Inc.  All Rights Reserved.
  
 This is part of the Gaussian(R) 16 program.  It is based on
 the Gaussian(R) 09 system (copyright 2009, Gaussian, Inc.),
 the Gaussian(R) 03 system (copyright 2003, Gaussian, Inc.),
 the Gaussian(R) 98 system (copyright 1998, Gaussian, Inc.),
 the Gaussian(R) 94 system (copyright 1995, Gaussian, Inc.),
 the Gaussian 92(TM) system (copyright 1992, Gaussian, Inc.),
 the Gaussian 90(TM) system (copyright 1990, Gaussian, Inc.),
 the Gaussian 88(TM) system (copyright 1988, Gaussian, Inc.),
 the Gaussian 86(TM) system (copyright 1986, Carnegie Mellon
 University), and the Gaussian 82(TM) system (copyright 1983,
 Carnegie Mellon University). Gaussian is a federally registered
 trademark of Gaussian, Inc.
  
 This software contains proprietary and confidential information,
 including trade secrets, belonging to Gaussian, Inc.
  
 This software is provided under written license and may be
 used, copied, transmitted, or stored only in accord with that
 written license.
  
 The following legend is applicable only to US Government
 contracts under FAR:
  
                    RESTRICTED RIGHTS LEGEND
  
 Use, reproduction and disclosure by the US Government is
 subject to restrictions as set forth in subparagraphs (a)
 and (c) of the Commercial Computer Software - Restricted
 Rights clause in FAR 52.227-19.
  
 Gaussian, Inc.
 340 Quinnipiac St., Bldg. 40, Wallingford CT 06492
  
  
 ---------------------------------------------------------------
 Warning -- This program may not be used in any manner that
 competes with the business of Gaussian, Inc. or will provide
 assistance to any competitor of Gaussian, Inc.  The licensee
 of this program is prohibited from giving any competitor of
 Gaussian, Inc. access to this program.  By using this program,
 the user acknowledges that Gaussian, Inc. is engaged in the
 business of creating and licensing software in the field of
 computational chemistry and represents and warrants to the
 licensee that it is not a competitor of Gaussian, Inc. and that
 it will not use this program in any manner prohibited above.
 ---------------------------------------------------------------
  

 Cite this work as:
 Gaussian 16, Revision C.01,
 M. J. Frisch, G. W. Trucks, H. B. Schlegel, G. E. Scuseria, 
 M. A. Robb, J. R. Cheeseman, G. Scalmani, V. Barone, 
 G. A. Petersson, H. Nakatsuji, X. Li, M. Caricato, A. V. Marenich, 
 J. Bloino, B. G. Janesko, R. Gomperts, B. Mennucci, H. P. Hratchian, 
 J. V. Ortiz, A. F. Izmaylov, J. L. Sonnenberg, D. Williams-Young, 
 F. Ding, F. Lipparini, F. Egidi, J. Goings, B. Peng, A. Petrone, 
 T. Henderson, D. Ranasinghe, V. G. Zakrzewski, J. Gao, N. Rega, 
 G. Zheng, W. Liang, M. Hada, M. Ehara, K. Toyota, R. Fukuda, 
 J. Hasegawa, M. Ishida, T. Nakajima, Y. Honda, O. Kitao, H. Nakai, 
 T. Vreven, K. Throssell, J. A. Montgomery, Jr., J. E. Peralta, 
 F. Ogliaro, M. J. Bearpark, J. J. Heyd, E. N. Brothers, K. N. Kudin, 
 V. N. Staroverov, T. A. Keith, R. Kobayashi, J. Normand, 
 K. Raghavachari, A. P. Rendell, J. C. Burant, S. S. Iyengar, 
 J. Tomasi, M. Cossi, J. M. Millam, M. Klene, C. Adamo, R. Cammi, 
 J. W. Ochterski, R. L. Martin, K. Morokuma, O. Farkas, 
 J. B. Foresman, and D. J. Fox, Gaussian, Inc., Wallingford CT, 2019.
 
 ******************************************
 Gaussian 16:  ES64L-G16RevC.01  3-Jul-2019
                 1-Dec-2021 
 ******************************************
 %chk=PhCCCC.chk
 %mem=900MB
 %nproc=1
 Will use up to    1 processors via shared memory.
 ----------------------------
 #p b3lyp/sto-3g freq=hpmodes
 ----------------------------
 1/10=4,30=1,38=1/1,3;
 2/12=2,17=6,18=5,40=1/2;
 3/6=3,11=2,25=1,30=1,71=2,74=-5,140=1/1,2,3;
 4//1;
 5/5=2,38=5,98=1/2;
 8/6=4,10=90,11=11/1;
 11/6=1,8=1,9=11,15=111,16=1/1,2,10;
 10/6=1/2;
 6/7=2,8=2,9=2,10=2,28=1/1;
 7/8=11,10=1,25=1/1,2,3,16;
 1/10=4,30=1/3;
 99//99;
 Leave Link    1 at Wed Dec  1 08:51:40 2021, MaxMem=   117964800 cpu:               0.0 elap:               0.1
 (Enter /gpfs1/apps/software/Gaussian16/AVX2/g16/l101.exe)
 ------------
 dvb_gopt.out
 ------------
 Symbolic Z-matrix:
 Charge =  0 Multiplicity = 1
 C                     0.26944   1.41012   0. 
 C                    -1.06479   0.92066   0. 
 C                    -1.32539  -0.45706   0. 
 C                    -0.26944  -1.41012   0. 
 C                     1.06479  -0.92066   0. 
 H                    -1.90447   1.62752   0. 
 H                    -2.36476  -0.81304   0. 
 H                     1.90447  -1.62752   0. 
 C                    -0.60369  -2.86996   0. 
 C                     0.26944  -3.89207   0. 
 H                     1.35518  -3.74231   0. 
 H                    -1.68186  -3.09015   0. 
 H                    -0.07425  -4.93303   0. 
 C                     0.60369   2.86996   0. 
 H                     1.68186   3.09015   0. 
 C                    -0.26944   3.89207   0. 
 H                    -1.35518   3.74231   0. 
 H                     0.07425   4.93303   0. 
 C                     1.32539   0.45706   0. 
 H                     2.36476   0.81304   0. 
 
 ITRead=  0  0  0  0  0  0  0  0  0  0  0  0  0  0  0  0  0  0  0  0
 MicOpt= -1 -1 -1 -1 -1 -1 -1 -1 -1 -1 -1 -1 -1 -1 -1 -1 -1 -1 -1 -1
 NAtoms=     20 NQM=       20 NQMF=       0 NMMI=      0 NMMIF=      0
                NMic=       0 NMicF=      0.
                    Isotopes and Nuclear Properties:
 (Nuclear quadrupole moments (NQMom) in fm**2, nuclear magnetic moments (NMagM)
  in nuclear magnetons)

  Atom         1           2           3           4           5           6           7           8           9          10
 IAtWgt=          12          12          12          12          12           1           1           1          12          12
 AtmWgt=  12.0000000  12.0000000  12.0000000  12.0000000  12.0000000   1.0078250   1.0078250   1.0078250  12.0000000  12.0000000
 NucSpn=           0           0           0           0           0           1           1           1           0           0
 AtZEff=   0.0000000   0.0000000   0.0000000   0.0000000   0.0000000   0.0000000   0.0000000   0.0000000   0.0000000   0.0000000
 NQMom=    0.0000000   0.0000000   0.0000000   0.0000000   0.0000000   0.0000000   0.0000000   0.0000000   0.0000000   0.0000000
 NMagM=    0.0000000   0.0000000   0.0000000   0.0000000   0.0000000   2.7928460   2.7928460   2.7928460   0.0000000   0.0000000
 AtZNuc=   6.0000000   6.0000000   6.0000000   6.0000000   6.0000000   1.0000000   1.0000000   1.0000000   6.0000000   6.0000000

  Atom        11          12          13          14          15          16          17          18          19          20
 IAtWgt=           1           1           1          12           1          12           1           1          12           1
 AtmWgt=   1.0078250   1.0078250   1.0078250  12.0000000   1.0078250  12.0000000   1.0078250   1.0078250  12.0000000   1.0078250
 NucSpn=           1           1           1           0           1           0           1           1           0           1
 AtZEff=   0.0000000   0.0000000   0.0000000   0.0000000   0.0000000   0.0000000   0.0000000   0.0000000   0.0000000   0.0000000
 NQMom=    0.0000000   0.0000000   0.0000000   0.0000000   0.0000000   0.0000000   0.0000000   0.0000000   0.0000000   0.0000000
 NMagM=    2.7928460   2.7928460   2.7928460   0.0000000   2.7928460   0.0000000   2.7928460   2.7928460   0.0000000   2.7928460
 AtZNuc=   1.0000000   1.0000000   1.0000000   6.0000000   1.0000000   6.0000000   1.0000000   1.0000000   6.0000000   1.0000000
 Leave Link  101 at Wed Dec  1 08:51:41 2021, MaxMem=   117964800 cpu:               0.2 elap:               0.3
 (Enter /gpfs1/apps/software/Gaussian16/AVX2/g16/l103.exe)

 GradGradGradGradGradGradGradGradGradGradGradGradGradGradGradGradGradGrad
 Berny optimization.
 Initialization pass.
 Trust Radius=3.00D-01 FncErr=1.00D-07 GrdErr=1.00D-07 EigMax=2.50D+02 EigMin=1.00D-04
 Number of steps in this run=      2 maximum allowed number of steps=      2.
 GradGradGradGradGradGradGradGradGradGradGradGradGradGradGradGradGradGrad

 Leave Link  103 at Wed Dec  1 08:51:44 2021, MaxMem=   117964800 cpu:               0.0 elap:               0.1
 (Enter /gpfs1/apps/software/Gaussian16/AVX2/g16/l202.exe)
                          Input orientation:                          
 ---------------------------------------------------------------------
 Center     Atomic      Atomic             Coordinates (Angstroms)
 Number     Number       Type             X           Y           Z
 ---------------------------------------------------------------------
      1          6           0        0.269440    1.410120    0.000000
      2          6           0       -1.064790    0.920660    0.000000
      3          6           0       -1.325390   -0.457060    0.000000
      4          6           0       -0.269440   -1.410120    0.000000
      5          6           0        1.064790   -0.920660    0.000000
      6          1           0       -1.904470    1.627520    0.000000
      7          1           0       -2.364760   -0.813040    0.000000
      8          1           0        1.904470   -1.627520    0.000000
      9          6           0       -0.603690   -2.869960    0.000000
     10          6           0        0.269440   -3.892070    0.000000
     11          1           0        1.355180   -3.742310    0.000000
     12          1           0       -1.681860   -3.090150    0.000000
     13          1           0       -0.074250   -4.933030    0.000000
     14          6           0        0.603690    2.869960    0.000000
     15          1           0        1.681860    3.090150    0.000000
     16          6           0       -0.269440    3.892070    0.000000
     17          1           0       -1.355180    3.742310    0.000000
     18          1           0        0.074250    4.933030    0.000000
     19          6           0        1.325390    0.457060    0.000000
     20          1           0        2.364760    0.813040    0.000000
 ---------------------------------------------------------------------
                    Distance matrix (angstroms):
                    1          2          3          4          5
     1  C    0.000000
     2  C    1.421176   0.000000
     3  C    2.455574   1.402150   0.000000
     4  C    2.871262   2.462746   1.422446   0.000000
     5  C    2.462746   2.815239   2.434725   1.421176   0.000000
     6  H    2.184753   1.097594   2.163517   3.449722   3.912765
     7  H    3.446948   2.166942   1.098641   2.178731   3.431238
     8  H    3.449722   3.912765   3.435400   2.184753   1.097594
     9  C    4.368231   3.818562   2.518519   1.497617   2.565852
    10  C    5.302190   4.994251   3.787186   2.539777   3.076013
    11  H    5.265583   5.253527   4.240085   2.842270   2.836553
    12  H    4.905100   4.058001   2.657110   2.194865   3.500110
    13  H    6.352454   5.936906   4.647543   3.528313   4.170914
    14  C    1.497617   2.565852   3.845830   4.368231   3.818562
    15  H    2.194865   3.500110   4.650403   4.905100   4.058001
    16  C    2.539777   3.076013   4.475485   5.302190   4.994251
    17  H    2.842270   2.836553   4.199476   5.265583   5.253527
    18  H    3.528313   4.170914   5.568847   6.352454   5.936906
    19  C    1.422446   2.434725   2.803970   2.455574   1.402150
    20  H    2.178731   3.431238   3.902610   3.446948   2.166942
                    6          7          8          9         10
     6  H    0.000000
     7  H    2.483586   0.000000
     8  H    5.010320   4.346229   0.000000
     9  C    4.681811   2.707820   2.799022   0.000000
    10  C    5.932264   4.052090   2.793118   1.344271   0.000000
    11  H    6.281751   4.734826   2.184961   2.144334   1.096020
    12  H    4.722919   2.377306   3.873119   1.100425   2.109656
    13  H    6.811059   4.713889   3.852496   2.129921   1.096230
    14  C    2.799022   4.730347   4.681811   5.865531   6.770286
    15  H    3.873119   5.622279   4.722919   6.383310   7.123646
    16  C    2.793118   5.150575   5.932264   6.770286   7.802770
    17  H    2.184961   4.665883   6.281751   6.654837   7.805328
    18  H    3.852496   6.242282   6.811059   7.832385   8.827258
    19  C    3.435400   3.902610   2.163517   3.845830   4.475485
    20  H    4.346229   5.001249   2.483586   4.730347   5.150575
                   11         12         13         14         15
    11  H    0.000000
    12  H    3.106272   0.000000
    13  H    1.860399   2.445530   0.000000
    14  C    6.654837   6.383310   7.832385   0.000000
    15  H    6.840265   7.036385   8.213120   1.100425   0.000000
    16  C    7.805328   7.123646   8.827258   1.344271   2.109656
    17  H    7.960250   6.840265   8.769396   2.144334   3.106272
    18  H    8.769396   8.213120   9.867178   2.129921   2.445530
    19  C    4.199476   4.650403   5.568847   2.518519   2.657110
    20  H    4.665883   5.622279   6.242282   2.707820   2.377306
                   16         17         18         19         20
    16  C    0.000000
    17  H    1.096020   0.000000
    18  H    1.096230   1.860399   0.000000
    19  C    3.787186   4.240085   4.647543   0.000000
    20  H    4.052090   4.734826   4.713889   1.098641   0.000000
 Stoichiometry    C10H10
 Framework group  C2H[SGH(C10H10)]
 Deg. of freedom    19
 Full point group                 C2H     NOp   4
 Largest Abelian subgroup         C2H     NOp   4
 Largest concise Abelian subgroup C2      NOp   2
                         Standard orientation:                         
 ---------------------------------------------------------------------
 Center     Atomic      Atomic             Coordinates (Angstroms)
 Number     Number       Type             X           Y           Z
 ---------------------------------------------------------------------
      1          6           0        0.269440   -1.410120    0.000000
      2          6           0       -1.064790   -0.920660    0.000000
      3          6           0       -1.325390    0.457060    0.000000
      4          6           0       -0.269440    1.410120    0.000000
      5          6           0        1.064790    0.920660    0.000000
      6          1           0       -1.904470   -1.627520    0.000000
      7          1           0       -2.364760    0.813040    0.000000
      8          1           0        1.904470    1.627520    0.000000
      9          6           0       -0.603690    2.869960    0.000000
     10          6           0        0.269440    3.892070    0.000000
     11          1           0        1.355180    3.742310    0.000000
     12          1           0       -1.681860    3.090150    0.000000
     13          1           0       -0.074250    4.933030    0.000000
     14          6           0        0.603690   -2.869960    0.000000
     15          1           0        1.681860   -3.090150    0.000000
     16          6           0       -0.269440   -3.892070    0.000000
     17          1           0       -1.355180   -3.742310    0.000000
     18          1           0        0.074250   -4.933030    0.000000
     19          6           0        1.325390   -0.457060    0.000000
     20          1           0        2.364760   -0.813040    0.000000
 ---------------------------------------------------------------------
 Rotational constants (GHZ):           4.6266245           0.6849064           0.5965897
 Leave Link  202 at Wed Dec  1 08:51:46 2021, MaxMem=   117964800 cpu:               0.0 elap:               0.1
 (Enter /gpfs1/apps/software/Gaussian16/AVX2/g16/l301.exe)
 Standard basis: STO-3G (5D, 7F)
 Ernie: Thresh=  0.10000D-02 Tol=  0.10000D-05 Strict=F.
 There are    25 symmetry adapted cartesian basis functions of AG  symmetry.
 There are     5 symmetry adapted cartesian basis functions of BG  symmetry.
 There are     5 symmetry adapted cartesian basis functions of AU  symmetry.
 There are    25 symmetry adapted cartesian basis functions of BU  symmetry.
 There are    25 symmetry adapted basis functions of AG  symmetry.
 There are     5 symmetry adapted basis functions of BG  symmetry.
 There are     5 symmetry adapted basis functions of AU  symmetry.
 There are    25 symmetry adapted basis functions of BU  symmetry.
    60 basis functions,   180 primitive gaussians,    60 cartesian basis functions
    35 alpha electrons       35 beta electrons
       nuclear repulsion energy       445.8950374883 Hartrees.
 IExCor=  402 DFT=T Ex+Corr=B3LYP ExCW=0 ScaHFX=  0.200000
 ScaDFX=  0.800000  0.720000  1.000000  0.810000 ScalE2=  1.000000  1.000000
 IRadAn=      5 IRanWt=     -1 IRanGd=            0 ICorTp=0 IEmpDi=  4
 NAtoms=   20 NActive=   20 NUniq=   10 SFac= 4.00D+00 NAtFMM=   60 NAOKFM=F Big=F
 Integral buffers will be    131072 words long.
 Raffenetti 2 integral format.
 Two-electron integral symmetry is turned on.
 Leave Link  301 at Wed Dec  1 08:51:47 2021, MaxMem=   117964800 cpu:               0.0 elap:               0.1
 (Enter /gpfs1/apps/software/Gaussian16/AVX2/g16/l302.exe)
 NPDir=0 NMtPBC=     1 NCelOv=     1 NCel=       1 NClECP=     1 NCelD=      1
         NCelK=      1 NCelE2=     1 NClLst=     1 CellRange=     0.0.
 One-electron integrals computed using PRISM.
 One-electron integral symmetry used in STVInt
 NBasis=    60 RedAO= T EigKep=  1.81D-01  NBF=    25     5     5    25
 NBsUse=    60 1.00D-06 EigRej= -1.00D+00 NBFU=    25     5     5    25
 Precomputing XC quadrature grid using
 IXCGrd= 4 IRadAn=           5 IRanWt=          -1 IRanGd=           0 AccXCQ= 0.00D+00.
 Generated NRdTot=       0 NPtTot=           0 NUsed=           0 NTot=          32
 NSgBfM=    59    59    59    59    59 MxSgAt=    20 MxSgA2=    20.
 Leave Link  302 at Wed Dec  1 08:51:48 2021, MaxMem=   117964800 cpu:               0.5 elap:               0.6
 (Enter /gpfs1/apps/software/Gaussian16/AVX2/g16/l303.exe)
 DipDrv:  MaxL=1.
 Leave Link  303 at Wed Dec  1 08:51:50 2021, MaxMem=   117964800 cpu:               0.0 elap:               0.1
 (Enter /gpfs1/apps/software/Gaussian16/AVX2/g16/l401.exe)
 ExpMin= 1.69D-01 ExpMax= 7.16D+01 ExpMxC= 7.16D+01 IAcc=3 IRadAn=         5 AccDes= 0.00D+00
 Harris functional with IExCor=  402 and IRadAn=       5 diagonalized for initial guess.
 HarFok:  IExCor=  402 AccDes= 0.00D+00 IRadAn=         5 IDoV= 1 UseB2=F ITyADJ=14
 ICtDFT=  3500011 ScaDFX=  1.000000  1.000000  1.000000  1.000000
 FoFCou: FMM=F IPFlag=           0 FMFlag=      100000 FMFlg1=           0
         NFxFlg=           0 DoJE=T BraDBF=F KetDBF=T FulRan=T
         wScrn=  0.000000 ICntrl=       500 IOpCl=  0 I1Cent=   200000004 NGrid=           0
         NMat0=    1 NMatS0=      1 NMatT0=    0 NMatD0=    1 NMtDS0=    0 NMtDT0=    0
 Petite list used in FoFCou.
 Harris En= -382.205679215344    
 JPrj=0 DoOrth=F DoCkMO=F.
 Initial guess orbital symmetries:
       Occupied  (BU) (AG) (BU) (AG) (BU) (AG) (BU) (AG) (BU) (AG)
                 (AG) (BU) (AG) (BU) (BU) (AG) (AG) (BU) (AG) (AG)
                 (BU) (BU) (AG) (BU) (BU) (BU) (AG) (AU) (BU) (AG)
                 (AG) (BG) (AU) (BG) (BG)
       Virtual   (AU) (AU) (BG) (AU) (BG) (AG) (BU) (BU) (AG) (AG)
                 (BU) (BU) (AG) (BU) (AG) (AG) (BU) (AG) (BU) (BU)
                 (AG) (AG) (BU) (AG) (BU)
 The electronic state of the initial guess is 1-AG.
 Leave Link  401 at Wed Dec  1 08:51:54 2021, MaxMem=   117964800 cpu:               0.8 elap:               1.1
 (Enter /gpfs1/apps/software/Gaussian16/AVX2/g16/l502.exe)
 Keep R1 ints in memory in symmetry-blocked form, NReq=2568018.
 FoFCou: FMM=F IPFlag=           0 FMFlag=           0 FMFlg1=           0
         NFxFlg=           0 DoJE=F BraDBF=F KetDBF=F FulRan=T
         wScrn=  0.000000 ICntrl=       600 IOpCl=  0 I1Cent=           0 NGrid=           0
         NMat0=    1 NMatS0=   1830 NMatT0=    0 NMatD0=    1 NMtDS0=    0 NMtDT0=    0
 Petite list used in FoFCou.
 Closed shell SCF:
 Using DIIS extrapolation, IDIIS=  1040.
 NGot=   117964800 LenX=   117444457 LenY=   117440416
 Requested convergence on RMS density matrix=1.00D-08 within 128 cycles.
 Requested convergence on MAX density matrix=1.00D-06.
 Requested convergence on             energy=1.00D-06.
 No special actions if energy rises.
 Integral accuracy reduced to 1.0D-05 until final iterations.

 Cycle   1  Pass 0  IDiag  1:
 E= -382.254547196419    
 DIIS: error= 1.76D-02 at cycle   1 NSaved=   1.
 NSaved= 1 IEnMin= 1 EnMin= -382.254547196419     IErMin= 1 ErrMin= 1.76D-02
 ErrMax= 1.76D-02  0.00D+00 EMaxC= 1.00D-01 BMatC= 3.90D-02 BMatP= 3.90D-02
 IDIUse=3 WtCom= 8.24D-01 WtEn= 1.76D-01
 Coeff-Com:  0.100D+01
 Coeff-En:   0.100D+01
 Coeff:      0.100D+01
 Gap=     0.191 Goal=   None    Shift=    0.000
 GapD=    0.191 DampG=1.000 DampE=0.500 DampFc=0.5000 IDamp=-1.
 Damping current iteration by 5.00D-01
 RMSDP=7.80D-03 MaxDP=9.48D-02              OVMax= 3.59D-02

 Cycle   2  Pass 0  IDiag  1:
 E= -382.283408898004     Delta-E=       -0.028861701585 Rises=F Damp=T
 DIIS: error= 5.39D-03 at cycle   2 NSaved=   2.
 NSaved= 2 IEnMin= 2 EnMin= -382.283408898004     IErMin= 2 ErrMin= 5.39D-03
 ErrMax= 5.39D-03  0.00D+00 EMaxC= 1.00D-01 BMatC= 3.09D-03 BMatP= 3.90D-02
 IDIUse=3 WtCom= 9.46D-01 WtEn= 5.39D-02
 Coeff-Com: -0.209D+00 0.121D+01
 Coeff-En:   0.000D+00 0.100D+01
 Coeff:     -0.197D+00 0.120D+01
 Gap=     0.191 Goal=   None    Shift=    0.000
 RMSDP=2.10D-03 MaxDP=3.89D-02 DE=-2.89D-02 OVMax= 5.09D-02

 Cycle   3  Pass 0  IDiag  1:
 E= -382.303675298673     Delta-E=       -0.020266400669 Rises=F Damp=F
 DIIS: error= 8.90D-03 at cycle   3 NSaved=   3.
 NSaved= 3 IEnMin= 3 EnMin= -382.303675298673     IErMin= 2 ErrMin= 5.39D-03
 ErrMax= 8.90D-03  0.00D+00 EMaxC= 1.00D-01 BMatC= 3.58D-03 BMatP= 3.09D-03
 IDIUse=3 WtCom= 9.58D-02 WtEn= 9.04D-01
 Coeff-Com: -0.172D+00 0.737D+00 0.435D+00
 Coeff-En:   0.000D+00 0.000D+00 0.100D+01
 Coeff:     -0.165D-01 0.707D-01 0.946D+00
 Gap=     0.190 Goal=   None    Shift=    0.000
 RMSDP=3.27D-03 MaxDP=8.00D-02 DE=-2.03D-02 OVMax= 6.31D-02

 Cycle   4  Pass 0  IDiag  1:
 E= -382.294749196441     Delta-E=        0.008926102231 Rises=F Damp=F
 DIIS: error= 1.58D-02 at cycle   4 NSaved=   4.
 NSaved= 4 IEnMin= 3 EnMin= -382.303675298673     IErMin= 2 ErrMin= 5.39D-03
 ErrMax= 1.58D-02  0.00D+00 EMaxC= 1.00D-01 BMatC= 1.06D-02 BMatP= 3.09D-03
 IDIUse=2 WtCom= 0.00D+00 WtEn= 1.00D+00
 Coeff-En:   0.000D+00 0.000D+00 0.702D+00 0.298D+00
 Coeff:      0.000D+00 0.000D+00 0.702D+00 0.298D+00
 Gap=     0.190 Goal=   None    Shift=    0.000
 RMSDP=1.64D-03 MaxDP=4.05D-02 DE= 8.93D-03 OVMax= 3.09D-02

 Cycle   5  Pass 0  IDiag  1:
 E= -382.307691500905     Delta-E=       -0.012942304463 Rises=F Damp=F
 DIIS: error= 3.17D-03 at cycle   5 NSaved=   5.
 NSaved= 5 IEnMin= 5 EnMin= -382.307691500905     IErMin= 5 ErrMin= 3.17D-03
 ErrMax= 3.17D-03  0.00D+00 EMaxC= 1.00D-01 BMatC= 4.52D-04 BMatP= 3.09D-03
 IDIUse=3 WtCom= 9.68D-01 WtEn= 3.17D-02
 Coeff-Com:  0.892D-02-0.190D-01 0.331D+00 0.744D-01 0.605D+00
 Coeff-En:   0.000D+00 0.000D+00 0.132D+00 0.000D+00 0.868D+00
 Coeff:      0.863D-02-0.184D-01 0.324D+00 0.720D-01 0.613D+00
 Gap=     0.190 Goal=   None    Shift=    0.000
 RMSDP=4.37D-04 MaxDP=1.03D-02 DE=-1.29D-02 OVMax= 7.84D-03

 Cycle   6  Pass 0  IDiag  1:
 E= -382.308266123412     Delta-E=       -0.000574622507 Rises=F Damp=F
 DIIS: error= 9.62D-05 at cycle   6 NSaved=   6.
 NSaved= 6 IEnMin= 6 EnMin= -382.308266123412     IErMin= 6 ErrMin= 9.62D-05
 ErrMax= 9.62D-05  0.00D+00 EMaxC= 1.00D-01 BMatC= 3.69D-07 BMatP= 4.52D-04
 IDIUse=1 WtCom= 1.00D+00 WtEn= 0.00D+00
 Coeff-Com:  0.194D-02-0.449D-02 0.784D-01 0.146D-01 0.177D+00 0.732D+00
 Coeff:      0.194D-02-0.449D-02 0.784D-01 0.146D-01 0.177D+00 0.732D+00
 Gap=     0.190 Goal=   None    Shift=    0.000
 RMSDP=1.26D-05 MaxDP=2.34D-04 DE=-5.75D-04 OVMax= 1.67D-04

 Cycle   7  Pass 0  IDiag  1:
 E= -382.308266564084     Delta-E=       -0.000000440672 Rises=F Damp=F
 DIIS: error= 1.02D-05 at cycle   7 NSaved=   7.
 NSaved= 7 IEnMin= 7 EnMin= -382.308266564084     IErMin= 7 ErrMin= 1.02D-05
 ErrMax= 1.02D-05  0.00D+00 EMaxC= 1.00D-01 BMatC= 7.10D-09 BMatP= 3.69D-07
 IDIUse=1 WtCom= 1.00D+00 WtEn= 0.00D+00
 Coeff-Com: -0.111D-03 0.118D-03-0.179D-02-0.154D-02 0.101D-01 0.299D+00
 Coeff-Com:  0.694D+00
 Coeff:     -0.111D-03 0.118D-03-0.179D-02-0.154D-02 0.101D-01 0.299D+00
 Coeff:      0.694D+00
 Gap=     0.190 Goal=   None    Shift=    0.000
 RMSDP=2.27D-06 MaxDP=2.25D-05 DE=-4.41D-07 OVMax= 1.47D-05

 Initial convergence to 1.0D-05 achieved.  Increase integral accuracy.
 Cycle   8  Pass 1  IDiag  1:
 E= -382.308266600705     Delta-E=       -0.000000036621 Rises=F Damp=F
 DIIS: error= 1.57D-06 at cycle   1 NSaved=   1.
 NSaved= 1 IEnMin= 1 EnMin= -382.308266600705     IErMin= 1 ErrMin= 1.57D-06
 ErrMax= 1.57D-06  0.00D+00 EMaxC= 1.00D-01 BMatC= 1.24D-10 BMatP= 1.24D-10
 IDIUse=1 WtCom= 1.00D+00 WtEn= 0.00D+00
 Coeff-Com:  0.100D+01
 Coeff:      0.100D+01
 Gap=     0.191 Goal=   None    Shift=    0.000
 RMSDP=2.27D-06 MaxDP=2.25D-05 DE=-3.66D-08 OVMax= 3.74D-07

 Cycle   9  Pass 1  IDiag  1:
 E= -382.308266600770     Delta-E=       -0.000000000064 Rises=F Damp=F
 DIIS: error= 1.41D-06 at cycle   2 NSaved=   2.
 NSaved= 2 IEnMin= 2 EnMin= -382.308266600770     IErMin= 2 ErrMin= 1.41D-06
 ErrMax= 1.41D-06  0.00D+00 EMaxC= 1.00D-01 BMatC= 1.16D-10 BMatP= 1.24D-10
 IDIUse=1 WtCom= 1.00D+00 WtEn= 0.00D+00
 Coeff-Com:  0.491D+00 0.509D+00
 Coeff:      0.491D+00 0.509D+00
 Gap=     0.191 Goal=   None    Shift=    0.000
 RMSDP=2.65D-07 MaxDP=4.17D-06 DE=-6.43D-11 OVMax= 3.31D-06

 Cycle  10  Pass 1  IDiag  1:
 E= -382.308266600904     Delta-E=       -0.000000000134 Rises=F Damp=F
 DIIS: error= 3.87D-07 at cycle   3 NSaved=   3.
 NSaved= 3 IEnMin= 3 EnMin= -382.308266600904     IErMin= 3 ErrMin= 3.87D-07
 ErrMax= 3.87D-07  0.00D+00 EMaxC= 1.00D-01 BMatC= 7.65D-12 BMatP= 1.16D-10
 IDIUse=1 WtCom= 1.00D+00 WtEn= 0.00D+00
 Coeff-Com:  0.473D-01 0.208D+00 0.745D+00
 Coeff:      0.473D-01 0.208D+00 0.745D+00
 Gap=     0.191 Goal=   None    Shift=    0.000
 RMSDP=8.18D-08 MaxDP=1.90D-06 DE=-1.34D-10 OVMax= 1.48D-06

 Cycle  11  Pass 1  IDiag  1:
 E= -382.308266600910     Delta-E=       -0.000000000007 Rises=F Damp=F
 DIIS: error= 2.51D-07 at cycle   4 NSaved=   4.
 NSaved= 4 IEnMin= 4 EnMin= -382.308266600910     IErMin= 4 ErrMin= 2.51D-07
 ErrMax= 2.51D-07  0.00D+00 EMaxC= 1.00D-01 BMatC= 2.52D-12 BMatP= 7.65D-12
 IDIUse=1 WtCom= 1.00D+00 WtEn= 0.00D+00
 Coeff-Com: -0.116D-01 0.905D-01 0.475D+00 0.446D+00
 Coeff:     -0.116D-01 0.905D-01 0.475D+00 0.446D+00
 Gap=     0.191 Goal=   None    Shift=    0.000
 RMSDP=3.55D-08 MaxDP=8.10D-07 DE=-6.71D-12 OVMax= 7.50D-07

 Cycle  12  Pass 1  IDiag  1:
 E= -382.308266600914     Delta-E=       -0.000000000003 Rises=F Damp=F
 DIIS: error= 3.58D-08 at cycle   5 NSaved=   5.
 NSaved= 5 IEnMin= 5 EnMin= -382.308266600914     IErMin= 5 ErrMin= 3.58D-08
 ErrMax= 3.58D-08  0.00D+00 EMaxC= 1.00D-01 BMatC= 6.10D-14 BMatP= 2.52D-12
 IDIUse=1 WtCom= 1.00D+00 WtEn= 0.00D+00
 Coeff-Com: -0.786D-02 0.337D-01 0.192D+00 0.222D+00 0.561D+00
 Coeff:     -0.786D-02 0.337D-01 0.192D+00 0.222D+00 0.561D+00
 Gap=     0.191 Goal=   None    Shift=    0.000
 RMSDP=5.83D-09 MaxDP=8.62D-08 DE=-3.41D-12 OVMax= 3.14D-08

 SCF Done:  E(RB3LYP) =  -382.308266601     A.U. after   12 cycles
            NFock= 12  Conv=0.58D-08     -V/T= 2.0172
 KE= 3.758472895590D+02 PE=-1.776406068502D+03 EE= 5.723554748537D+02
 Leave Link  502 at Wed Dec  1 08:52:00 2021, MaxMem=   117964800 cpu:               4.7 elap:               4.9
 (Enter /gpfs1/apps/software/Gaussian16/AVX2/g16/l801.exe)
 DoSCS=F DFT=T ScalE2(SS,OS)=  1.000000  1.000000
 Range of M.O.s used for correlation:     1    60
 NBasis=    60 NAE=    35 NBE=    35 NFC=     0 NFV=     0
 NROrb=     60 NOA=    35 NOB=    35 NVA=    25 NVB=    25
 Leave Link  801 at Wed Dec  1 08:52:02 2021, MaxMem=   117964800 cpu:               0.0 elap:               0.0
 (Enter /gpfs1/apps/software/Gaussian16/AVX2/g16/l1101.exe)
 Using compressed storage, NAtomX=    20.
 Will process     21 centers per pass.
 Leave Link 1101 at Wed Dec  1 08:52:06 2021, MaxMem=   117964800 cpu:               0.1 elap:               0.2
 (Enter /gpfs1/apps/software/Gaussian16/AVX2/g16/l1102.exe)
 Symmetrizing basis deriv contribution to polar:
 IMax=3 JMax=2 DiffMx= 0.00D+00
 Leave Link 1102 at Wed Dec  1 08:52:09 2021, MaxMem=   117964800 cpu:               0.0 elap:               0.0
 (Enter /gpfs1/apps/software/Gaussian16/AVX2/g16/l1110.exe)
 Forming Gx(P) for the SCF density, NAtomX=    20.
 Integral derivatives from FoFJK, PRISM(SPDF).
 Do as many integral derivatives as possible in FoFJK.
 G2DrvN: MDV=     117962644.
 G2DrvN: will do    21 centers at a time, making    1 passes.
 Calling FoFCou, ICntrl=  3107 FMM=F I1Cent=   0 AccDes= 0.00D+00.
 FoFJK:  IHMeth= 1 ICntrl=    3107 DoSepK=F KAlg= 0 I1Cent=           0 FoldK=F
 IRaf=         0 NMat=       1 IRICut=       1 DoRegI=T DoRafI=F ISym2E= 1 IDoP0=0 IntGTp=1.
 FoFCou: FMM=F IPFlag=           0 FMFlag=      100000 FMFlg1=           0
         NFxFlg=           0 DoJE=F BraDBF=F KetDBF=F FulRan=T
         wScrn=  0.000000 ICntrl=      3107 IOpCl=  0 I1Cent=           0 NGrid=           0
         NMat0=    1 NMatS0=      1 NMatT0=    0 NMatD0=    1 NMtDS0=    0 NMtDT0=    0
 Petite list used in FoFCou.
 End of G2Drv F.D. properties file   721 does not exist.
 End of G2Drv F.D. properties file   722 does not exist.
 End of G2Drv F.D. properties file   788 does not exist.
 Leave Link 1110 at Wed Dec  1 08:52:23 2021, MaxMem=   117964800 cpu:              10.9 elap:              11.0
 (Enter /gpfs1/apps/software/Gaussian16/AVX2/g16/l1002.exe)
 Minotr:  Closed shell wavefunction.
          IDoAtm=11111111111111111111
          Direct CPHF calculation.
          Differentiating once with respect to electric field.
                with respect to dipole field.
          Differentiating once with respect to nuclear coordinates.
          Using symmetry in CPHF.
          Requested convergence is 1.0D-08 RMS, and 1.0D-07 maximum.
          Secondary convergence is 1.0D-12 RMS, and 1.0D-12 maximum.
          NewPWx=T KeepS1=F KeepF1=F KeepIn=T MapXYZ=F SortEE=F KeepMc=T.
         5961 words used for storage of precomputed grid.
 Keep R1 ints in memory in symmetry-blocked form, NReq=2586832.
 FoFCou: FMM=F IPFlag=           0 FMFlag=           0 FMFlg1=           0
         NFxFlg=           0 DoJE=F BraDBF=F KetDBF=F FulRan=T
         wScrn=  0.000000 ICntrl=       600 IOpCl=  0 I1Cent=           0 NGrid=           0
         NMat0=    1 NMatS0=   1830 NMatT0=    0 NMatD0=    1 NMtDS0=    0 NMtDT0=    0
 Petite list used in FoFCou.
          MDV=     117964800 using IRadAn=       1.
          Solving linear equations simultaneously, MaxMat=       0.
          There are    33 degrees of freedom in the 1st order CPHF.  IDoFFX=4 NUNeed=    33.
     33 vectors produced by pass  0 Test12= 2.65D-15 3.03D-09 XBig12= 2.20D+02 1.32D+01.
 AX will form    33 AO Fock derivatives at one time.
     33 vectors produced by pass  1 Test12= 2.65D-15 3.03D-09 XBig12= 3.17D+01 1.87D+00.
     33 vectors produced by pass  2 Test12= 2.65D-15 3.03D-09 XBig12= 1.47D-01 1.08D-01.
     33 vectors produced by pass  3 Test12= 2.65D-15 3.03D-09 XBig12= 2.18D-04 2.63D-03.
     33 vectors produced by pass  4 Test12= 2.65D-15 3.03D-09 XBig12= 3.34D-07 9.30D-05.
     13 vectors produced by pass  5 Test12= 2.65D-15 3.03D-09 XBig12= 1.75D-10 2.22D-06.
      3 vectors produced by pass  6 Test12= 2.65D-15 3.03D-09 XBig12= 8.55D-14 4.14D-08.
 InvSVY:  IOpt=1 It=  1 EMax= 1.07D-14
 Solved reduced A of dimension   181 with    33 vectors.
 FullF1:  Do perturbations      1 to      33.
 Isotropic polarizability for W=    0.000000       74.20 Bohr**3.
 End of Minotr F.D. properties file   721 does not exist.
 End of Minotr F.D. properties file   722 does not exist.
 End of Minotr F.D. properties file   788 does not exist.
 Leave Link 1002 at Wed Dec  1 08:52:49 2021, MaxMem=   117964800 cpu:              20.4 elap:              21.3
 (Enter /gpfs1/apps/software/Gaussian16/AVX2/g16/l601.exe)
 Copying SCF densities to generalized density rwf, IOpCl= 0 IROHF=0.

 **********************************************************************

            Population analysis using the SCF Density.

 **********************************************************************

 Orbital symmetries:
       Occupied  (BU) (AG) (BU) (AG) (BU) (AG) (BU) (AG) (BU) (AG)
                 (AG) (BU) (AG) (BU) (BU) (AG) (AG) (BU) (AG) (AG)
                 (BU) (BU) (BU) (AG) (BU) (BU) (AG) (AU) (BU) (AG)
                 (AG) (BG) (AU) (BG) (BG)
       Virtual   (AU) (AU) (BG) (AU) (BG) (AG) (BU) (BU) (AG) (AG)
                 (BU) (BU) (AG) (BU) (AG) (AG) (BU) (AG) (BU) (BU)
                 (AG) (AG) (BU) (AG) (BU)
 The electronic state is 1-AG.
 Alpha  occ. eigenvalues --  -10.02022 -10.02017 -10.00811 -10.00811 -10.00679
 Alpha  occ. eigenvalues --  -10.00678 -10.00605 -10.00591  -9.99233  -9.99233
 Alpha  occ. eigenvalues --   -0.80951  -0.75398  -0.71797  -0.69979  -0.66751
 Alpha  occ. eigenvalues --   -0.58869  -0.55892  -0.53166  -0.51018  -0.45744
 Alpha  occ. eigenvalues --   -0.43936  -0.41061  -0.39795  -0.39607  -0.37397
 Alpha  occ. eigenvalues --   -0.35115  -0.34729  -0.32451  -0.31125  -0.29279
 Alpha  occ. eigenvalues --   -0.28745  -0.26354  -0.21245  -0.19505  -0.15308
 Alpha virt. eigenvalues --    0.03742   0.09037   0.11061   0.18220   0.27253
 Alpha virt. eigenvalues --    0.33223   0.34074   0.37937   0.38145   0.41096
 Alpha virt. eigenvalues --    0.41196   0.42674   0.43962   0.45274   0.47826
 Alpha virt. eigenvalues --    0.52626   0.54580   0.57601   0.59946   0.62499
 Alpha virt. eigenvalues --    0.63968   0.68283   0.71722   0.77955   0.79458
          Condensed to atoms (all electrons):
               1          2          3          4          5          6
     1  C    4.778686   0.488313  -0.027151  -0.009775  -0.026978  -0.024564
     2  C    0.488313   4.810697   0.508964  -0.026978  -0.010504   0.387887
     3  C   -0.027151   0.508964   4.815052   0.488802  -0.030714  -0.025273
     4  C   -0.009775  -0.026978   0.488802   4.778686   0.488313   0.001331
     5  C   -0.026978  -0.010504  -0.030714   0.488313   4.810697   0.000032
     6  H   -0.024564   0.387887  -0.025273   0.001331   0.000032   0.586974
     7  H    0.001335  -0.025216   0.387929  -0.025299   0.001342  -0.003828
     8  H    0.001331   0.000032   0.001347  -0.024564   0.387887   0.000002
     9  C    0.000016   0.000818  -0.028764   0.411854  -0.024068  -0.000015
    10  C    0.000000  -0.000007   0.000680  -0.023790  -0.003966   0.000000
    11  H    0.000000   0.000000   0.000012  -0.003531  -0.000562   0.000000
    12  H   -0.000001   0.000022  -0.003961  -0.026065   0.001086  -0.000002
    13  H    0.000000   0.000000  -0.000016   0.001320   0.000018   0.000000
    14  C    0.411854  -0.024068   0.000749   0.000016   0.000818  -0.003039
    15  H   -0.026065   0.001086  -0.000017  -0.000001   0.000022   0.000019
    16  C   -0.023790  -0.003966   0.000015   0.000000  -0.000007  -0.000606
    17  H   -0.003531  -0.000562  -0.000012   0.000000   0.000000   0.000562
    18  H    0.001320   0.000018   0.000000   0.000000   0.000000  -0.000017
    19  C    0.488802  -0.030714  -0.011069  -0.027151   0.508964   0.001347
    20  H   -0.025299   0.001342   0.000039   0.001335  -0.025216  -0.000034
               7          8          9         10         11         12
     1  C    0.001335   0.001331   0.000016   0.000000   0.000000  -0.000001
     2  C   -0.025216   0.000032   0.000818  -0.000007   0.000000   0.000022
     3  C    0.387929   0.001347  -0.028764   0.000680   0.000012  -0.003961
     4  C   -0.025299  -0.024564   0.411854  -0.023790  -0.003531  -0.026065
     5  C    0.001342   0.387887  -0.024068  -0.003966  -0.000562   0.001086
     6  H   -0.003828   0.000002  -0.000015   0.000000   0.000000  -0.000002
     7  H    0.588887  -0.000034  -0.003902   0.000029   0.000001   0.001033
     8  H   -0.000034   0.586974  -0.003039  -0.000606   0.000562   0.000019
     9  C   -0.003902  -0.003039   4.798265   0.586090  -0.023812   0.386251
    10  C    0.000029  -0.000606   0.586090   4.849821   0.385944  -0.027666
    11  H    0.000001   0.000562  -0.023812   0.385944   0.586752   0.002044
    12  H    0.001033   0.000019   0.386251  -0.027666   0.002044   0.595463
    13  H   -0.000002  -0.000017  -0.024048   0.388265  -0.023726  -0.005093
    14  C   -0.000014  -0.000015   0.000000   0.000000   0.000000   0.000000
    15  H    0.000000  -0.000002   0.000000   0.000000   0.000000   0.000000
    16  C    0.000000   0.000000   0.000000   0.000000   0.000000   0.000000
    17  H    0.000002   0.000000   0.000000   0.000000   0.000000   0.000000
    18  H    0.000000   0.000000   0.000000   0.000000   0.000000   0.000000
    19  C    0.000039  -0.025273   0.000749   0.000015  -0.000012  -0.000017
    20  H    0.000002  -0.003828  -0.000014   0.000000   0.000002   0.000000
              13         14         15         16         17         18
     1  C    0.000000   0.411854  -0.026065  -0.023790  -0.003531   0.001320
     2  C    0.000000  -0.024068   0.001086  -0.003966  -0.000562   0.000018
     3  C   -0.000016   0.000749  -0.000017   0.000015  -0.000012   0.000000
     4  C    0.001320   0.000016  -0.000001   0.000000   0.000000   0.000000
     5  C    0.000018   0.000818   0.000022  -0.000007   0.000000   0.000000
     6  H    0.000000  -0.003039   0.000019  -0.000606   0.000562  -0.000017
     7  H   -0.000002  -0.000014   0.000000   0.000000   0.000002   0.000000
     8  H   -0.000017  -0.000015  -0.000002   0.000000   0.000000   0.000000
     9  C   -0.024048   0.000000   0.000000   0.000000   0.000000   0.000000
    10  C    0.388265   0.000000   0.000000   0.000000   0.000000   0.000000
    11  H   -0.023726   0.000000   0.000000   0.000000   0.000000   0.000000
    12  H   -0.005093   0.000000   0.000000   0.000000   0.000000   0.000000
    13  H    0.583955   0.000000   0.000000   0.000000   0.000000   0.000000
    14  C    0.000000   4.798265   0.386251   0.586090  -0.023812  -0.024048
    15  H    0.000000   0.386251   0.595463  -0.027666   0.002044  -0.005093
    16  C    0.000000   0.586090  -0.027666   4.849821   0.385944   0.388265
    17  H    0.000000  -0.023812   0.002044   0.385944   0.586752  -0.023726
    18  H    0.000000  -0.024048  -0.005093   0.388265  -0.023726   0.583955
    19  C    0.000000  -0.028764  -0.003961   0.000680   0.000012  -0.000016
    20  H    0.000000  -0.003902   0.001033   0.000029   0.000001  -0.000002
              19         20
     1  C    0.488802  -0.025299
     2  C   -0.030714   0.001342
     3  C   -0.011069   0.000039
     4  C   -0.027151   0.001335
     5  C    0.508964  -0.025216
     6  H    0.001347  -0.000034
     7  H    0.000039   0.000002
     8  H   -0.025273  -0.003828
     9  C    0.000749  -0.000014
    10  C    0.000015   0.000000
    11  H   -0.000012   0.000002
    12  H   -0.000017   0.000000
    13  H    0.000000   0.000000
    14  C   -0.028764  -0.003902
    15  H   -0.003961   0.001033
    16  C    0.000680   0.000029
    17  H    0.000012   0.000001
    18  H   -0.000016  -0.000002
    19  C    4.815052   0.387929
    20  H    0.387929   0.588887
 Mulliken charges:
               1
     1  C   -0.004503
     2  C   -0.077165
     3  C   -0.076614
     4  C   -0.004503
     5  C   -0.077165
     6  H    0.079224
     7  H    0.077694
     8  H    0.079224
     9  C   -0.076381
    10  C   -0.154810
    11  H    0.076326
    12  H    0.076885
    13  H    0.079343
    14  C   -0.076381
    15  H    0.076885
    16  C   -0.154810
    17  H    0.076326
    18  H    0.079343
    19  C   -0.076614
    20  H    0.077694
 Sum of Mulliken charges =   0.00000
 Mulliken charges with hydrogens summed into heavy atoms:
               1
     1  C   -0.004503
     2  C    0.002059
     3  C    0.001080
     4  C   -0.004503
     5  C    0.002059
     9  C    0.000504
    10  C    0.000859
    14  C    0.000504
    16  C    0.000859
    19  C    0.001080
 APT charges:
               1
     1  C    0.021511
     2  C   -0.079658
     3  C   -0.083042
     4  C    0.021511
     5  C   -0.079658
     6  H    0.058846
     7  H    0.057857
     8  H    0.058846
     9  C    0.038348
    10  C   -0.167010
    11  H    0.050746
    12  H    0.023511
    13  H    0.078892
    14  C    0.038348
    15  H    0.023511
    16  C   -0.167010
    17  H    0.050746
    18  H    0.078892
    19  C   -0.083042
    20  H    0.057857
 Sum of APT charges =   0.00000
 APT charges with hydrogens summed into heavy atoms:
               1
     1  C    0.021511
     2  C   -0.020812
     3  C   -0.025185
     4  C    0.021511
     5  C   -0.020812
     9  C    0.061859
    10  C   -0.037372
    14  C    0.061859
    16  C   -0.037372
    19  C   -0.025185
 Electronic spatial extent (au):  <R**2>=           1861.7949
 Charge=              0.0000 electrons
 Dipole moment (field-independent basis, Debye):
    X=              0.0000    Y=              0.0000    Z=              0.0000  Tot=              0.0000
 Quadrupole moment (field-independent basis, Debye-Ang):
   XX=            -50.2214   YY=            -50.7162   ZZ=            -58.6254
   XY=             -0.0592   XZ=              0.0000   YZ=              0.0000
 Traceless Quadrupole moment (field-independent basis, Debye-Ang):
   XX=              2.9663   YY=              2.4714   ZZ=             -5.4377
   XY=             -0.0592   XZ=              0.0000   YZ=              0.0000
 Octapole moment (field-independent basis, Debye-Ang**2):
  XXX=              0.0000  YYY=              0.0000  ZZZ=              0.0000  XYY=              0.0000
  XXY=              0.0000  XXZ=              0.0000  XZZ=              0.0000  YZZ=              0.0000
  YYZ=              0.0000  XYZ=              0.0000
 Hexadecapole moment (field-independent basis, Debye-Ang**3):
 XXXX=           -330.0845 YYYY=          -1862.0820 ZZZZ=            -47.6115 XXXY=             13.8284
 XXXZ=              0.0000 YYYX=              8.0698 YYYZ=              0.0000 ZZZX=              0.0000
 ZZZY=              0.0000 XXYY=           -367.7293 XXZZ=            -72.2577 YYZZ=           -367.5501
 XXYZ=              0.0000 YYXZ=              0.0000 ZZXY=              5.8275
 N-N= 4.458950374883D+02 E-N=-1.776406068834D+03  KE= 3.758472895590D+02
 Symmetry AG   KE= 1.814054515912D+02
 Symmetry BG   KE= 7.823288687975D+00
 Symmetry AU   KE= 4.696944858730D+00
 Symmetry BU   KE= 1.819216044211D+02
  Exact polarizability:      68.238       6.777     143.018       0.000       0.000      11.343
 Approx polarizability:     124.064      22.163     223.863       0.000       0.000      13.774
 No NMR shielding tensors so no spin-rotation constants.
 Leave Link  601 at Wed Dec  1 08:52:51 2021, MaxMem=   117964800 cpu:               0.1 elap:               0.1
 (Enter /gpfs1/apps/software/Gaussian16/AVX2/g16/l701.exe)
 ... and contract with generalized density number  0.
 Compute integral second derivatives.
 Leave Link  701 at Wed Dec  1 08:52:53 2021, MaxMem=   117964800 cpu:               0.1 elap:               0.1
 (Enter /gpfs1/apps/software/Gaussian16/AVX2/g16/l702.exe)
 L702 exits ... SP integral derivatives will be done elsewhere.
 Leave Link  702 at Wed Dec  1 08:52:55 2021, MaxMem=   117964800 cpu:               0.0 elap:               0.2
 (Enter /gpfs1/apps/software/Gaussian16/AVX2/g16/l703.exe)
 Integral derivatives from FoFJK, PRISM(SPDF).
 Compute integral second derivatives, UseDBF=F ICtDFT=           0.
 Calling FoFJK, ICntrl=    100127 FMM=F ISym2X=1 I1Cent= 0 IOpClX= 0 NMat=1 NMatS=1 NMatT=0.
 FoFJK:  IHMeth= 1 ICntrl=  100127 DoSepK=F KAlg= 0 I1Cent=           0 FoldK=F
 IRaf=         0 NMat=       1 IRICut=       1 DoRegI=T DoRafI=F ISym2E= 1 IDoP0=0 IntGTp=1.
 FoFCou: FMM=F IPFlag=           0 FMFlag=      100000 FMFlg1=         800
         NFxFlg=           0 DoJE=F BraDBF=F KetDBF=F FulRan=T
         wScrn=  0.000000 ICntrl=    100127 IOpCl=  0 I1Cent=           0 NGrid=           0
         NMat0=    1 NMatS0=      1 NMatT0=    0 NMatD0=    1 NMtDS0=    0 NMtDT0=    0
 Petite list used in FoFCou.
 Leave Link  703 at Wed Dec  1 08:53:09 2021, MaxMem=   117964800 cpu:              13.2 elap:              13.3
 (Enter /gpfs1/apps/software/Gaussian16/AVX2/g16/l716.exe)
 Dipole        =-3.65519139D-15 1.26463967D-14-2.08656272D-33
 Polarizability= 6.82380369D+01 6.77727406D+00 1.43018319D+02
                -1.70518068D-31-3.80445040D-30 1.13433757D+01
 Full mass-weighted force constant matrix:
 Low frequencies ---   -3.8778   -2.1849   -1.2477   -0.0005    0.0004    0.0005
 Low frequencies ---   53.2048   84.7676  149.4365
 Diagonal vibrational polarizability:
        0.2939843       1.4968056       3.7157581
 Harmonic frequencies (cm**-1), IR intensities (KM/Mole), Raman scattering
 activities (A**4/AMU), depolarization ratios for plane and unpolarized
 incident light, reduced masses (AMU), force constants (mDyne/A),
 and normal coordinates:
                           1         2         3         4         5
                          AU        BG        AU        BU        AG
       Frequencies ---    53.2048   84.7674  149.4365  179.3430  263.3765
    Reduced masses ---     3.2273    2.4840    2.0821    3.3849    3.2245
   Force constants ---     0.0054    0.0105    0.0274    0.0641    0.1318
    IR Intensities ---     0.0342    0.0000    0.3729    0.2687    0.0000
 Coord Atom Element:
   1     1     6          0.00000   0.00000   0.00000  -0.10483  -0.11960
   2     1     6          0.00000   0.00000   0.00000   0.01698  -0.04618
   3     1     6         -0.08076   0.08511  -0.02965   0.00000   0.00000
   1     2     6          0.00000   0.00000   0.00000  -0.11228  -0.08245
   2     2     6          0.00000   0.00000   0.00000   0.00947   0.06536
   3     2     6         -0.09731   0.13200  -0.09338   0.00000   0.00000
   1     3     6          0.00000   0.00000   0.00000  -0.11443   0.06146
   2     3     6          0.00000   0.00000   0.00000   0.02251   0.10074
   3     3     6         -0.10446   0.04180  -0.08005   0.00000   0.00000
   1     4     6          0.00000   0.00000   0.00000  -0.10483   0.11960
   2     4     6          0.00000   0.00000   0.00000   0.01698   0.04618
   3     4     6         -0.08076  -0.08511  -0.02965   0.00000   0.00000
   1     5     6          0.00000   0.00000   0.00000  -0.11228   0.08245
   2     5     6          0.00000   0.00000   0.00000   0.00947  -0.06536
   3     5     6         -0.09731  -0.13200  -0.09338   0.00000   0.00000
   1     6     1          0.00000   0.00000   0.00000  -0.10958  -0.15184
   2     6     1          0.00000   0.00000   0.00000   0.00281   0.14317
   3     6     1         -0.10430   0.24781  -0.08135   0.00000   0.00000
   1     7     1          0.00000   0.00000   0.00000  -0.11525   0.09140
   2     7     1          0.00000   0.00000   0.00000   0.02283   0.18903
   3     7     1         -0.11252   0.08328  -0.06073   0.00000   0.00000
   1     8     1          0.00000   0.00000   0.00000  -0.10958   0.15184
   2     8     1          0.00000   0.00000   0.00000   0.00281  -0.14317
   3     8     1         -0.10430  -0.24781  -0.08135   0.00000   0.00000
   1     9     6          0.00000   0.00000   0.00000   0.05455   0.05382
   2     9     6          0.00000   0.00000   0.00000   0.05419   0.04364
   3     9     6         -0.02046  -0.13869   0.18124   0.00000   0.00000
   1    10     6          0.00000   0.00000   0.00000   0.23514  -0.12440
   2    10     6          0.00000   0.00000   0.00000  -0.09668   0.19779
   3    10     6          0.27136   0.14662   0.00287   0.00000   0.00000
   1    11     1          0.00000   0.00000   0.00000   0.20778  -0.09367
   2    11     1          0.00000   0.00000   0.00000  -0.28879   0.40727
   3    11     1          0.48779   0.44536  -0.35830   0.00000   0.00000
   1    12     1          0.00000   0.00000   0.00000   0.08854   0.02622
   2    12     1          0.00000   0.00000   0.00000   0.21985  -0.08657
   3    12     1         -0.20416  -0.39563   0.51925   0.00000   0.00000
   1    13     1          0.00000   0.00000   0.00000   0.42682  -0.33450
   2    13     1          0.00000   0.00000   0.00000  -0.03369   0.12967
   3    13     1          0.30966   0.09821   0.20697   0.00000   0.00000
   1    14     6          0.00000   0.00000   0.00000   0.05455  -0.05382
   2    14     6          0.00000   0.00000   0.00000   0.05419  -0.04364
   3    14     6         -0.02046   0.13869   0.18124   0.00000   0.00000
   1    15     1          0.00000   0.00000   0.00000   0.08854  -0.02622
   2    15     1          0.00000   0.00000   0.00000   0.21985   0.08657
   3    15     1         -0.20416   0.39563   0.51925   0.00000   0.00000
   1    16     6          0.00000   0.00000   0.00000   0.23514   0.12440
   2    16     6          0.00000   0.00000   0.00000  -0.09668  -0.19779
   3    16     6          0.27136  -0.14662   0.00287   0.00000   0.00000
   1    17     1          0.00000   0.00000   0.00000   0.20778   0.09367
   2    17     1          0.00000   0.00000   0.00000  -0.28879  -0.40727
   3    17     1          0.48779  -0.44536  -0.35830   0.00000   0.00000
   1    18     1          0.00000   0.00000   0.00000   0.42682   0.33450
   2    18     1          0.00000   0.00000   0.00000  -0.03369  -0.12967
   3    18     1          0.30966  -0.09821   0.20697   0.00000   0.00000
   1    19     6          0.00000   0.00000   0.00000  -0.11443  -0.06146
   2    19     6          0.00000   0.00000   0.00000   0.02251  -0.10074
   3    19     6         -0.10446  -0.04180  -0.08005   0.00000   0.00000
   1    20     1          0.00000   0.00000   0.00000  -0.11525  -0.09140
   2    20     1          0.00000   0.00000   0.00000   0.02283  -0.18903
   3    20     1         -0.11252  -0.08328  -0.06073   0.00000   0.00000
                           6         7         8         9        10
                          BG        AG        AU        AU        BU
       Frequencies ---   298.4284  407.5764  424.1441  467.7605  486.7092
    Reduced masses ---     2.3482    4.7967    3.0367    2.2517    3.2428
   Force constants ---     0.1232    0.4695    0.3219    0.2903    0.4526
    IR Intensities ---     0.0000    0.0000    0.1002    5.8053    1.8994
 Coord Atom Element:
   1     1     6          0.00000   0.13957   0.00000   0.00000  -0.04027
   2     1     6          0.00000  -0.13011   0.00000   0.00000  -0.06078
   3     1     6          0.18191   0.00000  -0.01861   0.19749   0.00000
   1     2     6          0.00000   0.15541   0.00000   0.00000  -0.07489
   2     2     6          0.00000  -0.06037   0.00000   0.00000  -0.10446
   3     2     6          0.09843   0.00000   0.21791  -0.06117   0.00000
   1     3     6          0.00000  -0.00455   0.00000   0.00000  -0.07337
   2     3     6          0.00000  -0.05238   0.00000   0.00000  -0.08782
   3     3     6         -0.11949   0.00000  -0.21079  -0.09321   0.00000
   1     4     6          0.00000  -0.13957   0.00000   0.00000  -0.04027
   2     4     6          0.00000   0.13011   0.00000   0.00000  -0.06078
   3     4     6         -0.18191   0.00000  -0.01861   0.19749   0.00000
   1     5     6          0.00000  -0.15541   0.00000   0.00000  -0.07489
   2     5     6          0.00000   0.06037   0.00000   0.00000  -0.10446
   3     5     6         -0.09843   0.00000   0.21791  -0.06117   0.00000
   1     6     1          0.00000   0.16087   0.00000   0.00000  -0.07681
   2     6     1          0.00000  -0.06936   0.00000   0.00000  -0.10263
   3     6     1          0.12766   0.00000   0.48813  -0.28449   0.00000
   1     7     1          0.00000  -0.07698   0.00000   0.00000  -0.08055
   2     7     1          0.00000  -0.25447   0.00000   0.00000  -0.09964
   3     7     1         -0.18218   0.00000  -0.40542  -0.33887   0.00000
   1     8     1          0.00000  -0.16087   0.00000   0.00000  -0.07681
   2     8     1          0.00000   0.06936   0.00000   0.00000  -0.10263
   3     8     1         -0.12766   0.00000   0.48813  -0.28449   0.00000
   1     9     6          0.00000  -0.00020   0.00000   0.00000   0.17484
   2     9     6          0.00000   0.24192   0.00000   0.00000   0.02981
   3     9     6          0.05364   0.00000   0.00461   0.06609   0.00000
   1    10     6          0.00000   0.08096   0.00000   0.00000   0.02794
   2    10     6          0.00000   0.20074   0.00000   0.00000   0.18571
   3    10     6          0.03213   0.00000  -0.00160  -0.02797   0.00000
   1    11     1          0.00000   0.07561   0.00000   0.00000   0.07378
   2    11     1          0.00000   0.14800   0.00000   0.00000   0.49701
   3    11     1         -0.31834   0.00000  -0.05039   0.24333   0.00000
   1    12     1          0.00000   0.01905   0.00000   0.00000   0.17733
   2    12     1          0.00000   0.35718   0.00000   0.00000   0.05897
   3    12     1          0.39741   0.00000   0.02471  -0.20424   0.00000
   1    13     1          0.00000   0.14312   0.00000   0.00000  -0.26342
   2    13     1          0.00000   0.22414   0.00000   0.00000   0.09336
   3    13     1          0.36093   0.00000   0.04394  -0.38305   0.00000
   1    14     6          0.00000   0.00020   0.00000   0.00000   0.17484
   2    14     6          0.00000  -0.24192   0.00000   0.00000   0.02981
   3    14     6         -0.05364   0.00000   0.00461   0.06609   0.00000
   1    15     1          0.00000  -0.01905   0.00000   0.00000   0.17733
   2    15     1          0.00000  -0.35718   0.00000   0.00000   0.05897
   3    15     1         -0.39741   0.00000   0.02471  -0.20424   0.00000
   1    16     6          0.00000  -0.08096   0.00000   0.00000   0.02794
   2    16     6          0.00000  -0.20074   0.00000   0.00000   0.18571
   3    16     6         -0.03213   0.00000  -0.00160  -0.02797   0.00000
   1    17     1          0.00000  -0.07561   0.00000   0.00000   0.07378
   2    17     1          0.00000  -0.14800   0.00000   0.00000   0.49701
   3    17     1          0.31834   0.00000  -0.05039   0.24333   0.00000
   1    18     1          0.00000  -0.14312   0.00000   0.00000  -0.26342
   2    18     1          0.00000  -0.22414   0.00000   0.00000   0.09336
   3    18     1         -0.36093   0.00000   0.04394  -0.38305   0.00000
   1    19     6          0.00000   0.00455   0.00000   0.00000  -0.07337
   2    19     6          0.00000   0.05238   0.00000   0.00000  -0.08782
   3    19     6          0.11949   0.00000  -0.21079  -0.09321   0.00000
   1    20     1          0.00000   0.07698   0.00000   0.00000  -0.08055
   2    20     1          0.00000   0.25447   0.00000   0.00000  -0.09964
   3    20     1          0.18218   0.00000  -0.40542  -0.33887   0.00000
                          11        12        13        14        15
                          AG        BG        AG        AU        BU
       Frequencies ---   578.5324  656.3373  673.6041  706.3772  735.1556
    Reduced masses ---     2.8270    2.0740    6.9110    1.4888    3.1842
   Force constants ---     0.5575    0.5264    1.8476    0.4377    1.0139
    IR Intensities ---     0.0000    0.0000    0.0000    0.4348    4.3447
 Coord Atom Element:
   1     1     6          0.06109   0.00000   0.10589   0.00000  -0.00293
   2     1     6          0.11790   0.00000   0.00211   0.00000   0.01786
   3     1     6          0.00000   0.03765   0.00000   0.08566   0.00000
   1     2     6          0.02387   0.00000   0.15539   0.00000   0.02805
   2     2     6         -0.02144   0.00000   0.32628   0.00000  -0.13075
   3     2     6          0.00000  -0.11369   0.00000   0.01989   0.00000
   1     3     6         -0.13172   0.00000  -0.23930   0.00000   0.07144
   2     3     6         -0.06757   0.00000   0.25344   0.00000  -0.13253
   3     3     6          0.00000   0.11844   0.00000   0.01570   0.00000
   1     4     6         -0.06109   0.00000  -0.10589   0.00000  -0.00293
   2     4     6         -0.11790   0.00000  -0.00211   0.00000   0.01786
   3     4     6          0.00000  -0.03765   0.00000   0.08566   0.00000
   1     5     6         -0.02387   0.00000  -0.15539   0.00000   0.02805
   2     5     6          0.02144   0.00000  -0.32628   0.00000  -0.13075
   3     5     6          0.00000   0.11369   0.00000   0.01989   0.00000
   1     6     1          0.16086   0.00000   0.21640   0.00000   0.08946
   2     6     1         -0.18204   0.00000   0.25507   0.00000  -0.19764
   3     6     1          0.00000  -0.19212   0.00000  -0.30658   0.00000
   1     7     1         -0.14057   0.00000  -0.27873   0.00000   0.04001
   2     7     1         -0.08998   0.00000   0.14276   0.00000  -0.22323
   3     7     1          0.00000   0.16215   0.00000  -0.31282   0.00000
   1     8     1         -0.16086   0.00000  -0.21640   0.00000   0.08946
   2     8     1          0.18204   0.00000  -0.25507   0.00000  -0.19764
   3     8     1          0.00000   0.19212   0.00000  -0.30658   0.00000
   1     9     6          0.17399   0.00000  -0.05494   0.00000  -0.13274
   2     9     6         -0.08961   0.00000   0.00973   0.00000   0.17960
   3     9     6          0.00000  -0.13994   0.00000  -0.11668   0.00000
   1    10     6          0.02062   0.00000  -0.03935   0.00000   0.00947
   2    10     6          0.05868   0.00000  -0.02317   0.00000   0.09032
   3    10     6          0.00000   0.02328   0.00000   0.01693   0.00000
   1    11     1          0.07243   0.00000  -0.05246   0.00000  -0.03676
   2    11     1          0.42780   0.00000  -0.11904   0.00000  -0.26536
   3    11     1          0.00000  -0.29790   0.00000  -0.25281   0.00000
   1    12     1          0.18293   0.00000  -0.05718   0.00000  -0.13956
   2    12     1         -0.04455   0.00000  -0.00129   0.00000   0.18381
   3    12     1          0.00000   0.18679   0.00000   0.18081   0.00000
   1    13     1         -0.32237   0.00000   0.03646   0.00000   0.36486
   2    13     1         -0.05244   0.00000   0.00101   0.00000   0.21061
   3    13     1          0.00000   0.51446   0.00000   0.43551   0.00000
   1    14     6         -0.17399   0.00000   0.05494   0.00000  -0.13274
   2    14     6          0.08961   0.00000  -0.00973   0.00000   0.17960
   3    14     6          0.00000   0.13994   0.00000  -0.11668   0.00000
   1    15     1         -0.18293   0.00000   0.05718   0.00000  -0.13956
   2    15     1          0.04455   0.00000   0.00129   0.00000   0.18381
   3    15     1          0.00000  -0.18679   0.00000   0.18081   0.00000
   1    16     6         -0.02062   0.00000   0.03935   0.00000   0.00947
   2    16     6         -0.05868   0.00000   0.02317   0.00000   0.09032
   3    16     6          0.00000  -0.02328   0.00000   0.01693   0.00000
   1    17     1         -0.07243   0.00000   0.05246   0.00000  -0.03676
   2    17     1         -0.42780   0.00000   0.11904   0.00000  -0.26536
   3    17     1          0.00000   0.29790   0.00000  -0.25281   0.00000
   1    18     1          0.32237   0.00000  -0.03646   0.00000   0.36486
   2    18     1          0.05244   0.00000  -0.00101   0.00000   0.21061
   3    18     1          0.00000  -0.51446   0.00000   0.43551   0.00000
   1    19     6          0.13172   0.00000   0.23930   0.00000   0.07144
   2    19     6          0.06757   0.00000  -0.25344   0.00000  -0.13253
   3    19     6          0.00000  -0.11844   0.00000   0.01570   0.00000
   1    20     1          0.14057   0.00000   0.27873   0.00000   0.04001
   2    20     1          0.08998   0.00000  -0.14276   0.00000  -0.22323
   3    20     1          0.00000  -0.16215   0.00000  -0.31282   0.00000
                          16        17        18        19        20
                          BG        AG        BG        AU        BG
       Frequencies ---   810.2018  862.7006  895.2585  897.2808  980.4221
    Reduced masses ---     3.3323    4.4427    1.2563    1.6958    1.3644
   Force constants ---     1.2888    1.9481    0.5932    0.8044    0.7727
    IR Intensities ---     0.0000    0.0000    0.0000   26.3703    0.0000
 Coord Atom Element:
   1     1     6          0.00000   0.01767   0.00000   0.00000   0.00000
   2     1     6          0.00000  -0.07623   0.00000   0.00000   0.00000
   3     1     6          0.26086   0.00000   0.00073   0.12456   0.00416
   1     2     6          0.00000   0.24582   0.00000   0.00000   0.00000
   2     2     6          0.00000   0.07746   0.00000   0.00000   0.00000
   3     2     6         -0.10550   0.00000  -0.07757  -0.08037   0.00113
   1     3     6          0.00000   0.24512   0.00000   0.00000   0.00000
   2     3     6          0.00000   0.00163   0.00000   0.00000   0.00000
   3     3     6          0.10627   0.00000  -0.07266  -0.07404  -0.00015
   1     4     6          0.00000  -0.01767   0.00000   0.00000   0.00000
   2     4     6          0.00000   0.07623   0.00000   0.00000   0.00000
   3     4     6         -0.26086   0.00000  -0.00073   0.12456  -0.00416
   1     5     6          0.00000  -0.24582   0.00000   0.00000   0.00000
   2     5     6          0.00000  -0.07746   0.00000   0.00000   0.00000
   3     5     6          0.10550   0.00000   0.07757  -0.08037  -0.00113
   1     6     1          0.00000   0.14959   0.00000   0.00000   0.00000
   2     6     1          0.00000   0.21467   0.00000   0.00000   0.00000
   3     6     1         -0.27602   0.00000   0.49966   0.46546  -0.01297
   1     7     1          0.00000   0.19044   0.00000   0.00000   0.00000
   2     7     1          0.00000  -0.20306   0.00000   0.00000   0.00000
   3     7     1          0.28874   0.00000   0.48833   0.45929   0.00284
   1     8     1          0.00000  -0.14959   0.00000   0.00000   0.00000
   2     8     1          0.00000  -0.21467   0.00000   0.00000   0.00000
   3     8     1          0.27602   0.00000  -0.49966   0.46546   0.01297
   1     9     6          0.00000   0.08042   0.00000   0.00000   0.00000
   2     9     6          0.00000  -0.10725   0.00000   0.00000   0.00000
   3     9     6          0.12304   0.00000  -0.00002  -0.06192   0.04183
   1    10     6          0.00000  -0.00052   0.00000   0.00000   0.00000
   2    10     6          0.00000  -0.07506   0.00000   0.00000   0.00000
   3    10     6         -0.01116   0.00000  -0.00174   0.00164  -0.12021
   1    11     1          0.00000   0.03728   0.00000   0.00000   0.00000
   2    11     1          0.00000   0.21113   0.00000   0.00000   0.00000
   3    11     1          0.20770   0.00000  -0.01283  -0.07320   0.49515
   1    12     1          0.00000   0.08733   0.00000   0.00000   0.00000
   2    12     1          0.00000  -0.11081   0.00000   0.00000   0.00000
   3    12     1         -0.15955   0.00000   0.00104   0.03609  -0.01911
   1    13     1          0.00000  -0.31467   0.00000   0.00000   0.00000
   2    13     1          0.00000  -0.18140   0.00000   0.00000   0.00000
   3    13     1         -0.40757   0.00000   0.02021   0.18558   0.48793
   1    14     6          0.00000  -0.08042   0.00000   0.00000   0.00000
   2    14     6          0.00000   0.10725   0.00000   0.00000   0.00000
   3    14     6         -0.12304   0.00000   0.00002  -0.06192  -0.04183
   1    15     1          0.00000  -0.08733   0.00000   0.00000   0.00000
   2    15     1          0.00000   0.11081   0.00000   0.00000   0.00000
   3    15     1          0.15955   0.00000  -0.00104   0.03609   0.01911
   1    16     6          0.00000   0.00052   0.00000   0.00000   0.00000
   2    16     6          0.00000   0.07506   0.00000   0.00000   0.00000
   3    16     6          0.01116   0.00000   0.00174   0.00164   0.12021
   1    17     1          0.00000  -0.03728   0.00000   0.00000   0.00000
   2    17     1          0.00000  -0.21113   0.00000   0.00000   0.00000
   3    17     1         -0.20770   0.00000   0.01283  -0.07320  -0.49515
   1    18     1          0.00000   0.31467   0.00000   0.00000   0.00000
   2    18     1          0.00000   0.18140   0.00000   0.00000   0.00000
   3    18     1          0.40757   0.00000  -0.02021   0.18558  -0.48793
   1    19     6          0.00000  -0.24512   0.00000   0.00000   0.00000
   2    19     6          0.00000  -0.00163   0.00000   0.00000   0.00000
   3    19     6         -0.10627   0.00000   0.07266  -0.07404   0.00015
   1    20     1          0.00000  -0.19044   0.00000   0.00000   0.00000
   2    20     1          0.00000   0.20306   0.00000   0.00000   0.00000
   3    20     1         -0.28874   0.00000  -0.48833   0.45929  -0.00284
                          21        22        23        24        25
                          AU        BG        AU        BU        BU
       Frequencies ---   980.5301 1019.6033 1038.1230 1073.4654 1101.5207
    Reduced masses ---     1.3670    1.2586    1.3328    2.9162    1.4460
   Force constants ---     0.7743    0.7709    0.8463    1.9799    1.0337
    IR Intensities ---    36.2301    0.0000    0.0157    0.5771    8.9538
 Coord Atom Element:
   1     1     6          0.00000   0.00000   0.00000  -0.01722   0.05646
   2     1     6          0.00000   0.00000   0.00000   0.04434  -0.02804
   3     1     6         -0.00562  -0.01985   0.00041   0.00000   0.00000
   1     2     6          0.00000   0.00000   0.00000  -0.18491  -0.06050
   2     2     6          0.00000   0.00000   0.00000  -0.06406  -0.00899
   3     2     6          0.00405   0.07326   0.08532   0.00000   0.00000
   1     3     6          0.00000   0.00000   0.00000   0.21223  -0.02229
   2     3     6          0.00000   0.00000   0.00000   0.00337   0.02253
   3     3     6         -0.00020  -0.07433  -0.08657   0.00000   0.00000
   1     4     6          0.00000   0.00000   0.00000  -0.01722   0.05646
   2     4     6          0.00000   0.00000   0.00000   0.04434  -0.02804
   3     4     6         -0.00562   0.01985   0.00041   0.00000   0.00000
   1     5     6          0.00000   0.00000   0.00000  -0.18491  -0.06050
   2     5     6          0.00000   0.00000   0.00000  -0.06406  -0.00899
   3     5     6          0.00405  -0.07326   0.08532   0.00000   0.00000
   1     6     1          0.00000   0.00000   0.00000  -0.41031  -0.07552
   2     6     1          0.00000   0.00000   0.00000   0.19001  -0.00167
   3     6     1         -0.02173  -0.48472  -0.48464   0.00000   0.00000
   1     7     1          0.00000   0.00000   0.00000   0.31353   0.04043
   2     7     1          0.00000   0.00000   0.00000   0.26857   0.21533
   3     7     1          0.00545   0.50129   0.49982   0.00000   0.00000
   1     8     1          0.00000   0.00000   0.00000  -0.41031  -0.07552
   2     8     1          0.00000   0.00000   0.00000   0.19001  -0.00167
   3     8     1         -0.02173   0.48472  -0.48464   0.00000   0.00000
   1     9     6          0.00000   0.00000   0.00000  -0.00679   0.05555
   2     9     6          0.00000   0.00000   0.00000   0.00287  -0.03179
   3     9     6          0.04257  -0.01089  -0.00045   0.00000   0.00000
   1    10     6          0.00000   0.00000   0.00000   0.01295  -0.04725
   2    10     6          0.00000   0.00000   0.00000  -0.03122   0.06988
   3    10     6         -0.12032   0.00189   0.00268   0.00000   0.00000
   1    11     1          0.00000   0.00000   0.00000   0.03103  -0.10240
   2    11     1          0.00000   0.00000   0.00000   0.10744  -0.34928
   3    11     1          0.49567  -0.02981  -0.02165   0.00000   0.00000
   1    12     1          0.00000   0.00000   0.00000   0.00320  -0.00746
   2    12     1          0.00000   0.00000   0.00000   0.04650  -0.35009
   3    12     1         -0.01935  -0.02379  -0.00432   0.00000   0.00000
   1    13     1          0.00000   0.00000   0.00000  -0.13106   0.35956
   2    13     1          0.00000   0.00000   0.00000  -0.08030   0.20491
   3    13     1          0.48692   0.02989  -0.00581   0.00000   0.00000
   1    14     6          0.00000   0.00000   0.00000  -0.00679   0.05555
   2    14     6          0.00000   0.00000   0.00000   0.00287  -0.03179
   3    14     6          0.04257   0.01089  -0.00045   0.00000   0.00000
   1    15     1          0.00000   0.00000   0.00000   0.00320  -0.00746
   2    15     1          0.00000   0.00000   0.00000   0.04650  -0.35009
   3    15     1         -0.01935   0.02379  -0.00432   0.00000   0.00000
   1    16     6          0.00000   0.00000   0.00000   0.01295  -0.04725
   2    16     6          0.00000   0.00000   0.00000  -0.03122   0.06988
   3    16     6         -0.12032  -0.00189   0.00268   0.00000   0.00000
   1    17     1          0.00000   0.00000   0.00000   0.03103  -0.10240
   2    17     1          0.00000   0.00000   0.00000   0.10744  -0.34928
   3    17     1          0.49567   0.02981  -0.02165   0.00000   0.00000
   1    18     1          0.00000   0.00000   0.00000  -0.13106   0.35956
   2    18     1          0.00000   0.00000   0.00000  -0.08030   0.20491
   3    18     1          0.48692  -0.02989  -0.00581   0.00000   0.00000
   1    19     6          0.00000   0.00000   0.00000   0.21223  -0.02229
   2    19     6          0.00000   0.00000   0.00000   0.00337   0.02253
   3    19     6         -0.00020   0.07433  -0.08657   0.00000   0.00000
   1    20     1          0.00000   0.00000   0.00000   0.31353   0.04043
   2    20     1          0.00000   0.00000   0.00000   0.26857   0.21533
   3    20     1          0.00545  -0.50129   0.49982   0.00000   0.00000
                          26        27        28        29        30
                          AU        BG        AG        BU        AG
       Frequencies ---  1106.0060 1106.1599 1109.9573 1204.9341 1262.9239
    Reduced masses ---     1.0901    1.0915    1.5055    1.3530    1.2423
   Force constants ---     0.7857    0.7869    1.0928    1.1574    1.1674
    IR Intensities ---    13.3104    0.0000    0.0000    1.4942    0.0000
 Coord Atom Element:
   1     1     6          0.00000   0.00000  -0.02464  -0.03349  -0.00548
   2     1     6          0.00000   0.00000   0.06440  -0.05075   0.07423
   3     1     6         -0.00089   0.00193   0.00000   0.00000   0.00000
   1     2     6          0.00000   0.00000   0.04849   0.01839   0.03495
   2     2     6          0.00000   0.00000   0.02330   0.08320  -0.00770
   3     2     6          0.00332  -0.00222   0.00000   0.00000   0.00000
   1     3     6          0.00000   0.00000   0.02525   0.03269   0.04078
   2     3     6          0.00000   0.00000  -0.03304  -0.05345   0.02683
   3     3     6         -0.00319  -0.00274   0.00000   0.00000   0.00000
   1     4     6          0.00000   0.00000   0.02464  -0.03349   0.00548
   2     4     6          0.00000   0.00000  -0.06440  -0.05075  -0.07423
   3     4     6         -0.00089  -0.00193   0.00000   0.00000   0.00000
   1     5     6          0.00000   0.00000  -0.04849   0.01839  -0.03495
   2     5     6          0.00000   0.00000  -0.02330   0.08320   0.00770
   3     5     6          0.00332   0.00222   0.00000   0.00000   0.00000
   1     6     1          0.00000   0.00000   0.10422  -0.29555   0.30714
   2     6     1          0.00000   0.00000  -0.03145   0.46589  -0.32381
   3     6     1          0.00317  -0.01836   0.00000   0.00000   0.00000
   1     7     1          0.00000   0.00000   0.01816  -0.07277   0.20075
   2     7     1          0.00000   0.00000  -0.06924  -0.39152   0.47937
   3     7     1          0.00533   0.02702   0.00000   0.00000   0.00000
   1     8     1          0.00000   0.00000  -0.10422  -0.29555  -0.30714
   2     8     1          0.00000   0.00000   0.03145   0.46589   0.32381
   3     8     1          0.00317   0.01836   0.00000   0.00000   0.00000
   1     9     6          0.00000   0.00000   0.05438   0.00896  -0.02855
   2     9     6          0.00000   0.00000  -0.02800  -0.00954   0.02365
   3     9     6         -0.06083  -0.06139   0.00000   0.00000   0.00000
   1    10     6          0.00000   0.00000  -0.04491  -0.00467   0.00906
   2    10     6          0.00000   0.00000   0.08661   0.02501   0.00198
   3    10     6          0.00465   0.00475   0.00000   0.00000   0.00000
   1    11     1          0.00000   0.00000  -0.10158  -0.01273   0.01855
   2    11     1          0.00000   0.00000  -0.35267  -0.04474   0.06132
   3    11     1          0.32974   0.32888   0.00000   0.00000   0.00000
   1    12     1          0.00000   0.00000  -0.00777   0.00341  -0.01266
   2    12     1          0.00000   0.00000  -0.33415  -0.03063   0.12543
   3    12     1          0.57593   0.57581   0.00000   0.00000   0.00000
   1    13     1          0.00000   0.00000   0.39826   0.11718   0.00711
   2    13     1          0.00000   0.00000   0.23529   0.06687   0.00316
   3    13     1         -0.23619  -0.23539   0.00000   0.00000   0.00000
   1    14     6          0.00000   0.00000  -0.05438   0.00896   0.02855
   2    14     6          0.00000   0.00000   0.02800  -0.00954  -0.02365
   3    14     6         -0.06083   0.06139   0.00000   0.00000   0.00000
   1    15     1          0.00000   0.00000   0.00777   0.00341   0.01266
   2    15     1          0.00000   0.00000   0.33415  -0.03063  -0.12543
   3    15     1          0.57593  -0.57581   0.00000   0.00000   0.00000
   1    16     6          0.00000   0.00000   0.04491  -0.00467  -0.00906
   2    16     6          0.00000   0.00000  -0.08661   0.02501  -0.00198
   3    16     6          0.00465  -0.00475   0.00000   0.00000   0.00000
   1    17     1          0.00000   0.00000   0.10158  -0.01273  -0.01855
   2    17     1          0.00000   0.00000   0.35267  -0.04474  -0.06132
   3    17     1          0.32974  -0.32888   0.00000   0.00000   0.00000
   1    18     1          0.00000   0.00000  -0.39826   0.11718  -0.00711
   2    18     1          0.00000   0.00000  -0.23529   0.06687  -0.00316
   3    18     1         -0.23619   0.23539   0.00000   0.00000   0.00000
   1    19     6          0.00000   0.00000  -0.02525   0.03269  -0.04078
   2    19     6          0.00000   0.00000   0.03304  -0.05345  -0.02683
   3    19     6         -0.00319   0.00274   0.00000   0.00000   0.00000
   1    20     1          0.00000   0.00000  -0.01816  -0.07277  -0.20075
   2    20     1          0.00000   0.00000   0.06924  -0.39152  -0.47937
   3    20     1          0.00533  -0.02702   0.00000   0.00000   0.00000
                          31        32        33        34        35
                          BU        AG        BU        AG        BU
       Frequencies ---  1284.8855 1296.1944 1351.4031 1398.7612 1420.6939
    Reduced masses ---     2.3327    2.8287    5.2221    1.4216    1.3384
   Force constants ---     2.2690    2.8001    5.6191    1.6388    1.5916
    IR Intensities ---     0.0826    0.0000    9.4698    0.0000    8.2414
 Coord Atom Element:
   1     1     6          0.05966  -0.00136   0.28444   0.09076   0.02433
   2     1     6          0.19918   0.21461  -0.07576  -0.01178   0.01303
   3     1     6          0.00000   0.00000   0.00000   0.00000   0.00000
   1     2     6         -0.08508  -0.00867  -0.10793   0.01342  -0.02003
   2     2     6          0.02639   0.11759   0.14820  -0.03939   0.02658
   3     2     6          0.00000   0.00000   0.00000   0.00000   0.00000
   1     3     6          0.00009   0.06523  -0.11784  -0.00649   0.00055
   2     3     6         -0.07499  -0.09437  -0.18957  -0.01315  -0.03409
   3     3     6          0.00000   0.00000   0.00000   0.00000   0.00000
   1     4     6          0.05966   0.00136   0.28444  -0.09076   0.02433
   2     4     6          0.19918  -0.21461  -0.07576   0.01178   0.01303
   3     4     6          0.00000   0.00000   0.00000   0.00000   0.00000
   1     5     6         -0.08508   0.00867  -0.10793  -0.01342  -0.02003
   2     5     6          0.02639  -0.11759   0.14820   0.03939   0.02658
   3     5     6          0.00000   0.00000   0.00000   0.00000   0.00000
   1     6     1          0.09677  -0.22400  -0.09891  -0.27172   0.02920
   2     6     1         -0.18708   0.39624   0.13068   0.29058  -0.03007
   3     6     1          0.00000   0.00000   0.00000   0.00000   0.00000
   1     7     1         -0.15124   0.05451   0.07519   0.13038   0.01781
   2     7     1         -0.50169  -0.19246   0.38154   0.38618   0.00974
   3     7     1          0.00000   0.00000   0.00000   0.00000   0.00000
   1     8     1          0.09677   0.22400  -0.09891   0.27172   0.02920
   2     8     1         -0.18708  -0.39624   0.13068  -0.29058  -0.03007
   3     8     1          0.00000   0.00000   0.00000   0.00000   0.00000
   1     9     6          0.04402  -0.07665  -0.10855   0.06592   0.07100
   2     9     6         -0.02445   0.04892   0.07380  -0.03225  -0.01069
   3     9     6          0.00000   0.00000   0.00000   0.00000   0.00000
   1    10     6         -0.00510   0.02731   0.06121  -0.05532  -0.08151
   2    10     6         -0.03017   0.02621  -0.02522   0.00730  -0.01434
   3    10     6          0.00000   0.00000   0.00000   0.00000   0.00000
   1    11     1         -0.01362   0.04993   0.10860  -0.09392  -0.13464
   2    11     1         -0.06732   0.15277   0.28057  -0.22430  -0.30711
   3    11     1          0.00000   0.00000   0.00000   0.00000   0.00000
   1    12     1         -0.00536  -0.02399  -0.11490   0.13633   0.20042
   2    12     1         -0.32277   0.37770   0.09890   0.27947   0.57268
   3    12     1          0.00000   0.00000   0.00000   0.00000   0.00000
   1    13     1         -0.08840   0.00989  -0.10505   0.01642  -0.04537
   2    13     1         -0.06379   0.02856  -0.07541   0.02614  -0.01293
   3    13     1          0.00000   0.00000   0.00000   0.00000   0.00000
   1    14     6          0.04402   0.07665  -0.10855  -0.06592   0.07100
   2    14     6         -0.02445  -0.04892   0.07380   0.03225  -0.01069
   3    14     6          0.00000   0.00000   0.00000   0.00000   0.00000
   1    15     1         -0.00536   0.02399  -0.11490  -0.13633   0.20042
   2    15     1         -0.32277  -0.37770   0.09890  -0.27947   0.57268
   3    15     1          0.00000   0.00000   0.00000   0.00000   0.00000
   1    16     6         -0.00510  -0.02731   0.06121   0.05532  -0.08151
   2    16     6         -0.03017  -0.02621  -0.02522  -0.00730  -0.01434
   3    16     6          0.00000   0.00000   0.00000   0.00000   0.00000
   1    17     1         -0.01362  -0.04993   0.10860   0.09392  -0.13464
   2    17     1         -0.06732  -0.15277   0.28057   0.22430  -0.30711
   3    17     1          0.00000   0.00000   0.00000   0.00000   0.00000
   1    18     1         -0.08840  -0.00989  -0.10505  -0.01642  -0.04537
   2    18     1         -0.06379  -0.02856  -0.07541  -0.02614  -0.01293
   3    18     1          0.00000   0.00000   0.00000   0.00000   0.00000
   1    19     6          0.00009  -0.06523  -0.11784   0.00649   0.00055
   2    19     6         -0.07499   0.09437  -0.18957   0.01315  -0.03409
   3    19     6          0.00000   0.00000   0.00000   0.00000   0.00000
   1    20     1         -0.15124  -0.05451   0.07519  -0.13038   0.01781
   2    20     1         -0.50169   0.19246   0.38154  -0.38618   0.00974
   3    20     1          0.00000   0.00000   0.00000   0.00000   0.00000
                          36        37        38        39        40
                          AG        BU        AG        BU        BU
[...]
   X20        4.46875   0.00000   0.00000  -0.00003  -0.00004   4.46871
   Y20        1.53642   0.00000   0.00000   0.00008   0.00011   1.53653
   Z20        0.00000   0.00000   0.00000   0.00000   0.00000   0.00000
         Item               Value     Threshold  Converged?
 Maximum Force            0.000050     0.000450     YES
 RMS     Force            0.000017     0.000300     YES
 Maximum Displacement     0.000735     0.001800     YES
 RMS     Displacement     0.000179     0.001200     YES
 Predicted change in Energy=-2.191724D-08
 Optimization completed.
    -- Stationary point found.
 GradGradGradGradGradGradGradGradGradGradGradGradGradGradGradGradGradGrad

 Leave Link  103 at Wed Dec  1 08:53:10 2021, MaxMem=   117964800 cpu:               0.0 elap:               0.1
 (Enter /gpfs1/apps/software/Gaussian16/AVX2/g16/l9999.exe)
 Dipole is zero, so no output in dipole orientation.

 ----------------------------------------------------------------------

 Electric dipole moment (input orientation):
 (Debye = 10**-18 statcoulomb cm , SI units = C m)
                  (au)            (Debye)         (10**-30 SI)
   Tot        0.000000D+00      0.000000D+00      0.000000D+00
   x          0.000000D+00      0.000000D+00      0.000000D+00
   y          0.000000D+00      0.000000D+00      0.000000D+00
   z          0.000000D+00      0.000000D+00      0.000000D+00

 Dipole polarizability, Alpha (input orientation).
 (esu units = cm**3 , SI units = C**2 m**2 J**-1)
 Alpha(0;0):
               (au)            (10**-24 esu)      (10**-40 SI)
   iso        0.741999D+02      0.109953D+02      0.122339D+02
   aniso      0.114985D+03      0.170390D+02      0.189584D+02
   xx         0.682380D+02      0.101118D+02      0.112509D+02
   yx        -0.677727D+01     -0.100429D+01     -0.111742D+01
   yy         0.143018D+03      0.211931D+02      0.235805D+02
   zx         0.000000D+00      0.000000D+00      0.000000D+00
   zy         0.000000D+00      0.000000D+00      0.000000D+00
   zz         0.113434D+02      0.168091D+01      0.187027D+01

 ----------------------------------------------------------------------
 Unable to Open any file for archive entry.
 1\1\GINC-KENNEDY58\Freq\RB3LYP\STO-3G\C10H10\OSL\01-Dec-2021\0\\#p b3l
 yp/sto-3g freq=hpmodes\\dvb_gopt.out\\0,1\C,0.26944,1.41012,0.\C,-1.06
 479,0.92066,0.\C,-1.32539,-0.45706,0.\C,-0.26944,-1.41012,0.\C,1.06479
 ,-0.92066,0.\H,-1.90447,1.62752,0.\H,-2.36476,-0.81304,0.\H,1.90447,-1
 .62752,0.\C,-0.60369,-2.86996,0.\C,0.26944,-3.89207,0.\H,1.35518,-3.74
 231,0.\H,-1.68186,-3.09015,0.\H,-0.07425,-4.93303,0.\C,0.60369,2.86996
 ,0.\H,1.68186,3.09015,0.\C,-0.26944,3.89207,0.\H,-1.35518,3.74231,0.\H
 ,0.07425,4.93303,0.\C,1.32539,0.45706,0.\H,2.36476,0.81304,0.\\Version
 =ES64L-G16RevC.01\State=1-AG\HF=-382.3082666\RMSD=5.826e-09\RMSF=1.683
 e-05\ZeroPoint=0.177132\Thermal=0.1860155\ETot=-382.1222511\HTot=-382.
 1213069\GTot=-382.1649144\Dipole=0.,0.,0.\DipoleDeriv=-0.1510313,-0.06
 44125,0.,0.0075099,0.1880971,0.,0.,0.,0.0274662,-0.0461303,-0.1116672,
 0.,-0.1003347,-0.1097164,0.,0.,0.,-0.0831279,0.0308388,0.0695814,0.,0.
 0766289,-0.1890744,0.,0.,0.,-0.0908914,-0.1510313,-0.0644125,0.,0.0075
 099,0.1880971,0.,0.,0.,0.0274662,-0.0461303,-0.1116672,0.,-0.1003347,-
 0.1097164,0.,0.,0.,-0.0831279,0.0625847,0.0092828,0.,0.0104525,0.03476
 32,0.,0.,0.,0.0791893,0.0589439,-0.0197848,0.,-0.0129442,0.0369729,0.,
 0.,0.,0.0776549,0.0625847,0.0092828,0.,0.0104525,0.0347632,0.,0.,0.,0.
 0791893,0.0038806,0.3412391,0.,0.0231842,0.1900183,0.,0.,0.,-0.0788554
 ,-0.0390883,-0.0608023,0.,0.0393405,-0.2573274,0.,0.,0.,-0.2046137,0.0
 334161,-0.1559779,0.,-0.0208576,0.0202746,0.,0.,0.,0.0985484,0.0193706
 ,-0.0660588,0.,0.0182304,-0.0291812,0.,0.,0.,0.0803432,0.0272152,0.058
 6002,0.,-0.0412099,0.1151733,0.,0.,0.,0.0942862,0.0038806,0.3412391,0.
 ,0.0231842,0.1900183,0.,0.,0.,-0.0788554,0.0193706,-0.0660588,0.,0.018
 2304,-0.0291812,0.,0.,0.,0.0803432,-0.0390883,-0.0608023,0.,0.0393405,
 -0.2573274,0.,0.,0.,-0.2046137,0.0334161,-0.1559779,0.,-0.0208576,0.02
 02746,0.,0.,0.,0.0985484,0.0272152,0.0586002,0.,-0.0412099,0.1151733,0
 .,0.,0.,0.0942862,0.0308388,0.0695815,0.,0.0766289,-0.1890744,0.,0.,0.
 ,-0.0908914,0.0589439,-0.0197848,0.,-0.0129442,0.0369729,0.,0.,0.,0.07
 76549\Polar=68.2380369,-6.7772741,143.0183194,0.,0.,11.3433757\Quadrup
 ole=2.2053682,1.8374462,-4.0428143,0.044045,0.,0.\PG=C02H [SGH(C10H10)
 ]\NImag=0\\0.72602228,0.00341002,0.70608303,0.,0.,0.15798148,-0.321992
 40,-0.09364734,0.,0.78161243,-0.01269446,-0.15242928,0.,-0.06594543,0.
 79983757,0.,0.,-0.06750446,0.,0.,0.14147167,0.01761170,-0.03784112,0.,
 -0.15586232,-0.09393738,0.,0.82507897,-0.10964349,-0.01244537,0.,0.008
 85411,-0.37652998,0.,0.05421745,0.75625686,0.,0.,0.00695499,0.,0.,-0.0
 6247173,0.,0.,0.14133572,-0.08313472,0.01804611,0.,0.06327308,0.077560
 09,0.,-0.26030698,0.05427990,0.,0.72602228,0.01804611,0.00959596,0.,0.
 00737533,-0.05706441,0.,0.13933357,-0.21381113,0.,0.00341002,0.7060830
 3,0.,0.,-0.00895337,0.,0.,0.00701264,0.,0.,-0.06664250,0.,0.,0.1579814
 8,0.06327308,0.00737533,0.,-0.03389290,-0.04279888,0.,-0.05876336,0.05
 642437,0.,-0.32199240,-0.09364734,0.,0.78161243,0.07756009,-0.05706441
 ,0.,-0.04279888,-0.04896116,0.,-0.00270346,0.07374718,0.,-0.01269446,-
 0.15242928,0.,-0.06594543,0.79983757,0.,0.,0.00701264,0.,0.,-0.0064538
 7,0.,0.,0.00652964,0.,0.,-0.06750446,0.,0.,0.14147167,-0.01460909,0.02
 297980,0.,-0.26675047,0.16900899,0.,0.00936632,-0.01180551,0.,0.000040
 38,-0.00190464,0.,0.00040815,-0.00104039,0.,0.27234095,-0.01338999,0.0
 1259662,0.,0.16778400,-0.20700372,0.,0.02796459,-0.01407847,0.,-0.0034
 5070,-0.00390242,0.,-0.00096964,0.00010335,0.,-0.17547208,0.21447314,0
 .,0.,0.00276552,0.,0.,-0.04045143,0.,0.,0.00370906,0.,0.,0.00884199,0.
 ,0.,-0.00093018,0.,0.,0.02782960,0.00125230,-0.00011850,0.,0.00103572,
 0.00612129,0.,-0.37099032,-0.10389156,0.,-0.01448395,-0.01286676,0.,-0
 .00142396,0.00399685,0.,0.00118891,0.00022071,0.,0.38143792,0.00133442
 ,-0.00528473,0.,-0.03336825,-0.00531528,0.,-0.10394364,-0.10136571,0.,
 0.02407709,0.00972169,0.,0.00243622,-0.00378791,0.,-0.00000489,0.00186
 351,0.,0.10818845,0.10275385,0.,0.,0.00880491,0.,0.,0.00337886,0.,0.,-
 0.03992430,0.,0.,0.00244790,0.,0.,0.00738481,0.,0.,-0.00511947,0.,0.,0
 .02843047,0.00004038,-0.00190464,0.,0.00040815,-0.00104039,0.,-0.00385
 731,-0.00403645,0.,-0.01460909,0.02297980,0.,-0.26675047,0.16900899,0.
 ,-0.00004507,0.00023779,0.,-0.00078837,0.00116006,0.,0.27234095,-0.003
 45070,-0.00390242,0.,-0.00096964,0.00010335,0.,-0.00251628,-0.00137189
 ,0.,-0.01338999,0.01259662,0.,0.16778400,-0.20700372,0.,0.00023779,-0.
 00002480,0.,-0.00064760,0.00060374,0.,-0.17547208,0.21447314,0.,0.,0.0
 0884199,0.,0.,-0.00093018,0.,0.,0.00773334,0.,0.,0.00276552,0.,0.,-0.0
 4045143,0.,0.,-0.00117742,0.,0.,0.00015378,0.,0.,0.02782960,-0.0001935
 6,0.00140230,0.,-0.00474914,0.00119396,0.,0.00738842,0.03062791,0.,-0.
 12577343,-0.05913863,0.,-0.00005860,-0.03398919,0.,0.00049575,0.001362
 80,0.,0.00155522,0.00205434,0.,0.00131714,0.00109945,0.,0.87303798,-0.
 00047661,-0.00609772,0.,0.00648919,0.00666787,0.,0.00528490,-0.0453509
 4,0.,-0.02946514,-0.23545597,0.,-0.02179877,-0.02381881,0.,-0.00025102
 ,-0.00035755,0.,-0.00209738,0.00151910,0.,0.00164610,-0.00007476,0.,-0
 .14488599,0.77817944,0.,0.,-0.00097875,0.,0.,0.00740794,0.,0.,0.003943
 34,0.,0.,-0.06345923,0.,0.,0.00279029,0.,0.,0.00002711,0.,0.,-0.003872
 66,0.,0.,-0.00390312,0.,0.,0.13819249,0.00005860,-0.00190615,0.,0.0019
 8436,0.00136583,0.,0.00067422,-0.00705571,0.,0.01816669,0.01139682,0.,
 -0.00496410,-0.00495504,0.,-0.00008863,-0.00030997,0.,0.00016322,-0.00
 030250,0.,0.00001373,-0.00199014,0.,-0.35724459,0.23156917,0.,0.865726
 90,0.00096416,0.00186284,0.,-0.00099717,-0.00319545,0.,-0.00699510,0.0
 0323816,0.,0.01987019,-0.04908529,0.,0.00658168,0.00393657,0.,-0.00013
 016,-0.00034064,0.,-0.00010634,-0.00005430,0.,0.00034546,-0.00094211,0
 .,0.25383546,-0.40415961,0.,-0.10583084,0.89700614,0.,0.,-0.00004017,0
 .,0.,-0.00010547,0.,0.,0.00143990,0.,0.,0.00549228,0.,0.,0.00042468,0.
 ,0.,-0.00011038,0.,0.,0.00012266,0.,0.,0.00022887,0.,0.,-0.05251311,0.
 ,0.,0.11388580,-0.00008353,-0.00011881,0.,-0.00017848,0.00004012,0.,-0
 .00011343,-0.00015311,0.,0.00042372,-0.00133108,0.,0.00050122,-0.00107
 787,0.,-0.00000132,-0.00000820,0.,-0.00004128,-0.00002380,0.,0.0004722
 0,-0.00033262,0.,-0.01292221,-0.00738989,0.,-0.40322941,-0.05033836,0.
 ,0.41697052,-0.00000211,-0.00003904,0.,-0.00012523,0.00005255,0.,-0.00
 005251,0.00001969,0.,-0.00147454,0.00167931,0.,0.00124012,-0.00128027,
 0.,0.00000517,-0.00000069,0.,-0.00007510,0.00008677,0.,-0.00073780,-0.
 00159812,0.,0.03043918,0.01095174,0.,-0.05213158,-0.07773314,0.,0.0510
 7890,0.06911437,0.,0.,-0.00007930,0.,0.,0.00026416,0.,0.,0.00003357,0.
 ,0.,-0.00822925,0.,0.,0.00016794,0.,0.,-0.00000426,0.,0.,-0.00008681,0
 .,0.,0.00030916,0.,0.,0.00472203,0.,0.,-0.03873257,0.,0.,0.02509262,0.
 00018352,0.00005722,0.,-0.00011583,-0.00002642,0.,0.00151266,0.0024780
 3,0.,-0.00325724,0.00359766,0.,0.00073701,-0.00005189,0.,0.00000915,0.
 00002630,0.,0.00008748,-0.00041328,0.,0.00012040,0.00003933,0.,-0.3867
 5530,-0.06580906,0.,-0.01492934,-0.00902529,0.,-0.00045284,0.00202571,
 0.,0.40107827,0.00007581,0.00015905,0.,0.00013797,0.00016153,0.,-0.002
 24904,0.00176437,0.,-0.03202537,-0.00605672,0.,0.00166117,-0.00537985,
 0.,0.00001542,-0.00000276,0.,0.00053444,-0.00009260,0.,0.00000072,-0.0
 0000017,0.,-0.06851222,-0.07847350,0.,0.03273958,0.00762974,0.,0.00214
 592,-0.00384001,0.,0.06713756,0.08265445,0.,0.,0.00010082,0.,0.,-0.000
 02739,0.,0.,-0.00087657,0.,0.,0.00239792,0.,0.,0.00245088,0.,0.,0.0000
 1546,0.,0.,-0.00005400,0.,0.,-0.00006461,0.,0.,-0.04421846,0.,0.,0.005
 68368,0.,0.,0.01405594,0.,0.,0.03006514,0.00006129,-0.00006168,0.,-0.0
 0025209,0.00005370,0.,0.00080617,0.00088984,0.,-0.00325868,0.00133588,
 0.,-0.00054833,-0.00012044,0.,0.00003664,0.00011263,0.,0.00003884,-0.0
 0000088,0.,0.00033054,0.00023963,0.,0.01030328,0.02801953,0.,-0.106052
 13,-0.10945616,0.,-0.00180167,-0.02988023,0.,0.00192849,-0.00007736,0.
 ,0.09820367,0.00016087,0.00011810,0.,0.00042451,-0.00021032,0.,-0.0005
 2759,-0.00040251,0.,0.00284373,-0.00014452,0.,0.00024204,0.00046985,0.
 ,-0.00004008,-0.00006116,0.,0.00008942,-0.00002522,0.,0.00002354,0.000
 11890,0.,-0.01310740,-0.01625578,0.,-0.10620099,-0.37555604,0.,0.00759
 376,0.00242065,0.,-0.00014673,0.00167497,0.,0.10891403,0.38786261,0.,0
 .,0.00015183,0.,0.,-0.00090243,0.,0.,0.00002964,0.,0.,0.01293472,0.,0.
 ,-0.00043653,0.,0.,0.00000846,0.,0.,0.00032677,0.,0.,0.00013851,0.,0.,
 0.00564590,0.,0.,-0.03542476,0.,0.,0.00226966,0.,0.,-0.00929825,0.,0.,
 0.02489710,-0.12577343,-0.05913863,0.,-0.00005860,-0.03398919,0.,-0.00
 646417,-0.00046383,0.,-0.00019356,0.00140230,0.,-0.00474914,0.00119396
 ,0.,0.00131714,0.00109945,0.,0.00005040,-0.00153827,0.,0.00049575,0.00
 136280,0.,-0.00020689,-0.00082932,0.,0.00005404,0.00044205,0.,0.000186
 21,-0.00003232,0.,0.00004577,0.00014027,0.,-0.00006633,-0.00010057,0.,
 0.87303798,-0.02946514,-0.23545597,0.,-0.02179877,-0.02381881,0.,-0.00
 129691,0.01022309,0.,-0.00047661,-0.00609772,0.,0.00648919,0.00666787,
 0.,0.00164610,-0.00007476,0.,0.00008545,0.00024419,0.,-0.00025102,-0.0
 0035755,0.,-0.00082932,0.00332681,0.,0.00117141,-0.00105501,0.,0.00007
 738,0.00001172,0.,0.00000707,0.00002649,0.,-0.00005012,-0.00005080,0.,
 -0.14488599,0.77817944,0.,0.,-0.06345923,0.,0.,0.00279029,0.,0.,0.0069
 1520,0.,0.,-0.00097875,0.,0.,0.00740794,0.,0.,-0.00390312,0.,0.,0.0001
 5960,0.,0.,0.00002711,0.,0.,-0.00099906,0.,0.,0.00009000,0.,0.,0.00005
 822,0.,0.,-0.00000335,0.,0.,-0.00000438,0.,0.,0.13819249,-0.00325724,0
 .00359766,0.,0.00073701,-0.00005189,0.,-0.00019840,0.00017940,0.,0.000
 18352,0.00005722,0.,-0.00011583,-0.00002642,0.,0.00012040,0.00003933,0
 .,0.00003007,-0.00005975,0.,0.00000915,0.00002630,0.,0.00004577,0.0000
 0707,0.,-0.00001406,-0.00001975,0.,-0.00000845,0.00000074,0.,-0.000007
 34,0.00000082,0.,0.00000597,0.00000234,0.,-0.38675530,-0.06580906,0.,0
 .40107827,-0.03202537,-0.00605672,0.,0.00166117,-0.00537985,0.,-0.0016
 9349,0.00030219,0.,0.00007581,0.00015905,0.,0.00013797,0.00016153,0.,0
 .00000072,-0.00000017,0.,0.00000321,-0.00046886,0.,0.00001542,-0.00000
 276,0.,0.00014027,0.00002649,0.,-0.00003070,-0.00006512,0.,-0.00002487
 ,-0.00000408,0.,0.00000082,0.00000034,0.,0.00002015,0.00001053,0.,-0.0
 6851222,-0.07847350,0.,0.06713756,0.08265445,0.,0.,0.00239792,0.,0.,0.
 00245088,0.,0.,-0.00000147,0.,0.,0.00010082,0.,0.,-0.00002739,0.,0.,-0
 .00006461,0.,0.,-0.00022649,0.,0.,0.00001546,0.,0.,-0.00000335,0.,0.,-
 0.00000450,0.,0.,0.00000281,0.,0.,-0.00000040,0.,0.,0.00000283,0.,0.,-
 0.04421846,0.,0.,0.03006514,0.01816669,0.01139682,0.,-0.00496410,-0.00
 495504,0.,-0.00051809,0.00294357,0.,0.00005860,-0.00190615,0.,0.001984
 36,0.00136583,0.,0.00001373,-0.00199014,0.,-0.00000707,-0.00002234,0.,
 -0.00008863,-0.00030997,0.,0.00005404,0.00117141,0.,0.00024200,-0.0004
 9127,0.,-0.00007288,0.00000074,0.,-0.00001406,-0.00003070,0.,0.0000365
 2,0.00004013,0.,-0.35724459,0.23156917,0.,-0.01492934,0.03273958,0.,0.
 86572690,0.01987019,-0.04908529,0.,0.00658168,0.00393657,0.,0.00141501
 ,-0.00183205,0.,0.00096416,0.00186284,0.,-0.00099717,-0.00319545,0.,0.
 00034546,-0.00094211,0.,-0.00001314,0.00005712,0.,-0.00013016,-0.00034
 064,0.,0.00044205,-0.00105501,0.,-0.00049127,0.00023401,0.,-0.00009855
 ,0.00000974,0.,-0.00001975,-0.00006512,0.,0.00004811,0.00004443,0.,0.2
 5383546,-0.40415961,0.,-0.00902529,0.00762974,0.,-0.10583084,0.8970061
 4,0.,0.,0.00549228,0.,0.,0.00042468,0.,0.,-0.00045676,0.,0.,-0.0000401
 7,0.,0.,-0.00010547,0.,0.,0.00022887,0.,0.,0.00002598,0.,0.,-0.0001103
 8,0.,0.,0.00009000,0.,0.,0.00001129,0.,0.,-0.00000272,0.,0.,-0.0000045
 0,0.,0.,-0.00001470,0.,0.,-0.05251311,0.,0.,0.00568368,0.,0.,0.1138858
 0,0.00042372,-0.00133108,0.,0.00050122,-0.00107787,0.,0.00037736,-0.00
 004198,0.,-0.00008353,-0.00011881,0.,-0.00017848,0.00004012,0.,0.00047
 220,-0.00033262,0.,-0.00000048,-0.00002688,0.,-0.00000132,-0.00000820,
 0.,0.00018621,0.00007738,0.,-0.00007288,-0.00009855,0.,-0.00005824,-0.
 00000149,0.,-0.00000845,-0.00002487,0.,0.00003297,0.00003143,0.,-0.012
 92221,-0.00738989,0.,-0.00045284,0.00214592,0.,-0.40322941,-0.05033836
 ,0.,0.41697052,-0.00147454,0.00167931,0.,0.00124012,-0.00128027,0.,-0.
 00025135,0.00017894,0.,-0.00000211,-0.00003904,0.,-0.00012523,0.000052
 55,0.,-0.00073780,-0.00159812,0.,-0.00002395,-0.00003295,0.,0.00000517
 ,-0.00000069,0.,-0.00003232,0.00001172,0.,0.00000074,0.00000974,0.,-0.
 00000149,-0.00000142,0.,0.00000074,-0.00000408,0.,-0.00000234,0.000004
 26,0.,0.03043918,0.01095174,0.,0.00202571,-0.00384001,0.,-0.05213158,-
 0.07773314,0.,0.05107890,0.06911437,0.,0.,-0.00822925,0.,0.,0.00016794
 ,0.,0.,0.00014681,0.,0.,-0.00007930,0.,0.,0.00026416,0.,0.,0.00030916,
 0.,0.,0.00001356,0.,0.,-0.00000426,0.,0.,0.00005822,0.,0.,-0.00000272,
 0.,0.,0.00001861,0.,0.,0.00000281,0.,0.,-0.00002016,0.,0.,0.00472203,0
 .,0.,0.01405594,0.,0.,-0.03873257,0.,0.,0.02509262,-0.00325868,0.00133
 588,0.,-0.00054833,-0.00012044,0.,0.00020124,-0.00001400,0.,0.00006129
 ,-0.00006168,0.,-0.00025209,0.00005370,0.,0.00033054,0.00023963,0.,0.0
 0000854,0.00004785,0.,0.00003664,0.00011263,0.,-0.00006633,-0.00005012
 ,0.,0.00003652,0.00004811,0.,0.00003297,-0.00000234,0.,0.00000597,0.00
 002015,0.,-0.00001492,-0.00001814,0.,0.01030328,0.02801953,0.,0.001928
 49,-0.00007736,0.,-0.10605213,-0.10945616,0.,-0.00180167,-0.02988023,0
 .,0.09820367,0.00284373,-0.00014452,0.,0.00024204,0.00046985,0.,-0.000
 23536,0.00002179,0.,0.00016087,0.00011810,0.,0.00042451,-0.00021032,0.
 ,0.00002354,0.00011890,0.,0.00001107,-0.00001733,0.,-0.00004008,-0.000
 06116,0.,-0.00010057,-0.00005080,0.,0.00004013,0.00004443,0.,0.0000314
 3,0.00000426,0.,0.00000234,0.00001053,0.,-0.00001814,-0.00002240,0.,-0
 .01310740,-0.01625578,0.,-0.00014673,0.00167497,0.,-0.10620099,-0.3755
 5604,0.,0.00759376,0.00242065,0.,0.10891403,0.38786261,0.,0.,0.0129347
 2,0.,0.,-0.00043653,0.,0.,-0.00033565,0.,0.,0.00015183,0.,0.,-0.000902
 43,0.,0.,0.00013851,0.,0.,0.00000425,0.,0.,0.00000846,0.,0.,-0.0000043
 8,0.,0.,-0.00001470,0.,0.,-0.00002016,0.,0.,0.00000283,0.,0.,0.0000272
 0,0.,0.,0.00564590,0.,0.,-0.00929825,0.,0.,-0.03542476,0.,0.,0.0022696
 6,0.,0.,0.02489710,-0.26030698,0.13933357,0.,-0.05876336,-0.00270346,0
 .,-0.00703298,0.02545689,0.,0.01761170,-0.03784112,0.,-0.15586232,-0.0
 9393738,0.,-0.00385731,-0.00251628,0.,0.00109029,0.00057082,0.,0.00936
 632,0.02796459,0.,-0.00646417,-0.00129691,0.,-0.00051809,0.00141501,0.
 ,0.00037736,-0.00025135,0.,-0.00019840,-0.00169349,0.,0.00020124,-0.00
 023536,0.,0.00738842,0.00528490,0.,0.00151266,-0.00224904,0.,0.0006742
 2,-0.00699510,0.,-0.00011343,-0.00005251,0.,0.00080617,-0.00052759,0.,
 0.82507897,0.05427990,-0.21381113,0.,0.05642437,0.07374718,0.,0.025456
 89,-0.07803301,0.,-0.10964349,-0.01244537,0.,0.00885411,-0.37652998,0.
 ,-0.00403645,-0.00137189,0.,0.00075418,-0.00053120,0.,-0.01180551,-0.0
 1407847,0.,-0.00046383,0.01022309,0.,0.00294357,-0.00183205,0.,-0.0000
 4198,0.00017894,0.,0.00017940,0.00030219,0.,-0.00001400,0.00002179,0.,
 0.03062791,-0.04535094,0.,0.00247803,0.00176437,0.,-0.00705571,0.00323
 816,0.,-0.00015311,0.00001969,0.,0.00088984,-0.00040251,0.,0.05421745,
 0.75625686,0.,0.,-0.06664250,0.,0.,0.00652964,0.,0.,-0.00715854,0.,0.,
 0.00695499,0.,0.,-0.06247173,0.,0.,0.00773334,0.,0.,-0.00090369,0.,0.,
 0.00370906,0.,0.,0.00691520,0.,0.,-0.00045676,0.,0.,0.00014681,0.,0.,-
 0.00000147,0.,0.,-0.00033565,0.,0.,0.00394334,0.,0.,-0.00087657,0.,0.,
 0.00143990,0.,0.,0.00003357,0.,0.,0.00002964,0.,0.,0.14133572,-0.01448
 395,-0.01286676,0.,-0.00142396,0.00399685,0.,0.00109029,0.00075418,0.,
 0.00125230,-0.00011850,0.,0.00103572,0.00612129,0.,-0.00078837,-0.0006
 4760,0.,-0.00020346,-0.00016476,0.,0.00118891,0.00022071,0.,0.00005040
 ,0.00008545,0.,-0.00000707,-0.00001314,0.,-0.00000048,-0.00002395,0.,0
 .00003007,0.00000321,0.,0.00000854,0.00001107,0.,0.00155522,-0.0020973
 8,0.,0.00008748,0.00053444,0.,0.00016322,-0.00010634,0.,-0.00004128,-0
 .00007510,0.,0.00003884,0.00008942,0.,-0.37099032,-0.10389156,0.,0.381
 43792,0.02407709,0.00972169,0.,0.00243622,-0.00378791,0.,0.00057082,-0
 .00053120,0.,0.00133442,-0.00528473,0.,-0.03336825,-0.00531528,0.,0.00
 116006,0.00060374,0.,-0.00016476,0.00012612,0.,-0.00000489,0.00186351,
 0.,-0.00153827,0.00024419,0.,-0.00002234,0.00005712,0.,-0.00002688,-0.
 00003295,0.,-0.00005975,-0.00046886,0.,0.00004785,-0.00001733,0.,0.002
 05434,0.00151910,0.,-0.00041328,-0.00009260,0.,-0.00030250,-0.00005430
 ,0.,-0.00002380,0.00008677,0.,-0.00000088,-0.00002522,0.,-0.10394364,-
 0.10136571,0.,0.10818845,0.10275385,0.,0.,0.00244790,0.,0.,0.00738481,
 0.,0.,-0.00090369,0.,0.,0.00880491,0.,0.,0.00337886,0.,0.,0.00015378,0
 .,0.,-0.00106613,0.,0.,-0.00511947,0.,0.,0.00015960,0.,0.,0.00002598,0
 .,0.,0.00001356,0.,0.,-0.00022649,0.,0.,0.00000425,0.,0.,-0.00387266,0
 .,0.,-0.00005400,0.,0.,0.00012266,0.,0.,-0.00008681,0.,0.,0.00032677,0
 .,0.,-0.03992430,0.,0.,0.02843047\\-0.00003939,-0.00002996,0.,0.000014
 98,-0.00002811,0.,-0.00001071,0.00001928,0.,0.00003939,0.00002996,0.,-
 0.00001498,0.00002811,0.,0.00000003,-0.00000019,0.,0.00000452,-0.00000
 233,0.,-0.00000003,0.00000019,0.,-0.00003366,-0.00004964,0.,-0.0000200
 4,0.00001113,0.,0.00001339,0.00001229,0.,0.00000769,0.00000114,0.,0.00
 000273,-0.00000232,0.,0.00003366,0.00004964,0.,-0.00000769,-0.00000114
 ,0.,0.00002004,-0.00001113,0.,-0.00001339,-0.00001229,0.,-0.00000273,0
 .00000232,0.,0.00001071,-0.00001928,0.,-0.00000452,0.00000233,0.\\\@
 The archive entry for this job was punched.


 WHEN ALL ELSE FAILS, TRY THE BOSS'S SUGGESTION.
 Job cpu time:       0 days  0 hours  0 minutes 51.7 seconds.
 Elapsed time:       0 days  0 hours  0 minutes 53.7 seconds.
 File lengths (MBytes):  RWF=     83 Int=      0 D2E=      0 Chk=      2 Scr=      2
 Normal termination of Gaussian 16 at Wed Dec  1 08:53:11 2021.
