 Entering Gaussian System, Link 0=g16
 Initial command:
 /ihome/crc/build/gaussian/a03/g16/l1.exe "/scratch/slurm-4095625/Gau-112532.inp" -scrdir="/scratch/slurm-4095625/"
 Entering Link 1 = /ihome/crc/build/gaussian/a03/g16/l1.exe PID=    112533.
  
 Copyright (c) 1988,1990,1992,1993,1995,1998,2003,2009,2016,
            Gaussian, Inc.  All Rights Reserved.
  
 This is part of the Gaussian(R) 16 program.  It is based on
 the Gaussian(R) 09 system (copyright 2009, Gaussian, Inc.),
 the Gaussian(R) 03 system (copyright 2003, Gaussian, Inc.),
 the Gaussian(R) 98 system (copyright 1998, Gaussian, Inc.),
 the Gaussian(R) 94 system (copyright 1995, Gaussian, Inc.),
 the Gaussian 92(TM) system (copyright 1992, Gaussian, Inc.),
 the Gaussian 90(TM) system (copyright 1990, Gaussian, Inc.),
 the Gaussian 88(TM) system (copyright 1988, Gaussian, Inc.),
 the Gaussian 86(TM) system (copyright 1986, Carnegie Mellon
 University), and the Gaussian 82(TM) system (copyright 1983,
 Carnegie Mellon University). Gaussian is a federally registered
 trademark of Gaussian, Inc.
  
 This software contains proprietary and confidential information,
 including trade secrets, belonging to Gaussian, Inc.
  
 This software is provided under written license and may be
 used, copied, transmitted, or stored only in accord with that
 written license.
  
 The following legend is applicable only to US Government
 contracts under FAR:
  
                    RESTRICTED RIGHTS LEGEND
  
 Use, reproduction and disclosure by the US Government is
 subject to restrictions as set forth in subparagraphs (a)
 and (c) of the Commercial Computer Software - Restricted
 Rights clause in FAR 52.227-19.
  
 Gaussian, Inc.
 340 Quinnipiac St., Bldg. 40, Wallingford CT 06492
  
  
 ---------------------------------------------------------------
 Warning -- This program may not be used in any manner that
 competes with the business of Gaussian, Inc. or will provide
 assistance to any competitor of Gaussian, Inc.  The licensee
 of this program is prohibited from giving any competitor of
 Gaussian, Inc. access to this program.  By using this program,
 the user acknowledges that Gaussian, Inc. is engaged in the
 business of creating and licensing software in the field of
 computational chemistry and represents and warrants to the
 licensee that it is not a competitor of Gaussian, Inc. and that
 it will not use this program in any manner prohibited above.
 ---------------------------------------------------------------
  

 Cite this work as:
 Gaussian 16, Revision A.03,
 M. J. Frisch, G. W. Trucks, H. B. Schlegel, G. E. Scuseria, 
 M. A. Robb, J. R. Cheeseman, G. Scalmani, V. Barone, 
 G. A. Petersson, H. Nakatsuji, X. Li, M. Caricato, A. V. Marenich, 
 J. Bloino, B. G. Janesko, R. Gomperts, B. Mennucci, H. P. Hratchian, 
 J. V. Ortiz, A. F. Izmaylov, J. L. Sonnenberg, D. Williams-Young, 
 F. Ding, F. Lipparini, F. Egidi, J. Goings, B. Peng, A. Petrone, 
 T. Henderson, D. Ranasinghe, V. G. Zakrzewski, J. Gao, N. Rega, 
 G. Zheng, W. Liang, M. Hada, M. Ehara, K. Toyota, R. Fukuda, 
 J. Hasegawa, M. Ishida, T. Nakajima, Y. Honda, O. Kitao, H. Nakai, 
 T. Vreven, K. Throssell, J. A. Montgomery, Jr., J. E. Peralta, 
 F. Ogliaro, M. J. Bearpark, J. J. Heyd, E. N. Brothers, K. N. Kudin, 
 V. N. Staroverov, T. A. Keith, R. Kobayashi, J. Normand, 
 K. Raghavachari, A. P. Rendell, J. C. Burant, S. S. Iyengar, 
 J. Tomasi, M. Cossi, J. M. Millam, M. Klene, C. Adamo, R. Cammi, 
 J. W. Ochterski, R. L. Martin, K. Morokuma, O. Farkas, 
 J. B. Foresman, and D. J. Fox, Gaussian, Inc., Wallingford CT, 2016.
 
 ******************************************
 Gaussian 16:  ES64L-G16RevA.03 25-Dec-2016
                28-May-2020 
 ******************************************
 %chk=dvb_scan_unrelaxed.chk
 %mem=400MB
 %nproc=4
 Will use up to    4 processors via shared memory.
 ---------------------------------
 #p b3lyp/sto-3g Scan geom=nocrowd
 ---------------------------------
 1/38=1,60=1,172=1/1,8;
 2/12=1,17=6,18=5,29=3,40=1/2;
 3/6=3,11=2,25=1,30=1,74=-5/1,2,3;
 4//1;
 5/5=2,38=5/2;
 6/7=2,8=2,9=2,10=2,18=1,28=1/1;
 1/60=1/8(1);
 99/9=1/99;
 2/12=1,29=3/2;
 3/6=3,11=2,25=1,30=1,74=-5/1,2,3;
 4/5=5,16=3,69=1/1;
 5/5=2,38=5/2;
 1/60=1/8(-4);
 99/9=1/99;
 Leave Link    1 at Thu May 28 01:22:07 2020, MaxMem=    52428800 cpu:               0.1 elap:               0.1
 (Enter /ihome/crc/build/gaussian/a03/g16/l101.exe)
 -----------------
 DVB scan dihedral
 -----------------
 Symbolic Z-matrix:
 Charge =  0 Multiplicity = 1
 C
 C                    1    B1
 C                    2    B2       1    A1
 C                    3    B3       2    A2       1    D1       0
 C                    4    B4       3    A3       2    D2       0
 H                    2    B5       1    A4       5    D3       0
 H                    3    B6       2    A5       1    D4       0
 H                    5    B7       4    A6       3    D5       0
 C                    4    B8       3    A7       2    D6       0
 C                    9    B9       4    A8       3    D7       0
 H                    10   B10      9    A9       4    D8       0
 H                    9    B11      4    A10      3    D9       0
 H                    10   B12      9    A11      4    D10      0
 C                    1    B13      2    A12      3    D11      0
 H                    14   B14      1    A13      2    D12      0
 C                    14   B15      1    A14      2    D13      0
 H                    16   B16      14   A15      1    D14      0
 H                    16   B17      14   A16      1    D15      0
 C                    5    B18      4    A17      3    D16      0
 H                    19   B19      5    A18      4    D17      0
       Variables:
  B1                    1.39156                  
  B2                    1.3892                   
  B3                    1.36618                  
  B4                    1.39156                  
  B5                    1.09492                  
  B6                    1.09599                  
  B7                    1.09492                  
  B8                    1.48585                  
  B9                    1.34293                  
  B10                   1.10355                  
  B11                   1.0983                   
  B12                   1.07                     
  B13                   1.48585                  
  B14                   1.0983                   
  B15                   1.34293                  
  B16                   1.10355                  
  B17                   1.07                     
  B18                   1.3892                   
  B19                   1.09599                  
  A1                  120.26062                  
  A2                  119.60308                  
  A3                  120.13631                  
  A4                  119.89927                  
  A5                  119.94428                  
  A6                  119.89927                  
  A7                  119.97332                  
  A8                  123.60169                  
  A9                  119.56877                  
  A10                 115.51295                  
  A11                 122.34164                  
  A12                 119.89037                  
  A13                 115.51295                  
  A14                 123.60169                  
  A15                 119.56877                  
  A16                 122.34164                  
  A17                 120.26062                  
  A18                 119.94428                  
  D1                    0.                       
  D2                    0.                       
  D3                  180.                       
  D4                  180.                       
  D5                  180.                       
  D6                  180.                       
  D7                 -180.     Scan 12   30.     
  D8                    0.                       
  D9                    0.                       
  D10                 180.                       
  D11                 180.                       
  D12                 180.                       
  D13                   0.                       
  D14                   0.                       
  D15                 180.                       
  D16                   0.                       
  D17                 180.                       
 
 ITRead=  0  0  0  0  0  0  0  0  0  0  0  0  0  0  0  0  0  0  0  0
 MicOpt= -1 -1 -1 -1 -1 -1 -1 -1 -1 -1 -1 -1 -1 -1 -1 -1 -1 -1 -1 -1
 NAtoms=     20 NQM=       20 NQMF=       0 NMMI=      0 NMMIF=      0
                NMic=       0 NMicF=      0.
                    Isotopes and Nuclear Properties:
 (Nuclear quadrupole moments (NQMom) in fm**2, nuclear magnetic moments (NMagM)
  in nuclear magnetons)

  Atom         1           2           3           4           5           6           7           8           9          10
 IAtWgt=          12          12          12          12          12           1           1           1          12          12
 AtmWgt=  12.0000000  12.0000000  12.0000000  12.0000000  12.0000000   1.0078250   1.0078250   1.0078250  12.0000000  12.0000000
 NucSpn=           0           0           0           0           0           1           1           1           0           0
 AtZEff=  -0.0000000  -0.0000000  -0.0000000  -0.0000000  -0.0000000  -0.0000000  -0.0000000  -0.0000000  -0.0000000  -0.0000000
 NQMom=    0.0000000   0.0000000   0.0000000   0.0000000   0.0000000   0.0000000   0.0000000   0.0000000   0.0000000   0.0000000
 NMagM=    0.0000000   0.0000000   0.0000000   0.0000000   0.0000000   2.7928460   2.7928460   2.7928460   0.0000000   0.0000000
 AtZNuc=   6.0000000   6.0000000   6.0000000   6.0000000   6.0000000   1.0000000   1.0000000   1.0000000   6.0000000   6.0000000

  Atom        11          12          13          14          15          16          17          18          19          20
 IAtWgt=           1           1           1          12           1          12           1           1          12           1
 AtmWgt=   1.0078250   1.0078250   1.0078250  12.0000000   1.0078250  12.0000000   1.0078250   1.0078250  12.0000000   1.0078250
 NucSpn=           1           1           1           0           1           0           1           1           0           1
 AtZEff=  -0.0000000  -0.0000000  -0.0000000  -0.0000000  -0.0000000  -0.0000000  -0.0000000  -0.0000000  -0.0000000  -0.0000000
 NQMom=    0.0000000   0.0000000   0.0000000   0.0000000   0.0000000   0.0000000   0.0000000   0.0000000   0.0000000   0.0000000
 NMagM=    2.7928460   2.7928460   2.7928460   0.0000000   2.7928460   0.0000000   2.7928460   2.7928460   0.0000000   2.7928460
 AtZNuc=   1.0000000   1.0000000   1.0000000   6.0000000   1.0000000   6.0000000   1.0000000   1.0000000   6.0000000   1.0000000
 Leave Link  101 at Thu May 28 01:22:07 2020, MaxMem=    52428800 cpu:               0.4 elap:               0.1
 (Enter /ihome/crc/build/gaussian/a03/g16/l108.exe)
 Scan the potential surface.
 Variable   Value     No. Steps Step-Size
 -------- ----------- --------- ---------
    44    -180.000000      12     30.0000
 A total of     13 points will be computed.
 Leave Link  108 at Thu May 28 01:22:07 2020, MaxMem=    52428800 cpu:               0.1 elap:               0.0
 (Enter /ihome/crc/build/gaussian/a03/g16/l202.exe)
 ---------------------------------------------------------------------------------------------------
                            Z-MATRIX (ANGSTROMS AND DEGREES)
   CD    Cent   Atom    N1       Length/X        N2       Alpha/Y        N3        Beta/Z          J
 ---------------------------------------------------------------------------------------------------
      1      1  C 
      2      2  C        1   1.391558(     1)
      3      3  C        2   1.389201(     2)      1  120.261(    20)
      4      4  C        3   1.366177(     3)      2  119.603(    21)      1    0.000(    38)      0
      5      5  C        4   1.391558(     4)      3  120.136(    22)      2    0.000(    39)      0
      6      6  H        2   1.094918(     5)      1  119.899(    23)      5  180.000(    40)      0
      7      7  H        3   1.095985(     6)      2  119.944(    24)      1  180.000(    41)      0
      8      8  H        5   1.094918(     7)      4  119.899(    25)      3  180.000(    42)      0
      9      9  C        4   1.485853(     8)      3  119.973(    26)      2  180.000(    43)      0
     10     10  C        9   1.342926(     9)      4  123.602(    27)      3 -180.000(    44)      0
     11     11  H       10   1.103548(    10)      9  119.569(    28)      4    0.000(    45)      0
     12     12  H        9   1.098298(    11)      4  115.513(    29)      3    0.000(    46)      0
     13     13  H       10   1.070000(    12)      9  122.342(    30)      4  180.000(    47)      0
     14     14  C        1   1.485853(    13)      2  119.890(    31)      3  180.000(    48)      0
     15     15  H       14   1.098298(    14)      1  115.513(    32)      2  180.000(    49)      0
     16     16  C       14   1.342926(    15)      1  123.602(    33)      2    0.000(    50)      0
     17     17  H       16   1.103548(    16)     14  119.569(    34)      1    0.000(    51)      0
     18     18  H       16   1.070000(    17)     14  122.342(    35)      1  180.000(    52)      0
     19     19  C        5   1.389201(    18)      4  120.261(    36)      3    0.000(    53)      0
     20     20  H       19   1.095985(    19)      5  119.944(    37)      4  180.000(    54)      0
 ---------------------------------------------------------------------------------------------------
                         Z-Matrix orientation:                         
 ---------------------------------------------------------------------
 Center     Atomic      Atomic             Coordinates (Angstroms)
 Number     Number       Type             X           Y           Z
 ---------------------------------------------------------------------
      1          6           0        0.000000    0.000000    0.000000
      2          6           0        0.000000    0.000000    1.391558
      3          6           0        1.199912    0.000000    2.091623
      4          6           0        2.381427    0.000000    1.405722
      5          6           0        2.381427    0.000000    0.014165
      6          1           0       -0.949187    0.000000    1.937349
      7          1           0        1.193861    0.000000    3.187592
      8          1           0        3.330614    0.000000   -0.531626
      9          6           0        3.669632    0.000000    2.146185
     10          6           0        4.871380    0.000000    1.546808
     11          1           0        4.930305    0.000000    0.444834
     12          1           0        3.585803    0.000000    3.241279
     13          1           0        5.787099    0.000000    2.100305
     14          6           0       -1.288205   -0.000000   -0.740463
     15          1           0       -1.204377   -0.000000   -1.835557
     16          6           0       -2.489953   -0.000000   -0.141086
     17          1           0       -2.548878   -0.000000    0.960888
     18          1           0       -3.405672   -0.000000   -0.694583
     19          6           0        1.181515    0.000000   -0.685901
     20          1           0        1.187566    0.000000   -1.781870
 ---------------------------------------------------------------------
                    Distance matrix (angstroms):
                    1          2          3          4          5
     1  C    0.000000
     2  C    1.391558   0.000000
     3  C    2.411364   1.389201   0.000000
     4  C    2.765366   2.381469   1.366177   0.000000
     5  C    2.381469   2.751073   2.389940   1.391558   0.000000
     6  H    2.157377   1.094918   2.154629   3.372776   3.845988
     7  H    3.403828   2.156628   1.095985   2.141349   3.388356
     8  H    3.372776   3.845988   3.379546   2.157377   1.094918
     9  C    4.251154   3.746420   2.470323   1.485853   2.490981
    10  C    5.111062   4.873853   3.711671   2.493947   2.923844
    11  H    4.950332   5.020378   4.077714   2.723984   2.585006
    12  H    4.833620   4.034781   2.648431   2.195403   3.444531
    13  H    6.156443   5.830337   4.587195   3.475780   3.993818
    14  C    1.485853   2.490981   3.769806   4.251154   3.746420
    15  H    2.195403   3.444531   4.604709   4.833620   4.034781
    16  C    2.493947   2.923844   4.312782   5.111062   4.873853
    17  H    2.723984   2.585006   3.915608   4.950332   5.020378
    18  H    3.475780   3.993818   5.382782   6.156443   5.830337
    19  C    1.366177   2.389940   2.777585   2.411364   1.389201
    20  H    2.141349   3.388356   3.873513   3.403828   2.156628
                    6          7          8          9         10
     6  H    0.000000
     7  H    2.481081   0.000000
     8  H    4.940905   4.289324   0.000000
     9  C    4.623538   2.685884   2.699186   0.000000
    10  C    5.833654   4.026949   2.587247   1.342926   0.000000
    11  H    6.065973   4.635055   1.874163   2.117520   1.103548
    12  H    4.718726   2.392545   3.781526   1.098298   2.126955
    13  H    6.738257   4.720173   3.600191   2.117963   1.070000
    14  C    2.699186   4.646533   4.623538   5.736976   6.570548
    15  H    3.781526   5.566289   4.718726   6.293666   6.953791
    16  C    2.587247   4.964935   5.833654   6.570548   7.552364
    17  H    1.874163   4.355032   6.065973   6.330466   7.443355
    18  H    3.600191   6.018885   6.738257   7.624296   8.575163
    19  C    3.379546   3.873513   2.154629   3.769806   4.312782
    20  H    4.289324   4.969466   2.481081   4.646533   4.964935
                   11         12         13         14         15
    11  H    0.000000
    12  H    3.102868   0.000000
    13  H    1.864049   2.479420   0.000000
    14  C    6.330466   6.293666   7.624296   0.000000
    15  H    6.544807   6.979978   8.023200   1.098298   0.000000
    16  C    7.443355   6.953791   8.575163   1.342926   2.126955
    17  H    7.496966   6.544807   8.413488   2.117520   3.102868
    18  H    8.413488   8.023200   9.608248   2.117963   2.479420
    19  C    3.915608   4.604709   5.382782   2.470323   2.648431
    20  H    4.355032   5.566289   6.018885   2.685884   2.392545
                   16         17         18         19         20
    16  C    0.000000
    17  H    1.103548   0.000000
    18  H    1.070000   1.864049   0.000000
    19  C    3.711671   4.077714   4.587195   0.000000
    20  H    4.026949   4.635055   4.720173   1.095985   0.000000
 Stoichiometry    C10H10
 Framework group  C2H[SGH(C10H10)]
 Deg. of freedom    19
 Full point group                 C2H     NOp   4
 Largest Abelian subgroup         C2H     NOp   4
 Largest concise Abelian subgroup C2      NOp   2
                         Standard orientation:                         
 ---------------------------------------------------------------------
 Center     Atomic      Atomic             Coordinates (Angstroms)
 Number     Number       Type             X           Y           Z
 ---------------------------------------------------------------------
      1          6           0        1.205666    0.676891    0.000000
      2          6           0        0.002200    1.375535    0.000000
      3          6           0       -1.205666    0.689286    0.000000
      4          6           0       -1.205666   -0.676891    0.000000
      5          6           0       -0.002200   -1.375535    0.000000
      6          1           0        0.006730    2.470443    0.000000
      7          1           0       -2.150459    1.244759    0.000000
      8          1           0       -0.006730   -2.470443    0.000000
      9          6           0       -2.492798   -1.419218    0.000000
     10          6           0       -2.577785   -2.759452    0.000000
     11          1           0       -1.654345   -3.363669    0.000000
     12          1           0       -3.397785   -0.796919    0.000000
     13          1           0       -3.516212   -3.273509    0.000000
     14          6           0        2.492798    1.419218    0.000000
     15          1           0        3.397785    0.796919    0.000000
     16          6           0        2.577785    2.759452    0.000000
     17          1           0        1.654345    3.363669    0.000000
     18          1           0        3.516212    3.273509    0.000000
     19          6           0        1.205666   -0.689286    0.000000
     20          1           0        2.150459   -1.244759    0.000000
 ---------------------------------------------------------------------
 Rotational constants (GHZ):           4.6786942           0.7288286           0.6305967
 Leave Link  202 at Thu May 28 01:22:08 2020, MaxMem=    52428800 cpu:               0.3 elap:               0.1
 (Enter /ihome/crc/build/gaussian/a03/g16/l301.exe)
 Standard basis: STO-3G (5D, 7F)
 Ernie: Thresh=  0.10000D-02 Tol=  0.10000D-05 Strict=F.
 There are    25 symmetry adapted cartesian basis functions of AG  symmetry.
 There are     5 symmetry adapted cartesian basis functions of BG  symmetry.
 There are     5 symmetry adapted cartesian basis functions of AU  symmetry.
 There are    25 symmetry adapted cartesian basis functions of BU  symmetry.
 There are    25 symmetry adapted basis functions of AG  symmetry.
 There are     5 symmetry adapted basis functions of BG  symmetry.
 There are     5 symmetry adapted basis functions of AU  symmetry.
 There are    25 symmetry adapted basis functions of BU  symmetry.
    60 basis functions,   180 primitive gaussians,    60 cartesian basis functions
    35 alpha electrons       35 beta electrons
       nuclear repulsion energy       455.3072831857 Hartrees.
 IExCor=  402 DFT=T Ex+Corr=B3LYP ExCW=0 ScaHFX=  0.200000
 ScaDFX=  0.800000  0.720000  1.000000  0.810000 ScalE2=  1.000000  1.000000
 IRadAn=      5 IRanWt=     -1 IRanGd=            0 ICorTp=0 IEmpDi=  4
 NAtoms=   20 NActive=   20 NUniq=   10 SFac= 4.00D+00 NAtFMM=   60 NAOKFM=F Big=F
 Integral buffers will be    131072 words long.
 Raffenetti 2 integral format.
 Two-electron integral symmetry is turned on.
 Leave Link  301 at Thu May 28 01:22:08 2020, MaxMem=    52428800 cpu:               0.2 elap:               0.1
 (Enter /ihome/crc/build/gaussian/a03/g16/l302.exe)
 NPDir=0 NMtPBC=     1 NCelOv=     1 NCel=       1 NClECP=     1 NCelD=      1
         NCelK=      1 NCelE2=     1 NClLst=     1 CellRange=     0.0.
 One-electron integrals computed using PRISM.
 One-electron integral symmetry used in STVInt
 NBasis=    60 RedAO= T EigKep=  1.64D-01  NBF=    25     5     5    25
 NBsUse=    60 1.00D-06 EigRej= -1.00D+00 NBFU=    25     5     5    25
 Precomputing XC quadrature grid using
 IXCGrd= 4 IRadAn=           5 IRanWt=          -1 IRanGd=           0 AccXCQ= 0.00D+00.
 Generated NRdTot=       0 NPtTot=           0 NUsed=           0 NTot=          32
 NSgBfM=    59    59    59    59    59 MxSgAt=    20 MxSgA2=    20.
 Leave Link  302 at Thu May 28 01:22:09 2020, MaxMem=    52428800 cpu:               2.1 elap:               0.7
 (Enter /ihome/crc/build/gaussian/a03/g16/l303.exe)
 DipDrv:  MaxL=1.
 Leave Link  303 at Thu May 28 01:22:09 2020, MaxMem=    52428800 cpu:               0.3 elap:               0.1
 (Enter /ihome/crc/build/gaussian/a03/g16/l401.exe)
 ExpMin= 1.69D-01 ExpMax= 7.16D+01 ExpMxC= 7.16D+01 IAcc=3 IRadAn=         5 AccDes= 0.00D+00
 Harris functional with IExCor=  402 and IRadAn=       5 diagonalized for initial guess.
 HarFok:  IExCor=  402 AccDes= 0.00D+00 IRadAn=         5 IDoV= 1 UseB2=F ITyADJ=14
 ICtDFT=  3500011 ScaDFX=  1.000000  1.000000  1.000000  1.000000
 FoFCou: FMM=F IPFlag=           0 FMFlag=      100000 FMFlg1=           0
         NFxFlg=           0 DoJE=T BraDBF=F KetDBF=T FulRan=T
         wScrn=  0.000000 ICntrl=       500 IOpCl=  0 I1Cent=   200000004 NGrid=           0
         NMat0=    1 NMatS0=      1 NMatT0=    0 NMatD0=    1 NMtDS0=    0 NMtDT0=    0
 Petite list used in FoFCou.
 Harris En= -382.191498862522    
 JPrj=0 DoOrth=F DoCkMO=F.
 Initial guess orbital symmetries:
       Occupied  (BU) (AG) (BU) (AG) (BU) (AG) (BU) (AG) (BU) (AG)
                 (AG) (BU) (AG) (BU) (BU) (AG) (AG) (BU) (AG) (AG)
                 (BU) (BU) (AG) (BU) (BU) (BU) (AG) (AU) (AG) (BU)
                 (AG) (BG) (AU) (BG) (BG)
       Virtual   (AU) (AU) (BG) (AU) (BG) (BU) (AG) (BU) (AG) (AG)
                 (BU) (BU) (AG) (BU) (AG) (AG) (BU) (AG) (BU) (BU)
                 (AG) (AG) (BU) (AG) (BU)
 The electronic state of the initial guess is 1-AG.
 Leave Link  401 at Thu May 28 01:22:10 2020, MaxMem=    52428800 cpu:               2.2 elap:               0.8
 (Enter /ihome/crc/build/gaussian/a03/g16/l502.exe)
 Keep R1 ints in memory in symmetry-blocked form, NReq=5217937.
 FoFCou: FMM=F IPFlag=           0 FMFlag=           0 FMFlg1=           0
         NFxFlg=           0 DoJE=F BraDBF=F KetDBF=F FulRan=T
         wScrn=  0.000000 ICntrl=       600 IOpCl=  0 I1Cent=           0 NGrid=           0
         NMat0=    1 NMatS0=   1830 NMatT0=    0 NMatD0=    1 NMtDS0=    0 NMtDT0=    0
 Petite list used in FoFCou.
 Closed shell SCF:
 Using DIIS extrapolation, IDIIS=  1040.
 NGot=    52428800 LenX=    51908911 LenY=    51904870
 Requested convergence on RMS density matrix=1.00D-08 within 128 cycles.
 Requested convergence on MAX density matrix=1.00D-06.
 Requested convergence on             energy=1.00D-06.
 No special actions if energy rises.
 Integral accuracy reduced to 1.0D-05 until final iterations.

 Cycle   1  Pass 0  IDiag  1:
 E= -382.238710471772    
 DIIS: error= 1.88D-02 at cycle   1 NSaved=   1.
 NSaved= 1 IEnMin= 1 EnMin= -382.238710471772     IErMin= 1 ErrMin= 1.88D-02
 ErrMax= 1.88D-02  0.00D+00 EMaxC= 1.00D-01 BMatC= 4.01D-02 BMatP= 4.01D-02
 IDIUse=3 WtCom= 8.12D-01 WtEn= 1.88D-01
 Coeff-Com:  0.100D+01
 Coeff-En:   0.100D+01
 Coeff:      0.100D+01
 Gap=     0.200 Goal=   None    Shift=    0.000
 GapD=    0.200 DampG=1.000 DampE=0.500 DampFc=0.5000 IDamp=-1.
 Damping current iteration by 5.00D-01
 RMSDP=7.90D-03 MaxDP=1.03D-01              OVMax= 3.21D-02

 Cycle   2  Pass 0  IDiag  1:
 E= -382.268968159679     Delta-E=       -0.030257687907 Rises=F Damp=T
 DIIS: error= 5.49D-03 at cycle   2 NSaved=   2.
 NSaved= 2 IEnMin= 2 EnMin= -382.268968159679     IErMin= 2 ErrMin= 5.49D-03
 ErrMax= 5.49D-03  0.00D+00 EMaxC= 1.00D-01 BMatC= 3.17D-03 BMatP= 4.01D-02
 IDIUse=3 WtCom= 9.45D-01 WtEn= 5.49D-02
 Coeff-Com: -0.245D+00 0.124D+01
 Coeff-En:   0.000D+00 0.100D+01
 Coeff:     -0.231D+00 0.123D+01
 Gap=     0.201 Goal=   None    Shift=    0.000
 RMSDP=1.97D-03 MaxDP=3.59D-02 DE=-3.03D-02 OVMax= 4.84D-02

 Cycle   3  Pass 0  IDiag  1:
 E= -382.290488973906     Delta-E=       -0.021520814227 Rises=F Damp=F
 DIIS: error= 8.75D-03 at cycle   3 NSaved=   3.
 NSaved= 3 IEnMin= 3 EnMin= -382.290488973906     IErMin= 2 ErrMin= 5.49D-03
 ErrMax= 8.75D-03  0.00D+00 EMaxC= 1.00D-01 BMatC= 2.97D-03 BMatP= 3.17D-03
 IDIUse=3 WtCom= 9.12D-01 WtEn= 8.75D-02
 Coeff-Com: -0.182D+00 0.751D+00 0.432D+00
 Coeff-En:   0.000D+00 0.000D+00 0.100D+01
 Coeff:     -0.166D+00 0.685D+00 0.481D+00
 Gap=     0.200 Goal=   None    Shift=    0.000
 RMSDP=1.45D-03 MaxDP=3.65D-02 DE=-2.15D-02 OVMax= 2.96D-02

 Cycle   4  Pass 0  IDiag  1:
 E= -382.293890680519     Delta-E=       -0.003401706614 Rises=F Damp=F
 DIIS: error= 2.91D-03 at cycle   4 NSaved=   4.
 NSaved= 4 IEnMin= 4 EnMin= -382.293890680519     IErMin= 4 ErrMin= 2.91D-03
 ErrMax= 2.91D-03  0.00D+00 EMaxC= 1.00D-01 BMatC= 3.04D-04 BMatP= 2.97D-03
 IDIUse=3 WtCom= 9.71D-01 WtEn= 2.91D-02
 Coeff-Com: -0.900D-02 0.237D-01 0.247D+00 0.738D+00
 Coeff-En:   0.000D+00 0.000D+00 0.105D+00 0.895D+00
 Coeff:     -0.873D-02 0.230D-01 0.243D+00 0.743D+00
 Gap=     0.201 Goal=   None    Shift=    0.000
 RMSDP=3.70D-04 MaxDP=9.31D-03 DE=-3.40D-03 OVMax= 8.02D-03

 Cycle   5  Pass 0  IDiag  1:
 E= -382.294275780267     Delta-E=       -0.000385099748 Rises=F Damp=F
 DIIS: error= 2.58D-04 at cycle   5 NSaved=   5.
 NSaved= 5 IEnMin= 5 EnMin= -382.294275780267     IErMin= 5 ErrMin= 2.58D-04
 ErrMax= 2.58D-04  0.00D+00 EMaxC= 1.00D-01 BMatC= 3.78D-06 BMatP= 3.04D-04
 IDIUse=3 WtCom= 9.97D-01 WtEn= 2.58D-03
 Coeff-Com: -0.268D-02 0.414D-02 0.124D+00 0.396D+00 0.479D+00
 Coeff-En:   0.000D+00 0.000D+00 0.000D+00 0.000D+00 0.100D+01
 Coeff:     -0.267D-02 0.413D-02 0.123D+00 0.395D+00 0.481D+00
 Gap=     0.201 Goal=   None    Shift=    0.000
 RMSDP=4.15D-05 MaxDP=6.40D-04 DE=-3.85D-04 OVMax= 5.40D-04

 Cycle   6  Pass 0  IDiag  1:
 E= -382.294280317901     Delta-E=       -0.000004537634 Rises=F Damp=F
 DIIS: error= 1.83D-05 at cycle   6 NSaved=   6.
 NSaved= 6 IEnMin= 6 EnMin= -382.294280317901     IErMin= 6 ErrMin= 1.83D-05
 ErrMax= 1.83D-05  0.00D+00 EMaxC= 1.00D-01 BMatC= 9.22D-09 BMatP= 3.78D-06
 IDIUse=1 WtCom= 1.00D+00 WtEn= 0.00D+00
 Coeff-Com:  0.665D-04-0.352D-03 0.488D-02 0.148D-01 0.510D-01 0.930D+00
 Coeff:      0.665D-04-0.352D-03 0.488D-02 0.148D-01 0.510D-01 0.930D+00
 Gap=     0.201 Goal=   None    Shift=    0.000
 RMSDP=3.11D-06 MaxDP=3.73D-05 DE=-4.54D-06 OVMax= 8.53D-05

 Initial convergence to 1.0D-05 achieved.  Increase integral accuracy.
 Cycle   7  Pass 1  IDiag  1:
 E= -382.294279144739     Delta-E=        0.000001173162 Rises=F Damp=F
 DIIS: error= 3.74D-06 at cycle   1 NSaved=   1.
 NSaved= 1 IEnMin= 1 EnMin= -382.294279144739     IErMin= 1 ErrMin= 3.74D-06
 ErrMax= 3.74D-06  0.00D+00 EMaxC= 1.00D-01 BMatC= 9.28D-10 BMatP= 9.28D-10
 IDIUse=1 WtCom= 1.00D+00 WtEn= 0.00D+00
 Coeff-Com:  0.100D+01
 Coeff:      0.100D+01
 Gap=     0.201 Goal=   None    Shift=    0.000
 RMSDP=3.11D-06 MaxDP=3.73D-05 DE= 1.17D-06 OVMax= 1.54D-05

 Cycle   8  Pass 1  IDiag  1:
 E= -382.294279145141     Delta-E=       -0.000000000401 Rises=F Damp=F
 DIIS: error= 3.03D-06 at cycle   2 NSaved=   2.
 NSaved= 2 IEnMin= 2 EnMin= -382.294279145141     IErMin= 2 ErrMin= 3.03D-06
 ErrMax= 3.03D-06  0.00D+00 EMaxC= 1.00D-01 BMatC= 7.12D-10 BMatP= 9.28D-10
 IDIUse=1 WtCom= 1.00D+00 WtEn= 0.00D+00
 Coeff-Com:  0.466D+00 0.534D+00
 Coeff:      0.466D+00 0.534D+00
 Gap=     0.201 Goal=   None    Shift=    0.000
 RMSDP=7.35D-07 MaxDP=7.62D-06 DE=-4.01D-10 OVMax= 1.30D-05

 Cycle   9  Pass 1  IDiag  1:
 E= -382.294279146186     Delta-E=       -0.000000001045 Rises=F Damp=F
 DIIS: error= 7.47D-07 at cycle   3 NSaved=   3.
 NSaved= 3 IEnMin= 3 EnMin= -382.294279146186     IErMin= 3 ErrMin= 7.47D-07
 ErrMax= 7.47D-07  0.00D+00 EMaxC= 1.00D-01 BMatC= 1.89D-11 BMatP= 7.12D-10
 IDIUse=1 WtCom= 1.00D+00 WtEn= 0.00D+00
 Coeff-Com:  0.206D+00 0.252D+00 0.542D+00
 Coeff:      0.206D+00 0.252D+00 0.542D+00
 Gap=     0.201 Goal=   None    Shift=    0.000
 RMSDP=1.33D-07 MaxDP=3.31D-06 DE=-1.05D-09 OVMax= 2.52D-06

 Cycle  10  Pass 1  IDiag  1:
 E= -382.294279146203     Delta-E=       -0.000000000017 Rises=F Damp=F
 DIIS: error= 3.77D-07 at cycle   4 NSaved=   4.
 NSaved= 4 IEnMin= 4 EnMin= -382.294279146203     IErMin= 4 ErrMin= 3.77D-07
 ErrMax= 3.77D-07  0.00D+00 EMaxC= 1.00D-01 BMatC= 5.22D-12 BMatP= 1.89D-11
 IDIUse=1 WtCom= 1.00D+00 WtEn= 0.00D+00
 Coeff-Com: -0.607D-03 0.117D-01 0.346D+00 0.643D+00
 Coeff:     -0.607D-03 0.117D-01 0.346D+00 0.643D+00
 Gap=     0.201 Goal=   None    Shift=    0.000
 RMSDP=4.82D-08 MaxDP=1.15D-06 DE=-1.74D-11 OVMax= 1.11D-06

 Cycle  11  Pass 1  IDiag  1:
 E= -382.294279146209     Delta-E=       -0.000000000006 Rises=F Damp=F
 DIIS: error= 6.73D-08 at cycle   5 NSaved=   5.
 NSaved= 5 IEnMin= 5 EnMin= -382.294279146209     IErMin= 5 ErrMin= 6.73D-08
 ErrMax= 6.73D-08  0.00D+00 EMaxC= 1.00D-01 BMatC= 2.22D-13 BMatP= 5.22D-12
 IDIUse=1 WtCom= 1.00D+00 WtEn= 0.00D+00
 Coeff-Com: -0.882D-02-0.411D-02 0.165D+00 0.343D+00 0.505D+00
 Coeff:     -0.882D-02-0.411D-02 0.165D+00 0.343D+00 0.505D+00
 Gap=     0.201 Goal=   None    Shift=    0.000
 RMSDP=1.02D-08 MaxDP=1.70D-07 DE=-6.03D-12 OVMax= 1.44D-07

 Cycle  12  Pass 1  IDiag  1:
 E= -382.294279146210     Delta-E=       -0.000000000001 Rises=F Damp=F
 DIIS: error= 5.41D-09 at cycle   6 NSaved=   6.
 NSaved= 6 IEnMin= 6 EnMin= -382.294279146210     IErMin= 6 ErrMin= 5.41D-09
 ErrMax= 5.41D-09  0.00D+00 EMaxC= 1.00D-01 BMatC= 1.87D-15 BMatP= 2.22D-13
 IDIUse=1 WtCom= 1.00D+00 WtEn= 0.00D+00
 Coeff-Com: -0.175D-02-0.152D-02 0.134D-01 0.278D-01 0.102D+00 0.860D+00
 Coeff:     -0.175D-02-0.152D-02 0.134D-01 0.278D-01 0.102D+00 0.860D+00
 Gap=     0.201 Goal=   None    Shift=    0.000
 RMSDP=1.26D-09 MaxDP=1.27D-08 DE=-1.02D-12 OVMax= 1.97D-08

 SCF Done:  E(RB3LYP) =  -382.294279146     A.U. after   12 cycles
            NFock= 12  Conv=0.13D-08     -V/T= 2.0160
 KE= 3.762731372601D+02 PE=-1.795331837111D+03 EE= 5.814571375185D+02
 Leave Link  502 at Thu May 28 01:22:12 2020, MaxMem=    52428800 cpu:               5.0 elap:               1.4
 (Enter /ihome/crc/build/gaussian/a03/g16/l601.exe)
 Copying SCF densities to generalized density rwf, IOpCl= 0 IROHF=0.

 **********************************************************************

            Population analysis using the SCF density.

 **********************************************************************

 Orbital symmetries:
       Occupied  (BU) (AG) (BU) (AG) (AG) (BU) (BU) (AG) (BU) (AG)
                 (AG) (BU) (AG) (BU) (BU) (AG) (AG) (BU) (AG) (AG)
                 (BU) (BU) (BU) (AG) (BU) (BU) (AG) (AU) (BU) (AG)
                 (AG) (BG) (AU) (BG) (BG)
       Virtual   (AU) (AU) (BG) (AU) (BG) (AG) (BU) (AG) (BU) (BU)
                 (AG) (BU) (AG) (BU) (AG) (AG) (BU) (AG) (BU) (BU)
                 (AG) (AG) (BU) (AG) (BU)
 The electronic state is 1-AG.
 Alpha  occ. eigenvalues --  -10.01922 -10.01915 -10.00733 -10.00728 -10.00558
 Alpha  occ. eigenvalues --  -10.00557 -10.00551 -10.00540  -9.98966  -9.98966
 Alpha  occ. eigenvalues --   -0.82796  -0.76365  -0.72060  -0.70924  -0.67032
 Alpha  occ. eigenvalues --   -0.59492  -0.56528  -0.53402  -0.51553  -0.46363
 Alpha  occ. eigenvalues --   -0.44625  -0.41365  -0.40271  -0.39710  -0.37822
 Alpha  occ. eigenvalues --   -0.35387  -0.34850  -0.33887  -0.31250  -0.29779
 Alpha  occ. eigenvalues --   -0.28751  -0.27004  -0.21230  -0.19997  -0.15689
 Alpha virt. eigenvalues --    0.04399   0.09120   0.11237   0.18909   0.29009
 Alpha virt. eigenvalues --    0.33877   0.33892   0.37885   0.38932   0.41782
 Alpha virt. eigenvalues --    0.42010   0.43101   0.46747   0.48492   0.50818
 Alpha virt. eigenvalues --    0.55386   0.57757   0.59385   0.62062   0.64333
 Alpha virt. eigenvalues --    0.66846   0.68505   0.73980   0.82245   0.84195
          Condensed to atoms (all electrons):
               1          2          3          4          5          6
     1  C    4.764085   0.501507  -0.029525  -0.013122  -0.032033  -0.025389
     2  C    0.501507   4.807310   0.511018  -0.032033  -0.013955   0.390718
     3  C   -0.029525   0.511018   4.799927   0.509405  -0.032149  -0.025601
     4  C   -0.013122  -0.032033   0.509405   4.764085   0.501507   0.001572
     5  C   -0.032033  -0.013955  -0.032149   0.501507   4.807310   0.000058
     6  H   -0.025389   0.390718  -0.025601   0.001572   0.000058   0.587035
     7  H    0.001472  -0.025288   0.390625  -0.026214   0.001569  -0.003928
     8  H    0.001572   0.000058   0.001515  -0.025389   0.390718   0.000002
     9  C    0.000027   0.001087  -0.031482   0.412893  -0.027940  -0.000020
    10  C   -0.000000  -0.000010   0.000797  -0.026564  -0.007605   0.000000
    11  H   -0.000001  -0.000001   0.000027  -0.004839  -0.002522   0.000000
    12  H   -0.000001   0.000017  -0.003986  -0.025932   0.001192  -0.000001
    13  H    0.000000   0.000000  -0.000018   0.001456   0.000067  -0.000000
    14  C    0.412893  -0.027940   0.000950   0.000027   0.001087  -0.004316
    15  H   -0.025932   0.001192  -0.000020  -0.000001   0.000017   0.000038
    16  C   -0.026564  -0.007605   0.000045  -0.000000  -0.000010  -0.002531
    17  H   -0.004839  -0.002522  -0.000015  -0.000001  -0.000001   0.001237
    18  H    0.001456   0.000067  -0.000000   0.000000   0.000000  -0.000014
    19  C    0.509405  -0.032149  -0.012061  -0.029525   0.511018   0.001515
    20  H   -0.026214   0.001569   0.000035   0.001472  -0.025288  -0.000038
               7          8          9         10         11         12
     1  C    0.001472   0.001572   0.000027  -0.000000  -0.000001  -0.000001
     2  C   -0.025288   0.000058   0.001087  -0.000010  -0.000001   0.000017
     3  C    0.390625   0.001515  -0.031482   0.000797   0.000027  -0.003986
     4  C   -0.026214  -0.025389   0.412893  -0.026564  -0.004839  -0.025932
     5  C    0.001569   0.390718  -0.027940  -0.007605  -0.002522   0.001192
     6  H   -0.003928   0.000002  -0.000020   0.000000   0.000000  -0.000001
     7  H    0.585152  -0.000038  -0.004703   0.000042   0.000001   0.001081
     8  H   -0.000038   0.587035  -0.004316  -0.002531   0.001237   0.000038
     9  C   -0.004703  -0.004316   4.800884   0.588798  -0.025300   0.386992
    10  C    0.000042  -0.002531   0.588798   4.853158   0.385695  -0.026216
    11  H    0.000001   0.001237  -0.025300   0.385695   0.591511   0.002047
    12  H    0.001081   0.000038   0.386992  -0.026216   0.002047   0.593037
    13  H   -0.000003  -0.000014  -0.024199   0.393657  -0.022895  -0.004422
    14  C   -0.000018  -0.000020   0.000000   0.000000   0.000000  -0.000000
    15  H    0.000000  -0.000001  -0.000000   0.000000  -0.000000   0.000000
    16  C    0.000001   0.000000   0.000000  -0.000000   0.000000   0.000000
    17  H    0.000006   0.000000   0.000000   0.000000  -0.000000  -0.000000
    18  H   -0.000000  -0.000000  -0.000000   0.000000   0.000000  -0.000000
    19  C    0.000035  -0.025601   0.000950   0.000045  -0.000015  -0.000020
    20  H    0.000003  -0.003928  -0.000018   0.000001   0.000006   0.000000
              13         14         15         16         17         18
     1  C    0.000000   0.412893  -0.025932  -0.026564  -0.004839   0.001456
     2  C    0.000000  -0.027940   0.001192  -0.007605  -0.002522   0.000067
     3  C   -0.000018   0.000950  -0.000020   0.000045  -0.000015  -0.000000
     4  C    0.001456   0.000027  -0.000001  -0.000000  -0.000001   0.000000
     5  C    0.000067   0.001087   0.000017  -0.000010  -0.000001   0.000000
     6  H   -0.000000  -0.004316   0.000038  -0.002531   0.001237  -0.000014
     7  H   -0.000003  -0.000018   0.000000   0.000001   0.000006  -0.000000
     8  H   -0.000014  -0.000020  -0.000001   0.000000   0.000000  -0.000000
     9  C   -0.024199   0.000000  -0.000000   0.000000   0.000000  -0.000000
    10  C    0.393657   0.000000   0.000000  -0.000000   0.000000   0.000000
    11  H   -0.022895   0.000000  -0.000000   0.000000  -0.000000   0.000000
    12  H   -0.004422  -0.000000   0.000000   0.000000  -0.000000  -0.000000
    13  H    0.573220  -0.000000  -0.000000   0.000000   0.000000  -0.000000
    14  C   -0.000000   4.800884   0.386992   0.588798  -0.025300  -0.024199
    15  H   -0.000000   0.386992   0.593037  -0.026216   0.002047  -0.004422
    16  C    0.000000   0.588798  -0.026216   4.853158   0.385695   0.393657
    17  H    0.000000  -0.025300   0.002047   0.385695   0.591511  -0.022895
    18  H   -0.000000  -0.024199  -0.004422   0.393657  -0.022895   0.573220
    19  C   -0.000000  -0.031482  -0.003986   0.000797   0.000027  -0.000018
    20  H   -0.000000  -0.004703   0.001081   0.000042   0.000001  -0.000003
              19         20
     1  C    0.509405  -0.026214
     2  C   -0.032149   0.001569
     3  C   -0.012061   0.000035
     4  C   -0.029525   0.001472
     5  C    0.511018  -0.025288
     6  H    0.001515  -0.000038
     7  H    0.000035   0.000003
     8  H   -0.025601  -0.003928
     9  C    0.000950  -0.000018
    10  C    0.000045   0.000001
    11  H   -0.000015   0.000006
    12  H   -0.000020   0.000000
    13  H   -0.000000  -0.000000
    14  C   -0.031482  -0.004703
    15  H   -0.003986   0.001081
    16  C    0.000797   0.000042
    17  H    0.000027   0.000001
    18  H   -0.000018  -0.000003
    19  C    4.799927   0.390625
    20  H    0.390625   0.585152
 Mulliken charges:
               1
     1  C   -0.008796
     2  C   -0.073040
     3  C   -0.079486
     4  C   -0.008796
     5  C   -0.073040
     6  H    0.079662
     7  H    0.080206
     8  H    0.079662
     9  C   -0.073653
    10  C   -0.159266
    11  H    0.075048
    12  H    0.076174
    13  H    0.083151
    14  C   -0.073653
    15  H    0.076174
    16  C   -0.159266
    17  H    0.075048
    18  H    0.083151
    19  C   -0.079486
    20  H    0.080206
 Sum of Mulliken charges =   0.00000
 Mulliken charges with hydrogens summed into heavy atoms:
               1
     1  C   -0.008796
     2  C    0.006622
     3  C    0.000720
     4  C   -0.008796
     5  C    0.006622
     9  C    0.002521
    10  C   -0.001067
    14  C    0.002521
    16  C   -0.001067
    19  C    0.000720
 Electronic spatial extent (au):  <R**2>=           1768.3904
 Charge=              0.0000 electrons
 Dipole moment (field-independent basis, Debye):
    X=              0.0000    Y=             -0.0000    Z=              0.0000  Tot=              0.0000
 Quadrupole moment (field-independent basis, Debye-Ang):
   XX=            -50.9325   YY=            -50.9238   ZZ=            -58.4697
   XY=             -0.6223   XZ=              0.0000   YZ=              0.0000
 Traceless Quadrupole moment (field-independent basis, Debye-Ang):
   XX=              2.5095   YY=              2.5182   ZZ=             -5.0277
   XY=             -0.6223   XZ=              0.0000   YZ=              0.0000
 Octapole moment (field-independent basis, Debye-Ang**2):
  XXX=             -0.0000  YYY=              0.0000  ZZZ=              0.0000  XYY=             -0.0000
  XXY=              0.0000  XXZ=              0.0000  XZZ=              0.0000  YZZ=              0.0000
  YYZ=              0.0000  XYZ=              0.0000
 Hexadecapole moment (field-independent basis, Debye-Ang**3):
 XXXX=          -1132.9535 YYYY=           -968.6980 ZZZZ=            -47.4178 XXXY=           -356.7113
 XXXZ=              0.0000 YYYX=           -359.8410 YYYZ=              0.0000 ZZZX=              0.0000
 ZZZY=              0.0000 XXYY=           -348.4833 XXZZ=           -226.1148 YYZZ=           -191.1011
 XXYZ=              0.0000 YYXZ=              0.0000 ZZXY=           -136.1590
 N-N= 4.553072831857D+02 E-N=-1.795331837188D+03  KE= 3.762731372601D+02
 Symmetry AG   KE= 1.815960673601D+02
 Symmetry BG   KE= 7.824361799650D+00
 Symmetry AU   KE= 4.675855193727D+00
 Symmetry BU   KE= 1.821768529066D+02
 No NMR shielding tensors so no spin-rotation constants.
 Leave Link  601 at Thu May 28 01:22:12 2020, MaxMem=    52428800 cpu:               0.3 elap:               0.1
 (Enter /ihome/crc/build/gaussian/a03/g16/l108.exe)
 Variable Step   Value    
 -------- ---- -----------
    44       1   -2.617994
 Leave Link  108 at Thu May 28 01:22:12 2020, MaxMem=    52428800 cpu:               0.1 elap:               0.0
 (Enter /ihome/crc/build/gaussian/a03/g16/l202.exe)
 ---------------------------------------------------------------------------------------------------
                            Z-MATRIX (ANGSTROMS AND DEGREES)
   CD    Cent   Atom    N1       Length/X        N2       Alpha/Y        N3        Beta/Z          J
 ---------------------------------------------------------------------------------------------------
      1      1  C 
      2      2  C        1   1.391558(     1)
      3      3  C        2   1.389201(     2)      1  120.261(    20)
      4      4  C        3   1.366177(     3)      2  119.603(    21)      1    0.000(    38)      0
      5      5  C        4   1.391558(     4)      3  120.136(    22)      2    0.000(    39)      0
      6      6  H        2   1.094918(     5)      1  119.899(    23)      5  180.000(    40)      0
      7      7  H        3   1.095985(     6)      2  119.944(    24)      1  180.000(    41)      0
      8      8  H        5   1.094918(     7)      4  119.899(    25)      3  180.000(    42)      0
      9      9  C        4   1.485853(     8)      3  119.973(    26)      2  180.000(    43)      0
     10     10  C        9   1.342926(     9)      4  123.602(    27)      3 -150.000(    44)      0
     11     11  H       10   1.103548(    10)      9  119.569(    28)      4    0.000(    45)      0
     12     12  H        9   1.098298(    11)      4  115.513(    29)      3    0.000(    46)      0
     13     13  H       10   1.070000(    12)      9  122.342(    30)      4  180.000(    47)      0
     14     14  C        1   1.485853(    13)      2  119.890(    31)      3  180.000(    48)      0
     15     15  H       14   1.098298(    14)      1  115.513(    32)      2  180.000(    49)      0
     16     16  C       14   1.342926(    15)      1  123.602(    33)      2    0.000(    50)      0
     17     17  H       16   1.103548(    16)     14  119.569(    34)      1    0.000(    51)      0
     18     18  H       16   1.070000(    17)     14  122.342(    35)      1  180.000(    52)      0
     19     19  C        5   1.389201(    18)      4  120.261(    36)      3    0.000(    53)      0
     20     20  H       19   1.095985(    19)      5  119.944(    37)      4  180.000(    54)      0
 ---------------------------------------------------------------------------------------------------
                         Z-Matrix orientation:                         
 ---------------------------------------------------------------------
 Center     Atomic      Atomic             Coordinates (Angstroms)
 Number     Number       Type             X           Y           Z
 ---------------------------------------------------------------------
      1          6           0        0.000000    0.000000    0.000000
      2          6           0        0.000000    0.000000    1.391558
      3          6           0        1.199912    0.000000    2.091623
      4          6           0        2.381427    0.000000    1.405722
      5          6           0        2.381427    0.000000    0.014165
      6          1           0       -0.949187    0.000000    1.937349
      7          1           0        1.193861    0.000000    3.187592
      8          1           0        3.330614    0.000000   -0.531626
      9          6           0        3.669632    0.000000    2.146185
     10          6           0        4.796701    0.559265    1.676729
     11          1           0        4.789879    1.051642    0.689138
     12          1           0        3.585803    0.000000    3.241279
     13          1           0        5.713991    0.547500    2.227493
     14          6           0       -1.288205   -0.000000   -0.740463
     15          1           0       -1.204377   -0.000000   -1.835557
     16          6           0       -2.489953   -0.000000   -0.141086
     17          1           0       -2.548878   -0.000000    0.960888
     18          1           0       -3.405672   -0.000000   -0.694583
     19          6           0        1.181515    0.000000   -0.685901
     20          1           0        1.187566    0.000000   -1.781870
 ---------------------------------------------------------------------
                    Distance matrix (angstroms):
                    1          2          3          4          5
     1  C    0.000000
     2  C    1.391558   0.000000
     3  C    2.411364   1.389201   0.000000
     4  C    2.765366   2.381469   1.366177   0.000000
     5  C    2.381469   2.751073   2.389940   1.391558   0.000000
     6  H    2.157377   1.094918   2.154629   3.372776   3.845988
     7  H    3.403828   2.156628   1.095985   2.141349   3.388356
     8  H    3.372776   3.845988   3.379546   2.157377   1.094918
     9  C    4.251154   3.746420   2.470323   1.485853   2.490981
    10  C    5.111999   4.837607   3.663579   2.493947   2.985037
    11  H    4.952151   4.954017   3.995095   2.723984   2.713334
    12  H    4.833620   4.034781   2.648431   2.195403   3.444531
    13  H    6.157205   5.800710   4.549190   3.475780   4.037891
    14  C    1.485853   2.490981   3.769806   4.251154   3.746420
    15  H    2.195403   3.444531   4.604709   4.833620   4.034781
    16  C    2.493947   2.923844   4.312782   5.111062   4.873853
    17  H    2.723984   2.585006   3.915608   4.950332   5.020378
    18  H    3.475780   3.993818   5.382782   6.156443   5.830337
    19  C    1.366177   2.389940   2.777585   2.411364   1.389201
    20  H    2.141349   3.388356   3.873513   3.403828   2.156628
                    6          7          8          9         10
     6  H    0.000000
     7  H    2.481081   0.000000
     8  H    4.940905   4.289324   0.000000
     9  C    4.623538   2.685884   2.699186   0.000000
    10  C    5.778921   3.946637   2.709063   1.342926   0.000000
    11  H    5.966646   4.503285   2.173861   2.117520   1.103548
    12  H    4.718726   2.392545   3.781526   1.098298   2.055935
    13  H    6.691927   4.653292   3.686866   2.117963   1.070000
    14  C    2.699186   4.646533   4.623538   5.736976   6.571277
    15  H    3.781526   5.566289   4.718726   6.293666   6.975806
    16  C    2.587247   4.964935   5.833654   6.570548   7.530774
    17  H    1.874163   4.355032   6.065973   6.330466   7.401536
    18  H    3.600191   6.018885   6.738257   7.624296   8.556566
    19  C    3.379546   3.873513   2.154629   3.769806   4.354810
    20  H    4.289324   4.969466   2.481081   4.646533   5.029964
                   11         12         13         14         15
    11  H    0.000000
    12  H    3.011507   0.000000
    13  H    1.864049   2.420062   0.000000
    14  C    6.331889   6.293666   7.624911   0.000000
    15  H    6.588713   6.979978   8.041887   1.098298   0.000000
    16  C    7.402106   6.953791   8.556554   1.342926   2.126955
    17  H    7.418703   6.544807   8.377294   2.117520   3.102868
    18  H    8.377809   8.023200   9.592004   2.117963   2.479420
    19  C    4.002121   4.604709   5.415806   2.470323   2.648431
    20  H    4.493160   5.566289   6.071513   2.685884   2.392545
                   16         17         18         19         20
    16  C    0.000000
    17  H    1.103548   0.000000
    18  H    1.070000   1.864049   0.000000
    19  C    3.711671   4.077714   4.587195   0.000000
    20  H    4.026949   4.635055   4.720173   1.095985   0.000000
 Stoichiometry    C10H10
 Framework group  C1[X(C10H10)]
 Deg. of freedom    54
 Full point group                 C1      NOp   1
 Omega: Change in point group or standard orientation.

 Old FWG=C02H [SGH(C10H10)]
 New FWG=C01  [X(C10H10)]
 RotChk:  IX=3 Diff= 9.83D-01
 Largest Abelian subgroup         C1      NOp   1
 Largest concise Abelian subgroup C1      NOp   1
                         Standard orientation:                         
 ---------------------------------------------------------------------
 Center     Atomic      Atomic             Coordinates (Angstroms)
 Number     Number       Type             X           Y           Z
 ---------------------------------------------------------------------
      1          6           0        1.354953   -0.285699   -0.016334
      2          6           0        0.893270    1.026791    0.009217
      3          6           0       -0.469484    1.290751   -0.046523
      4          6           0       -1.355077    0.253571   -0.126658
      5          6           0       -0.893394   -1.058918   -0.152209
      6          1           0        1.606461    1.855084    0.073499
      7          1           0       -0.827398    2.326445   -0.026053
      8          1           0       -1.606586   -1.887211   -0.216491
      9          6           0       -2.814420    0.526470   -0.186703
     10          6           0       -3.747289   -0.308861    0.298503
     11          1           0       -3.436766   -1.255940    0.772249
     12          1           0       -3.098765    1.587029   -0.161804
     13          1           0       -4.793675   -0.091944    0.244435
     14          6           0        2.814295   -0.558598    0.043711
     15          1           0        3.098641   -1.619157    0.018811
     16          6           0        3.747657    0.403657    0.123414
     17          1           0        3.437566    1.462480    0.147016
     18          1           0        4.794032    0.184070    0.165599
     19          6           0        0.469360   -1.322878   -0.096470
     20          1           0        0.827274   -2.358573   -0.116939
 ---------------------------------------------------------------------
 Rotational constants (GHZ):           4.6282237           0.7273366           0.6334415
 Leave Link  202 at Thu May 28 01:22:12 2020, MaxMem=    52428800 cpu:               0.3 elap:               0.1
 (Enter /ihome/crc/build/gaussian/a03/g16/l301.exe)
 Standard basis: STO-3G (5D, 7F)
 Ernie: Thresh=  0.10000D-02 Tol=  0.10000D-05 Strict=F.
 There are    60 symmetry adapted cartesian basis functions of A   symmetry.
 There are    60 symmetry adapted basis functions of A   symmetry.
    60 basis functions,   180 primitive gaussians,    60 cartesian basis functions
    35 alpha electrons       35 beta electrons
       nuclear repulsion energy       455.1642084067 Hartrees.
 IExCor=  402 DFT=T Ex+Corr=B3LYP ExCW=0 ScaHFX=  0.200000
 ScaDFX=  0.800000  0.720000  1.000000  0.810000 ScalE2=  1.000000  1.000000
 IRadAn=      5 IRanWt=     -1 IRanGd=            0 ICorTp=0 IEmpDi=  4
 NAtoms=   20 NActive=   20 NUniq=   20 SFac= 1.00D+00 NAtFMM=   60 NAOKFM=F Big=F
 Integral buffers will be    131072 words long.
 Raffenetti 2 integral format.
 Two-electron integral symmetry is turned on.
 Leave Link  301 at Thu May 28 01:22:13 2020, MaxMem=    52428800 cpu:               0.3 elap:               0.1
 (Enter /ihome/crc/build/gaussian/a03/g16/l302.exe)
 NPDir=0 NMtPBC=     1 NCelOv=     1 NCel=       1 NClECP=     1 NCelD=      1
         NCelK=      1 NCelE2=     1 NClLst=     1 CellRange=     0.0.
 One-electron integrals computed using PRISM.
 One-electron integral symmetry used in STVInt
 NBasis=    60 RedAO= T EigKep=  1.64D-01  NBF=    60
 NBsUse=    60 1.00D-06 EigRej= -1.00D+00 NBFU=    60
 Precomputing XC quadrature grid using
 IXCGrd= 4 IRadAn=           5 IRanWt=          -1 IRanGd=           0 AccXCQ= 0.00D+00.
 Generated NRdTot=       0 NPtTot=           0 NUsed=           0 NTot=          32
 NSgBfM=    59    59    59    59    59 MxSgAt=    20 MxSgA2=    20.
 Leave Link  302 at Thu May 28 01:22:13 2020, MaxMem=    52428800 cpu:               0.7 elap:               0.2
 (Enter /ihome/crc/build/gaussian/a03/g16/l303.exe)
 DipDrv:  MaxL=1.
 Leave Link  303 at Thu May 28 01:22:13 2020, MaxMem=    52428800 cpu:               0.2 elap:               0.1
 (Enter /ihome/crc/build/gaussian/a03/g16/l401.exe)
 Initial guess from the checkpoint file:  "dvb_scan_unrelaxed.chk"
 B after Tr=     0.000000    0.000000    0.000000
         Rot=    0.936421    0.003092    0.001156    0.350862 Ang=  41.08 deg.
 Guess basis will be translated and rotated to current coordinates.
 JPrj=2 DoOrth=T DoCkMO=T.
 Generating alternative initial guess.
 ExpMin= 1.69D-01 ExpMax= 7.16D+01 ExpMxC= 7.16D+01 IAcc=2 IRadAn=         4 AccDes= 0.00D+00
 Harris functional with IExCor=  402 and IRadAn=       4 diagonalized for initial guess.
 HarFok:  IExCor=  402 AccDes= 0.00D+00 IRadAn=         4 IDoV= 1 UseB2=F ITyADJ=14
 ICtDFT=  3500011 ScaDFX=  1.000000  1.000000  1.000000  1.000000
 FoFCou: FMM=F IPFlag=           0 FMFlag=      100000 FMFlg1=           0
         NFxFlg=           0 DoJE=T BraDBF=F KetDBF=T FulRan=T
         wScrn=  0.000000 ICntrl=       500 IOpCl=  0 I1Cent=   200000004 NGrid=           0
         NMat0=    1 NMatS0=      1 NMatT0=    0 NMatD0=    1 NMtDS0=    0 NMtDT0=    0
 Petite list used in FoFCou.
 Harris En= -382.180595003614    
 Leave Link  401 at Thu May 28 01:22:13 2020, MaxMem=    52428800 cpu:               1.4 elap:               0.4
 (Enter /ihome/crc/build/gaussian/a03/g16/l502.exe)
 Keep R1 ints in memory in canonical form, NReq=5212687.
 FoFCou: FMM=F IPFlag=           0 FMFlag=           0 FMFlg1=           0
         NFxFlg=           0 DoJE=F BraDBF=F KetDBF=F FulRan=T
         wScrn=  0.000000 ICntrl=       600 IOpCl=  0 I1Cent=           0 NGrid=           0
         NMat0=    1 NMatS0=   1830 NMatT0=    0 NMatD0=    1 NMtDS0=    0 NMtDT0=    0
 Symmetry not used in FoFCou.
 Two-electron integral symmetry not used.
 Closed shell SCF:
 Using DIIS extrapolation, IDIIS=  1040.
 NGot=    52428800 LenX=    50744673 LenY=    50740632
 Requested convergence on RMS density matrix=1.00D-08 within 128 cycles.
 Requested convergence on MAX density matrix=1.00D-06.
 Requested convergence on             energy=1.00D-06.
 No special actions if energy rises.
 Integral accuracy reduced to 1.0D-05 until final iterations.

 Cycle   1  Pass 0  IDiag  1:
 E= -382.180808312885    
 DIIS: error= 1.83D-02 at cycle   1 NSaved=   1.
 NSaved= 1 IEnMin= 1 EnMin= -382.180808312885     IErMin= 1 ErrMin= 1.83D-02
 ErrMax= 1.83D-02  0.00D+00 EMaxC= 1.00D-01 BMatC= 3.06D-02 BMatP= 3.06D-02
 IDIUse=3 WtCom= 8.17D-01 WtEn= 1.83D-01
 Coeff-Com:  0.100D+01
 Coeff-En:   0.100D+01
 Coeff:      0.100D+01
 Recover alternate guess density for next cycle.
 RMSDP=1.10D-02 MaxDP=1.77D-01              OVMax= 0.00D+00

 Cycle   2  Pass 0  IDiag  1:
 E= -382.227186703426     Delta-E=       -0.046378390540 Rises=F Damp=F
 DIIS: error= 1.70D-02 at cycle   2 NSaved=   2.
 NSaved= 2 IEnMin= 2 EnMin= -382.227186703426     IErMin= 2 ErrMin= 1.70D-02
 ErrMax= 1.70D-02  0.00D+00 EMaxC= 1.00D-01 BMatC= 3.98D-02 BMatP= 3.06D-02
 IDIUse=2 WtCom= 0.00D+00 WtEn= 1.00D+00
 Coeff-En:   0.000D+00 0.100D+01
 Coeff:      0.000D+00 0.100D+01
 Gap=     0.199 Goal=   None    Shift=    0.000
 RMSDP=7.85D-03 MaxDP=9.51D-02 DE=-4.64D-02 OVMax= 0.00D+00

 Cycle   3  Pass 0  IDiag  1:
 E= -382.262267013631     Delta-E=       -0.035080310205 Rises=F Damp=F
 DIIS: error= 9.29D-03 at cycle   3 NSaved=   3.
 NSaved= 3 IEnMin= 3 EnMin= -382.262267013631     IErMin= 3 ErrMin= 9.29D-03
 ErrMax= 9.29D-03  0.00D+00 EMaxC= 1.00D-01 BMatC= 1.49D-02 BMatP= 3.06D-02
 IDIUse=3 WtCom= 9.07D-01 WtEn= 9.29D-02
 Coeff-Com:  0.473D-01 0.354D+00 0.598D+00
 Coeff-En:   0.000D+00 0.156D+00 0.844D+00
 Coeff:      0.429D-01 0.336D+00 0.621D+00
 Gap=     0.199 Goal=   None    Shift=    0.000
 RMSDP=3.52D-03 MaxDP=6.06D-02 DE=-3.51D-02 OVMax= 0.00D+00

 Cycle   4  Pass 0  IDiag  1:
 E= -382.278854906825     Delta-E=       -0.016587893194 Rises=F Damp=F
 DIIS: error= 7.86D-03 at cycle   4 NSaved=   4.
 NSaved= 4 IEnMin= 4 EnMin= -382.278854906825     IErMin= 4 ErrMin= 7.86D-03
 ErrMax= 7.86D-03  0.00D+00 EMaxC= 1.00D-01 BMatC= 2.93D-03 BMatP= 1.49D-02
 IDIUse=3 WtCom= 9.21D-01 WtEn= 7.86D-02
 Coeff-Com:  0.698D-02 0.185D+00 0.383D+00 0.425D+00
 Coeff-En:   0.000D+00 0.000D+00 0.947D-02 0.991D+00
 Coeff:      0.643D-02 0.170D+00 0.354D+00 0.469D+00
 Gap=     0.199 Goal=   None    Shift=    0.000
 RMSDP=1.43D-03 MaxDP=3.82D-02 DE=-1.66D-02 OVMax= 0.00D+00

 Cycle   5  Pass 0  IDiag  1:
 E= -382.282180004182     Delta-E=       -0.003325097357 Rises=F Damp=F
 DIIS: error= 2.57D-03 at cycle   5 NSaved=   5.
 NSaved= 5 IEnMin= 5 EnMin= -382.282180004182     IErMin= 5 ErrMin= 2.57D-03
 ErrMax= 2.57D-03  0.00D+00 EMaxC= 1.00D-01 BMatC= 3.00D-04 BMatP= 2.93D-03
 IDIUse=3 WtCom= 9.74D-01 WtEn= 2.57D-02
 Coeff-Com: -0.157D-02 0.359D-02 0.262D-01 0.255D+00 0.716D+00
 Coeff-En:   0.000D+00 0.000D+00 0.000D+00 0.108D+00 0.892D+00
 Coeff:     -0.152D-02 0.350D-02 0.255D-01 0.252D+00 0.721D+00
 Gap=     0.200 Goal=   None    Shift=    0.000
 RMSDP=3.74D-04 MaxDP=8.89D-03 DE=-3.33D-03 OVMax= 0.00D+00

 Cycle   6  Pass 0  IDiag  1:
 E= -382.282558612997     Delta-E=       -0.000378608815 Rises=F Damp=F
 DIIS: error= 2.46D-04 at cycle   6 NSaved=   6.
 NSaved= 6 IEnMin= 6 EnMin= -382.282558612997     IErMin= 6 ErrMin= 2.46D-04
 ErrMax= 2.46D-04  0.00D+00 EMaxC= 1.00D-01 BMatC= 5.66D-06 BMatP= 3.00D-04
 IDIUse=3 WtCom= 9.98D-01 WtEn= 2.46D-03
 Coeff-Com: -0.905D-03-0.560D-03 0.909D-02 0.135D+00 0.405D+00 0.453D+00
 Coeff-En:   0.000D+00 0.000D+00 0.000D+00 0.000D+00 0.000D+00 0.100D+01
 Coeff:     -0.903D-03-0.559D-03 0.906D-02 0.134D+00 0.404D+00 0.455D+00
 Gap=     0.200 Goal=   None    Shift=    0.000
 RMSDP=5.32D-05 MaxDP=1.18D-03 DE=-3.79D-04 OVMax= 0.00D+00

 Cycle   7  Pass 0  IDiag  1:
 E= -382.282565364947     Delta-E=       -0.000006751950 Rises=F Damp=F
 DIIS: error= 6.10D-05 at cycle   7 NSaved=   7.
 NSaved= 7 IEnMin= 7 EnMin= -382.282565364947     IErMin= 7 ErrMin= 6.10D-05
 ErrMax= 6.10D-05  0.00D+00 EMaxC= 1.00D-01 BMatC= 1.61D-07 BMatP= 5.66D-06
 IDIUse=1 WtCom= 1.00D+00 WtEn= 0.00D+00
 Coeff-Com: -0.452D-03-0.397D-03 0.391D-02 0.623D-01 0.188D+00 0.241D+00
 Coeff-Com:  0.506D+00
 Coeff:     -0.452D-03-0.397D-03 0.391D-02 0.623D-01 0.188D+00 0.241D+00
 Coeff:      0.506D+00
 Gap=     0.200 Goal=   None    Shift=    0.000
 RMSDP=1.10D-05 MaxDP=2.43D-04 DE=-6.75D-06 OVMax= 0.00D+00

 Cycle   8  Pass 0  IDiag  1:
 E= -382.282565536777     Delta-E=       -0.000000171830 Rises=F Damp=F
 DIIS: error= 2.40D-05 at cycle   8 NSaved=   8.
 NSaved= 8 IEnMin= 8 EnMin= -382.282565536777     IErMin= 8 ErrMin= 2.40D-05
 ErrMax= 2.40D-05  0.00D+00 EMaxC= 1.00D-01 BMatC= 2.66D-08 BMatP= 1.61D-07
 IDIUse=1 WtCom= 1.00D+00 WtEn= 0.00D+00
 Coeff-Com: -0.321D-04-0.781D-04 0.289D-05 0.248D-02 0.705D-02 0.264D-01
 Coeff-Com:  0.301D+00 0.663D+00
 Coeff:     -0.321D-04-0.781D-04 0.289D-05 0.248D-02 0.705D-02 0.264D-01
 Coeff:      0.301D+00 0.663D+00
 Gap=     0.200 Goal=   None    Shift=    0.000
 RMSDP=3.64D-06 MaxDP=7.89D-05 DE=-1.72D-07 OVMax= 0.00D+00

 Initial convergence to 1.0D-05 achieved.  Increase integral accuracy.
 Cycle   9  Pass 1  IDiag  1:
 E= -382.282565242312     Delta-E=        0.000000294465 Rises=F Damp=F
 DIIS: error= 4.02D-06 at cycle   1 NSaved=   1.
 NSaved= 1 IEnMin= 1 EnMin= -382.282565242312     IErMin= 1 ErrMin= 4.02D-06
 ErrMax= 4.02D-06  0.00D+00 EMaxC= 1.00D-01 BMatC= 8.13D-10 BMatP= 8.13D-10
 IDIUse=1 WtCom= 1.00D+00 WtEn= 0.00D+00
 Coeff-Com:  0.100D+01
 Coeff:      0.100D+01
 Gap=     0.200 Goal=   None    Shift=    0.000
 RMSDP=3.64D-06 MaxDP=7.89D-05 DE= 2.94D-07 OVMax= 0.00D+00

 Cycle  10  Pass 1  IDiag  1:
 E= -382.282565241095     Delta-E=        0.000000001217 Rises=F Damp=F
 DIIS: error= 6.75D-06 at cycle   2 NSaved=   2.
 NSaved= 2 IEnMin= 1 EnMin= -382.282565242312     IErMin= 1 ErrMin= 4.02D-06
 ErrMax= 6.75D-06  0.00D+00 EMaxC= 1.00D-01 BMatC= 1.71D-09 BMatP= 8.13D-10
 IDIUse=1 WtCom= 1.00D+00 WtEn= 0.00D+00
 Coeff-Com:  0.595D+00 0.405D+00
 Coeff:      0.595D+00 0.405D+00
 Gap=     0.200 Goal=   None    Shift=    0.000
 RMSDP=1.03D-06 MaxDP=1.68D-05 DE= 1.22D-09 OVMax= 0.00D+00

 Cycle  11  Pass 1  IDiag  1:
 E= -382.282565243508     Delta-E=       -0.000000002413 Rises=F Damp=F
 DIIS: error= 6.55D-07 at cycle   3 NSaved=   3.
 NSaved= 3 IEnMin= 3 EnMin= -382.282565243508     IErMin= 3 ErrMin= 6.55D-07
 ErrMax= 6.55D-07  0.00D+00 EMaxC= 1.00D-01 BMatC= 2.73D-11 BMatP= 8.13D-10
 IDIUse=1 WtCom= 1.00D+00 WtEn= 0.00D+00
 Coeff-Com:  0.215D+00 0.180D+00 0.605D+00
 Coeff:      0.215D+00 0.180D+00 0.605D+00
 Gap=     0.200 Goal=   None    Shift=    0.000
 RMSDP=1.59D-07 MaxDP=3.26D-06 DE=-2.41D-09 OVMax= 0.00D+00

 Cycle  12  Pass 1  IDiag  1:
 E= -382.282565243534     Delta-E=       -0.000000000027 Rises=F Damp=F
 DIIS: error= 4.23D-07 at cycle   4 NSaved=   4.
 NSaved= 4 IEnMin= 4 EnMin= -382.282565243534     IErMin= 4 ErrMin= 4.23D-07
 ErrMax= 4.23D-07  0.00D+00 EMaxC= 1.00D-01 BMatC= 7.94D-12 BMatP= 2.73D-11
 IDIUse=1 WtCom= 1.00D+00 WtEn= 0.00D+00
 Coeff-Com:  0.276D-01 0.395D-01 0.369D+00 0.563D+00
 Coeff:      0.276D-01 0.395D-01 0.369D+00 0.563D+00
 Gap=     0.200 Goal=   None    Shift=    0.000
 RMSDP=7.05D-08 MaxDP=1.64D-06 DE=-2.66D-11 OVMax= 0.00D+00

 Cycle  13  Pass 1  IDiag  1:
 E= -382.282565243542     Delta-E=       -0.000000000008 Rises=F Damp=F
 DIIS: error= 9.84D-08 at cycle   5 NSaved=   5.
 NSaved= 5 IEnMin= 5 EnMin= -382.282565243542     IErMin= 5 ErrMin= 9.84D-08
 ErrMax= 9.84D-08  0.00D+00 EMaxC= 1.00D-01 BMatC= 7.11D-13 BMatP= 7.94D-12
 IDIUse=1 WtCom= 1.00D+00 WtEn= 0.00D+00
 Coeff-Com: -0.803D-02 0.205D-02 0.141D+00 0.314D+00 0.551D+00
 Coeff:     -0.803D-02 0.205D-02 0.141D+00 0.314D+00 0.551D+00
 Gap=     0.200 Goal=   None    Shift=    0.000
 RMSDP=2.02D-08 MaxDP=3.78D-07 DE=-7.84D-12 OVMax= 0.00D+00

 Cycle  14  Pass 1  IDiag  1:
 E= -382.282565243544     Delta-E=       -0.000000000001 Rises=F Damp=F
 DIIS: error= 1.01D-08 at cycle   6 NSaved=   6.
 NSaved= 6 IEnMin= 6 EnMin= -382.282565243544     IErMin= 6 ErrMin= 1.01D-08
 ErrMax= 1.01D-08  0.00D+00 EMaxC= 1.00D-01 BMatC= 8.38D-15 BMatP= 7.11D-13
 IDIUse=1 WtCom= 1.00D+00 WtEn= 0.00D+00
 Coeff-Com: -0.334D-02-0.772D-03 0.331D-01 0.836D-01 0.182D+00 0.706D+00
 Coeff:     -0.334D-02-0.772D-03 0.331D-01 0.836D-01 0.182D+00 0.706D+00
 Gap=     0.200 Goal=   None    Shift=    0.000
 RMSDP=3.13D-09 MaxDP=7.10D-08 DE=-1.48D-12 OVMax= 0.00D+00

 SCF Done:  E(RB3LYP) =  -382.282565244     A.U. after   14 cycles
            NFock= 14  Conv=0.31D-08     -V/T= 2.0159
 KE= 3.763029254098D+02 PE=-1.795088595639D+03 EE= 5.813388965794D+02
 Leave Link  502 at Thu May 28 01:22:18 2020, MaxMem=    52428800 cpu:              16.6 elap:               4.2
 (Enter /ihome/crc/build/gaussian/a03/g16/l108.exe)
 Variable Step   Value    
 -------- ---- -----------
    44       2   -2.094395
 Leave Link  108 at Thu May 28 01:22:18 2020, MaxMem=    52428800 cpu:               0.1 elap:               0.1
 (Enter /ihome/crc/build/gaussian/a03/g16/l202.exe)
 ---------------------------------------------------------------------------------------------------
                            Z-MATRIX (ANGSTROMS AND DEGREES)
   CD    Cent   Atom    N1       Length/X        N2       Alpha/Y        N3        Beta/Z          J
 ---------------------------------------------------------------------------------------------------
      1      1  C 
      2      2  C        1   1.391558(     1)
      3      3  C        2   1.389201(     2)      1  120.261(    20)
      4      4  C        3   1.366177(     3)      2  119.603(    21)      1    0.000(    38)      0
      5      5  C        4   1.391558(     4)      3  120.136(    22)      2    0.000(    39)      0
      6      6  H        2   1.094918(     5)      1  119.899(    23)      5  180.000(    40)      0
      7      7  H        3   1.095985(     6)      2  119.944(    24)      1  180.000(    41)      0
      8      8  H        5   1.094918(     7)      4  119.899(    25)      3  180.000(    42)      0
      9      9  C        4   1.485853(     8)      3  119.973(    26)      2  180.000(    43)      0
     10     10  C        9   1.342926(     9)      4  123.602(    27)      3 -120.000(    44)      0
     11     11  H       10   1.103548(    10)      9  119.569(    28)      4    0.000(    45)      0
     12     12  H        9   1.098298(    11)      4  115.513(    29)      3    0.000(    46)      0
     13     13  H       10   1.070000(    12)      9  122.342(    30)      4  180.000(    47)      0
     14     14  C        1   1.485853(    13)      2  119.890(    31)      3  180.000(    48)      0
     15     15  H       14   1.098298(    14)      1  115.513(    32)      2  180.000(    49)      0
     16     16  C       14   1.342926(    15)      1  123.602(    33)      2    0.000(    50)      0
     17     17  H       16   1.103548(    16)     14  119.569(    34)      1    0.000(    51)      0
     18     18  H       16   1.070000(    17)     14  122.342(    35)      1  180.000(    52)      0
     19     19  C        5   1.389201(    18)      4  120.261(    36)      3    0.000(    53)      0
     20     20  H       19   1.095985(    19)      5  119.944(    37)      4  180.000(    54)      0
 ---------------------------------------------------------------------------------------------------
                         Z-Matrix orientation:                         
 ---------------------------------------------------------------------
 Center     Atomic      Atomic             Coordinates (Angstroms)
 Number     Number       Type             X           Y           Z
 ---------------------------------------------------------------------
      1          6           0        0.000000    0.000000    0.000000
      2          6           0        0.000000    0.000000    1.391558
      3          6           0        1.199912    0.000000    2.091623
      4          6           0        2.381427    0.000000    1.405722
      5          6           0        2.381427    0.000000    0.014165
      6          1           0       -0.949187    0.000000    1.937349
      7          1           0        1.193861    0.000000    3.187592
      8          1           0        3.330614    0.000000   -0.531626
      9          6           0        3.669632    0.000000    2.146185
     10          6           0        4.592675    0.968675    2.031680
     11          1           0        4.406228    1.821498    1.356588
     12          1           0        3.585803    0.000000    3.241279
     13          1           0        5.514257    0.948298    2.574977
     14          6           0       -1.288205   -0.000000   -0.740463
     15          1           0       -1.204377   -0.000000   -1.835557
     16          6           0       -2.489953   -0.000000   -0.141086
     17          1           0       -2.548878   -0.000000    0.960888
     18          1           0       -3.405672   -0.000000   -0.694583
     19          6           0        1.181515    0.000000   -0.685901
     20          1           0        1.187566    0.000000   -1.781870
 ---------------------------------------------------------------------
                    Distance matrix (angstroms):
                    1          2          3          4          5
     1  C    0.000000
     2  C    1.391558   0.000000
     3  C    2.411364   1.389201   0.000000
     4  C    2.765366   2.381469   1.366177   0.000000
     5  C    2.381469   2.751073   2.389940   1.391558   0.000000
     6  H    2.157377   1.094918   2.154629   3.372776   3.845988
     7  H    3.403828   2.156628   1.095985   2.141349   3.388356
     8  H    3.372776   3.845988   3.379546   2.157377   1.094918
     9  C    4.251154   3.746420   2.470323   1.485853   2.490981
    10  C    5.114559   4.737167   3.528848   2.493947   3.146159
    11  H    4.957119   4.768010   3.760132   2.723984   3.036408
    12  H    4.833620   4.034781   2.648431   2.195403   3.444531
    13  H    6.159286   5.718984   4.443700   3.475780   4.155917
    14  C    1.485853   2.490981   3.769806   4.251154   3.746420
    15  H    2.195403   3.444531   4.604709   4.833620   4.034781
    16  C    2.493947   2.923844   4.312782   5.111062   4.873853
    17  H    2.723984   2.585006   3.915608   4.950332   5.020378
    18  H    3.475780   3.993818   5.382782   6.156443   5.830337
    19  C    1.366177   2.389940   2.777585   2.411364   1.389201
    20  H    2.141349   3.388356   3.873513   3.403828   2.156628
                    6          7          8          9         10
     6  H    0.000000
     7  H    2.481081   0.000000
     8  H    4.940905   4.289324   0.000000
     9  C    4.623538   2.685884   2.699186   0.000000
    10  C    5.626674   3.718387   3.016897   1.342926   0.000000
    11  H    5.686441   4.121860   2.835516   2.117520   1.103548
    12  H    4.718726   2.392545   3.781526   1.098298   1.848040
    13  H    6.563684   4.465466   3.913891   2.117963   1.070000
    14  C    2.699186   4.646533   4.623538   5.736976   6.573268
    15  H    3.781526   5.566289   4.718726   6.293666   7.035599
    16  C    2.587247   4.964935   5.833654   6.570548   7.471469
    17  H    1.874163   4.355032   6.065973   6.330466   7.286062
    18  H    3.600191   6.018885   6.738257   7.624296   8.505550
    19  C    3.379546   3.873513   2.154629   3.769806   4.467615
    20  H    4.289324   4.969466   2.481081   4.646533   5.203485
                   11         12         13         14         15
    11  H    0.000000
    12  H    2.746455   0.000000
    13  H    1.864049   2.249924   0.000000
    14  C    6.335775   6.293666   7.626592   0.000000
    15  H    6.707199   6.979978   8.092719   1.098298   0.000000
    16  C    7.288222   6.953791   8.505506   1.342926   2.126955
    17  H    7.200551   6.544807   8.277602   2.117520   3.102868
    18  H    8.279549   8.023200   9.547482   2.117963   2.479420
    19  C    4.229466   4.604709   5.505019   2.470323   2.648431
    20  H    4.850521   5.566289   6.213021   2.685884   2.392545
                   16         17         18         19         20
    16  C    0.000000
    17  H    1.103548   0.000000
    18  H    1.070000   1.864049   0.000000
    19  C    3.711671   4.077714   4.587195   0.000000
    20  H    4.026949   4.635055   4.720173   1.095985   0.000000
 Stoichiometry    C10H10
 Framework group  C1[X(C10H10)]
 Deg. of freedom    54
 Full point group                 C1      NOp   1
 RotChk:  IX=3 Diff= 7.78D-02
 Largest Abelian subgroup         C1      NOp   1
 Largest concise Abelian subgroup C1      NOp   1
                         Standard orientation:                         
 ---------------------------------------------------------------------
 Center     Atomic      Atomic             Coordinates (Angstroms)
 Number     Number       Type             X           Y           Z
 ---------------------------------------------------------------------
      1          6           0        1.362023   -0.280484   -0.018379
      2          6           0        0.847414    1.012416   -0.022738
      3          6           0       -0.521904    1.220515   -0.130184
      4          6           0       -1.361655    0.147689   -0.231674
      5          6           0       -0.847046   -1.145212   -0.227315
      6          1           0        1.523977    1.869420    0.058813
      7          1           0       -0.921602    2.241013   -0.133086
      8          1           0       -1.523610   -2.002216   -0.308866
      9          6           0       -2.827621    0.360771   -0.346992
     10          6           0       -3.719546   -0.114500    0.537336
     11          1           0       -3.367838   -0.698190    1.405337
     12          1           0       -3.155018    1.409129   -0.343069
     13          1           0       -4.771632    0.051149    0.434497
     14          6           0        2.827989   -0.493567    0.096939
     15          1           0        3.155386   -1.541924    0.093016
     16          6           0        3.718461    0.506328    0.200475
     17          1           0        3.365473    1.551898    0.202192
     18          1           0        4.770577    0.329643    0.282533
     19          6           0        0.522271   -1.353310   -0.119869
     20          1           0        0.921970   -2.373808   -0.116967
 ---------------------------------------------------------------------
 Rotational constants (GHZ):           4.5032946           0.7250518           0.6398153
 Leave Link  202 at Thu May 28 01:22:18 2020, MaxMem=    52428800 cpu:               0.1 elap:               0.0
 (Enter /ihome/crc/build/gaussian/a03/g16/l301.exe)
 Standard basis: STO-3G (5D, 7F)
 Ernie: Thresh=  0.10000D-02 Tol=  0.10000D-05 Strict=F.
 There are    60 symmetry adapted cartesian basis functions of A   symmetry.
 There are    60 symmetry adapted basis functions of A   symmetry.
    60 basis functions,   180 primitive gaussians,    60 cartesian basis functions
    35 alpha electrons       35 beta electrons
       nuclear repulsion energy       455.0179382222 Hartrees.
 IExCor=  402 DFT=T Ex+Corr=B3LYP ExCW=0 ScaHFX=  0.200000
 ScaDFX=  0.800000  0.720000  1.000000  0.810000 ScalE2=  1.000000  1.000000
 IRadAn=      5 IRanWt=     -1 IRanGd=            0 ICorTp=0 IEmpDi=  4
 NAtoms=   20 NActive=   20 NUniq=   20 SFac= 1.00D+00 NAtFMM=   60 NAOKFM=F Big=F
 Integral buffers will be    131072 words long.
 Raffenetti 2 integral format.
 Two-electron integral symmetry is turned on.
 Leave Link  301 at Thu May 28 01:22:18 2020, MaxMem=    52428800 cpu:               0.3 elap:               0.1
 (Enter /ihome/crc/build/gaussian/a03/g16/l302.exe)
 NPDir=0 NMtPBC=     1 NCelOv=     1 NCel=       1 NClECP=     1 NCelD=      1
         NCelK=      1 NCelE2=     1 NClLst=     1 CellRange=     0.0.
 One-electron integrals computed using PRISM.
 One-electron integral symmetry used in STVInt
 NBasis=    60 RedAO= T EigKep=  1.64D-01  NBF=    60
 NBsUse=    60 1.00D-06 EigRej= -1.00D+00 NBFU=    60
 Precomputing XC quadrature grid using
 IXCGrd= 4 IRadAn=           5 IRanWt=          -1 IRanGd=           0 AccXCQ= 0.00D+00.
 Generated NRdTot=       0 NPtTot=           0 NUsed=           0 NTot=          32
 NSgBfM=    59    59    59    59    59 MxSgAt=    20 MxSgA2=    20.
 Leave Link  302 at Thu May 28 01:22:18 2020, MaxMem=    52428800 cpu:               0.6 elap:               0.2
 (Enter /ihome/crc/build/gaussian/a03/g16/l303.exe)
 DipDrv:  MaxL=1.
 Leave Link  303 at Thu May 28 01:22:18 2020, MaxMem=    52428800 cpu:               0.3 elap:               0.1
 (Enter /ihome/crc/build/gaussian/a03/g16/l401.exe)
 Initial guess from the checkpoint file:  "dvb_scan_unrelaxed.chk"
 B after Tr=    -0.000000    0.000000    0.000000
         Rot=    0.999576    0.028493   -0.000167   -0.005983 Ang=   3.34 deg.
 Guess basis will be translated and rotated to current coordinates.
 JPrj=2 DoOrth=T DoCkMO=T.
 Generating alternative initial guess.
 ExpMin= 1.69D-01 ExpMax= 7.16D+01 ExpMxC= 7.16D+01 IAcc=2 IRadAn=         4 AccDes= 0.00D+00
 Harris functional with IExCor=  402 and IRadAn=       4 diagonalized for initial guess.
 HarFok:  IExCor=  402 AccDes= 0.00D+00 IRadAn=         4 IDoV= 1 UseB2=F ITyADJ=14
 ICtDFT=  3500011 ScaDFX=  1.000000  1.000000  1.000000  1.000000
 FoFCou: FMM=F IPFlag=           0 FMFlag=      100000 FMFlg1=           0
         NFxFlg=           0 DoJE=T BraDBF=F KetDBF=T FulRan=T
         wScrn=  0.000000 ICntrl=       500 IOpCl=  0 I1Cent=   200000004 NGrid=           0
         NMat0=    1 NMatS0=      1 NMatT0=    0 NMatD0=    1 NMtDS0=    0 NMtDT0=    0
 Petite list used in FoFCou.
 Harris En= -382.140183724470    
 Leave Link  401 at Thu May 28 01:22:19 2020, MaxMem=    52428800 cpu:               2.3 elap:               0.9
 (Enter /ihome/crc/build/gaussian/a03/g16/l502.exe)
 Keep R1 ints in memory in canonical form, NReq=5212687.
 FoFCou: FMM=F IPFlag=           0 FMFlag=           0 FMFlg1=           0
         NFxFlg=           0 DoJE=F BraDBF=F KetDBF=F FulRan=T
         wScrn=  0.000000 ICntrl=       600 IOpCl=  0 I1Cent=           0 NGrid=           0
         NMat0=    1 NMatS0=   1830 NMatT0=    0 NMatD0=    1 NMtDS0=    0 NMtDT0=    0
 Symmetry not used in FoFCou.
 Two-electron integral symmetry not used.
 Closed shell SCF:
 Using DIIS extrapolation, IDIIS=  1040.
 NGot=    52428800 LenX=    50744673 LenY=    50740632
 Requested convergence on RMS density matrix=1.00D-08 within 128 cycles.
 Requested convergence on MAX density matrix=1.00D-06.
 Requested convergence on             energy=1.00D-06.
 No special actions if energy rises.
 Integral accuracy reduced to 1.0D-05 until final iterations.

 Cycle   1  Pass 0  IDiag  1:
 E= -382.137095087326    
 DIIS: error= 2.26D-02 at cycle   1 NSaved=   1.
 NSaved= 1 IEnMin= 1 EnMin= -382.137095087326     IErMin= 1 ErrMin= 2.26D-02
 ErrMax= 2.26D-02  0.00D+00 EMaxC= 1.00D-01 BMatC= 2.97D-02 BMatP= 2.97D-02
 IDIUse=3 WtCom= 7.74D-01 WtEn= 2.26D-01
 Coeff-Com:  0.100D+01
[...]
    10  C    5.111062   4.873853   3.711671   2.493947   2.923844
    11  H    4.950332   5.020378   4.077714   2.723984   2.585006
    12  H    4.833620   4.034781   2.648431   2.195403   3.444531
    13  H    6.156443   5.830337   4.587195   3.475780   3.993818
    14  C    1.485853   2.490981   3.769806   4.251154   3.746420
    15  H    2.195403   3.444531   4.604709   4.833620   4.034781
    16  C    2.493947   2.923844   4.312782   5.111062   4.873853
    17  H    2.723984   2.585006   3.915608   4.950332   5.020378
    18  H    3.475780   3.993818   5.382782   6.156443   5.830337
    19  C    1.366177   2.389940   2.777585   2.411364   1.389201
    20  H    2.141349   3.388356   3.873513   3.403828   2.156628
                    6          7          8          9         10
     6  H    0.000000
     7  H    2.481081   0.000000
     8  H    4.940905   4.289324   0.000000
     9  C    4.623538   2.685884   2.699186   0.000000
    10  C    5.833654   4.026949   2.587247   1.342926   0.000000
    11  H    6.065973   4.635055   1.874163   2.117520   1.103548
    12  H    4.718726   2.392545   3.781526   1.098298   2.126955
    13  H    6.738257   4.720173   3.600191   2.117963   1.070000
    14  C    2.699186   4.646533   4.623538   5.736976   6.570548
    15  H    3.781526   5.566289   4.718726   6.293666   6.953791
    16  C    2.587247   4.964935   5.833654   6.570548   7.552364
    17  H    1.874163   4.355032   6.065973   6.330466   7.443355
    18  H    3.600191   6.018885   6.738257   7.624296   8.575163
    19  C    3.379546   3.873513   2.154629   3.769806   4.312782
    20  H    4.289324   4.969466   2.481081   4.646533   4.964935
                   11         12         13         14         15
    11  H    0.000000
    12  H    3.102868   0.000000
    13  H    1.864049   2.479420   0.000000
    14  C    6.330466   6.293666   7.624296   0.000000
    15  H    6.544807   6.979978   8.023200   1.098298   0.000000
    16  C    7.443355   6.953791   8.575163   1.342926   2.126955
    17  H    7.496966   6.544807   8.413488   2.117520   3.102868
    18  H    8.413488   8.023200   9.608248   2.117963   2.479420
    19  C    3.915608   4.604709   5.382782   2.470323   2.648431
    20  H    4.355032   5.566289   6.018885   2.685884   2.392545
                   16         17         18         19         20
    16  C    0.000000
    17  H    1.103548   0.000000
    18  H    1.070000   1.864049   0.000000
    19  C    3.711671   4.077714   4.587195   0.000000
    20  H    4.026949   4.635055   4.720173   1.095985   0.000000
 Stoichiometry    C10H10
 Framework group  C2H[SGH(C10H10)]
 Deg. of freedom    19
 Full point group                 C2H     NOp   4
 Omega: Change in point group or standard orientation.

 Old FWG=C01  [X(C10H10)]
 New FWG=C02H [SGH(C10H10)]
 RotChk:  IX=0 Diff= 9.83D-01
 Largest Abelian subgroup         C2H     NOp   4
 Largest concise Abelian subgroup C2      NOp   2
                         Standard orientation:                         
 ---------------------------------------------------------------------
 Center     Atomic      Atomic             Coordinates (Angstroms)
 Number     Number       Type             X           Y           Z
 ---------------------------------------------------------------------
      1          6           0        1.205666    0.676891    0.000000
      2          6           0        0.002200    1.375535    0.000000
      3          6           0       -1.205666    0.689286    0.000000
      4          6           0       -1.205666   -0.676891    0.000000
      5          6           0       -0.002200   -1.375535    0.000000
      6          1           0        0.006730    2.470443    0.000000
      7          1           0       -2.150459    1.244759    0.000000
      8          1           0       -0.006730   -2.470443    0.000000
      9          6           0       -2.492798   -1.419218    0.000000
     10          6           0       -2.577785   -2.759452    0.000000
     11          1           0       -1.654345   -3.363669    0.000000
     12          1           0       -3.397785   -0.796919    0.000000
     13          1           0       -3.516212   -3.273509    0.000000
     14          6           0        2.492798    1.419218    0.000000
     15          1           0        3.397785    0.796919    0.000000
     16          6           0        2.577785    2.759452    0.000000
     17          1           0        1.654345    3.363669    0.000000
     18          1           0        3.516212    3.273509    0.000000
     19          6           0        1.205666   -0.689286    0.000000
     20          1           0        2.150459   -1.244759    0.000000
 ---------------------------------------------------------------------
 Rotational constants (GHZ):           4.6786942           0.7288286           0.6305967
 Leave Link  202 at Thu May 28 01:23:31 2020, MaxMem=    52428800 cpu:               0.3 elap:               0.1
 (Enter /ihome/crc/build/gaussian/a03/g16/l301.exe)
 Standard basis: STO-3G (5D, 7F)
 Ernie: Thresh=  0.10000D-02 Tol=  0.10000D-05 Strict=F.
 There are    25 symmetry adapted cartesian basis functions of AG  symmetry.
 There are     5 symmetry adapted cartesian basis functions of BG  symmetry.
 There are     5 symmetry adapted cartesian basis functions of AU  symmetry.
 There are    25 symmetry adapted cartesian basis functions of BU  symmetry.
 There are    25 symmetry adapted basis functions of AG  symmetry.
 There are     5 symmetry adapted basis functions of BG  symmetry.
 There are     5 symmetry adapted basis functions of AU  symmetry.
 There are    25 symmetry adapted basis functions of BU  symmetry.
    60 basis functions,   180 primitive gaussians,    60 cartesian basis functions
    35 alpha electrons       35 beta electrons
       nuclear repulsion energy       455.3072831857 Hartrees.
 IExCor=  402 DFT=T Ex+Corr=B3LYP ExCW=0 ScaHFX=  0.200000
 ScaDFX=  0.800000  0.720000  1.000000  0.810000 ScalE2=  1.000000  1.000000
 IRadAn=      5 IRanWt=     -1 IRanGd=            0 ICorTp=0 IEmpDi=  4
 NAtoms=   20 NActive=   20 NUniq=   10 SFac= 4.00D+00 NAtFMM=   60 NAOKFM=F Big=F
 Integral buffers will be    131072 words long.
 Raffenetti 2 integral format.
 Two-electron integral symmetry is turned on.
 Leave Link  301 at Thu May 28 01:23:31 2020, MaxMem=    52428800 cpu:               0.3 elap:               0.1
 (Enter /ihome/crc/build/gaussian/a03/g16/l302.exe)
 NPDir=0 NMtPBC=     1 NCelOv=     1 NCel=       1 NClECP=     1 NCelD=      1
         NCelK=      1 NCelE2=     1 NClLst=     1 CellRange=     0.0.
 One-electron integrals computed using PRISM.
 One-electron integral symmetry used in STVInt
 NBasis=    60 RedAO= T EigKep=  1.64D-01  NBF=    25     5     5    25
 NBsUse=    60 1.00D-06 EigRej= -1.00D+00 NBFU=    25     5     5    25
 Precomputing XC quadrature grid using
 IXCGrd= 4 IRadAn=           5 IRanWt=          -1 IRanGd=           0 AccXCQ= 0.00D+00.
 Generated NRdTot=       0 NPtTot=           0 NUsed=           0 NTot=          32
 NSgBfM=    59    59    59    59    59 MxSgAt=    20 MxSgA2=    20.
 Leave Link  302 at Thu May 28 01:23:32 2020, MaxMem=    52428800 cpu:               1.6 elap:               0.7
 (Enter /ihome/crc/build/gaussian/a03/g16/l303.exe)
 DipDrv:  MaxL=1.
 Leave Link  303 at Thu May 28 01:23:32 2020, MaxMem=    52428800 cpu:               0.3 elap:               0.1
 (Enter /ihome/crc/build/gaussian/a03/g16/l401.exe)
 Initial guess from the checkpoint file:  "dvb_scan_unrelaxed.chk"
 B after Tr=    -0.000000   -0.000000    0.000000
         Rot=    0.936421    0.003092    0.001156   -0.350862 Ang=  41.08 deg.
 Guess basis will be translated and rotated to current coordinates.
 JPrj=2 DoOrth=T DoCkMO=T.
 Initial guess orbital symmetries:
       Occupied  (?A) (?A) (?A) (?A) (?B) (?B) (?B) (?B) (?A) (?A)
                 (BG) (BG) (BG) (BG) (BG) (BG) (BG) (BG) (BG) (BG)
                 (BG) (BG) (BG) (BG) (BG) (BG) (BG) (BG) (BG) (BG)
                 (BG) (BG) (BG) (BG) (BG)
       Virtual   (BG) (BG) (BG) (BG) (BG) (BG) (BG) (BG) (BG) (BG)
                 (BG) (BG) (BG) (BG) (BG) (BG) (BG) (BG) (BG) (BG)
                 (BG) (BG) (BG) (BG) (BG)
 Generating alternative initial guess.
 ExpMin= 1.69D-01 ExpMax= 7.16D+01 ExpMxC= 7.16D+01 IAcc=2 IRadAn=         4 AccDes= 0.00D+00
 Harris functional with IExCor=  402 and IRadAn=       4 diagonalized for initial guess.
 HarFok:  IExCor=  402 AccDes= 0.00D+00 IRadAn=         4 IDoV= 1 UseB2=F ITyADJ=14
 ICtDFT=  3500011 ScaDFX=  1.000000  1.000000  1.000000  1.000000
 FoFCou: FMM=F IPFlag=           0 FMFlag=      100000 FMFlg1=           0
         NFxFlg=           0 DoJE=T BraDBF=F KetDBF=T FulRan=T
         wScrn=  0.000000 ICntrl=       500 IOpCl=  0 I1Cent=   200000004 NGrid=           0
         NMat0=    1 NMatS0=      1 NMatT0=    0 NMatD0=    1 NMtDS0=    0 NMtDT0=    0
 Petite list used in FoFCou.
 Harris En= -382.191280112503    
 Leave Link  401 at Thu May 28 01:23:33 2020, MaxMem=    52428800 cpu:               2.7 elap:               1.0
 (Enter /ihome/crc/build/gaussian/a03/g16/l502.exe)
 Keep R1 ints in memory in symmetry-blocked form, NReq=5217937.
 FoFCou: FMM=F IPFlag=           0 FMFlag=           0 FMFlg1=           0
         NFxFlg=           0 DoJE=F BraDBF=F KetDBF=F FulRan=T
         wScrn=  0.000000 ICntrl=       600 IOpCl=  0 I1Cent=           0 NGrid=           0
         NMat0=    1 NMatS0=   1830 NMatT0=    0 NMatD0=    1 NMtDS0=    0 NMtDT0=    0
 Petite list used in FoFCou.
 Closed shell SCF:
 Using DIIS extrapolation, IDIIS=  1040.
 NGot=    52428800 LenX=    51908911 LenY=    51904870
 Requested convergence on RMS density matrix=1.00D-08 within 128 cycles.
 Requested convergence on MAX density matrix=1.00D-06.
 Requested convergence on             energy=1.00D-06.
 No special actions if energy rises.
 Integral accuracy reduced to 1.0D-05 until final iterations.
 An orbital has undefined symmetry, so N**3 symmetry is turned off.

 Cycle   1  Pass 0  IDiag  1:
 Density matrix breaks symmetry, PCut= 1.00D-04
 Density matrix has no symmetry -- integrals replicated.
 E= -382.191975215344    
 DIIS: error= 2.12D-02 at cycle   1 NSaved=   1.
 NSaved= 1 IEnMin= 1 EnMin= -382.191975215344     IErMin= 1 ErrMin= 2.12D-02
 ErrMax= 2.12D-02  0.00D+00 EMaxC= 1.00D-01 BMatC= 3.11D-02 BMatP= 3.11D-02
 IDIUse=3 WtCom= 7.88D-01 WtEn= 2.12D-01
 Coeff-Com:  0.100D+01
 Coeff-En:   0.100D+01
 Coeff:      0.100D+01
 Recover alternate guess density for next cycle.
 RMSDP=1.10D-02 MaxDP=2.08D-01              OVMax= 0.00D+00

 Cycle   2  Pass 0  IDiag  1:
 E= -382.238621340744     Delta-E=       -0.046646125401 Rises=F Damp=F
 DIIS: error= 1.88D-02 at cycle   1 NSaved=   1.
 NSaved= 1 IEnMin= 1 EnMin= -382.238621340744     IErMin= 1 ErrMin= 1.88D-02
 ErrMax= 1.88D-02  0.00D+00 EMaxC= 1.00D-01 BMatC= 4.02D-02 BMatP= 4.02D-02
 IDIUse=3 WtCom= 8.12D-01 WtEn= 1.88D-01
 Coeff-Com:  0.100D+01
 Coeff-En:   0.100D+01
 Coeff:      0.100D+01
 Gap=     0.201 Goal=   None    Shift=    0.000
 RMSDP=7.90D-03 MaxDP=1.03D-01 DE=-4.66D-02 OVMax= 0.00D+00

 Cycle   3  Pass 0  IDiag  1:
 E= -382.272754991013     Delta-E=       -0.034133650269 Rises=F Damp=F
 DIIS: error= 1.15D-02 at cycle   2 NSaved=   2.
 NSaved= 2 IEnMin= 2 EnMin= -382.272754991013     IErMin= 2 ErrMin= 1.15D-02
 ErrMax= 1.15D-02  0.00D+00 EMaxC= 1.00D-01 BMatC= 1.60D-02 BMatP= 4.02D-02
 IDIUse=3 WtCom= 8.85D-01 WtEn= 1.15D-01
 Coeff-Com:  0.379D+00 0.621D+00
 Coeff-En:   0.178D+00 0.822D+00
 Coeff:      0.355D+00 0.645D+00
 Gap=     0.201 Goal=   None    Shift=    0.000
 RMSDP=3.68D-03 MaxDP=6.16D-02 DE=-3.41D-02 OVMax= 0.00D+00

 Cycle   4  Pass 0  IDiag  1:
 E= -382.289730919876     Delta-E=       -0.016975928862 Rises=F Damp=F
 DIIS: error= 9.62D-03 at cycle   3 NSaved=   3.
 NSaved= 3 IEnMin= 3 EnMin= -382.289730919876     IErMin= 3 ErrMin= 9.62D-03
 ErrMax= 9.62D-03  0.00D+00 EMaxC= 1.00D-01 BMatC= 3.60D-03 BMatP= 1.60D-02
 IDIUse=3 WtCom= 9.04D-01 WtEn= 9.62D-02
 Coeff-Com:  0.193D+00 0.394D+00 0.413D+00
 Coeff-En:   0.000D+00 0.609D-01 0.939D+00
 Coeff:      0.174D+00 0.362D+00 0.464D+00
 Gap=     0.200 Goal=   None    Shift=    0.000
 RMSDP=1.55D-03 MaxDP=3.94D-02 DE=-1.70D-02 OVMax= 0.00D+00

 Cycle   5  Pass 0  IDiag  1:
 E= -382.293866842212     Delta-E=       -0.004135922336 Rises=F Damp=F
 DIIS: error= 2.99D-03 at cycle   4 NSaved=   4.
 NSaved= 4 IEnMin= 4 EnMin= -382.293866842212     IErMin= 4 ErrMin= 2.99D-03
 ErrMax= 2.99D-03  0.00D+00 EMaxC= 1.00D-01 BMatC= 3.23D-04 BMatP= 3.60D-03
 IDIUse=3 WtCom= 9.70D-01 WtEn= 2.99D-02
 Coeff-Com:  0.247D-02 0.248D-01 0.243D+00 0.729D+00
 Coeff-En:   0.000D+00 0.000D+00 0.881D-01 0.912D+00
 Coeff:      0.240D-02 0.241D-01 0.239D+00 0.735D+00
 Gap=     0.201 Goal=   None    Shift=    0.000
 RMSDP=3.83D-04 MaxDP=9.61D-03 DE=-4.14D-03 OVMax= 0.00D+00

 Cycle   6  Pass 0  IDiag  1:
 E= -382.294275740502     Delta-E=       -0.000408898290 Rises=F Damp=F
 DIIS: error= 2.54D-04 at cycle   5 NSaved=   5.
 NSaved= 5 IEnMin= 5 EnMin= -382.294275740502     IErMin= 5 ErrMin= 2.54D-04
 ErrMax= 2.54D-04  0.00D+00 EMaxC= 1.00D-01 BMatC= 3.80D-06 BMatP= 3.23D-04
 IDIUse=3 WtCom= 9.97D-01 WtEn= 2.54D-03
 Coeff-Com: -0.672D-03 0.891D-02 0.122D+00 0.393D+00 0.477D+00
 Coeff-En:   0.000D+00 0.000D+00 0.000D+00 0.000D+00 0.100D+01
 Coeff:     -0.670D-03 0.889D-02 0.122D+00 0.392D+00 0.478D+00
 Gap=     0.201 Goal=   None    Shift=    0.000
 RMSDP=4.16D-05 MaxDP=6.20D-04 DE=-4.09D-04 OVMax= 0.00D+00

 Cycle   7  Pass 0  IDiag  1:
 E= -382.294280319493     Delta-E=       -0.000004578991 Rises=F Damp=F
 DIIS: error= 1.76D-05 at cycle   6 NSaved=   6.
 NSaved= 6 IEnMin= 6 EnMin= -382.294280319493     IErMin= 6 ErrMin= 1.76D-05
 ErrMax= 1.76D-05  0.00D+00 EMaxC= 1.00D-01 BMatC= 7.95D-09 BMatP= 3.80D-06
 IDIUse=1 WtCom= 1.00D+00 WtEn= 0.00D+00
 Coeff-Com: -0.105D-03-0.196D-04 0.305D-02 0.921D-02 0.427D-01 0.945D+00
 Coeff:     -0.105D-03-0.196D-04 0.305D-02 0.921D-02 0.427D-01 0.945D+00
 Gap=     0.201 Goal=   None    Shift=    0.000
 RMSDP=2.96D-06 MaxDP=3.61D-05 DE=-4.58D-06 OVMax= 0.00D+00

 Initial convergence to 1.0D-05 achieved.  Increase integral accuracy.
 Cycle   8  Pass 1  IDiag  1:
 E= -382.294279144918     Delta-E=        0.000001174575 Rises=F Damp=F
 DIIS: error= 3.64D-06 at cycle   1 NSaved=   1.
 NSaved= 1 IEnMin= 1 EnMin= -382.294279144918     IErMin= 1 ErrMin= 3.64D-06
 ErrMax= 3.64D-06  0.00D+00 EMaxC= 1.00D-01 BMatC= 8.06D-10 BMatP= 8.06D-10
 IDIUse=1 WtCom= 1.00D+00 WtEn= 0.00D+00
 Coeff-Com:  0.100D+01
 Coeff:      0.100D+01
 Gap=     0.201 Goal=   None    Shift=    0.000
 RMSDP=2.96D-06 MaxDP=3.61D-05 DE= 1.17D-06 OVMax= 0.00D+00

 Cycle   9  Pass 1  IDiag  1:
 E= -382.294279145255     Delta-E=       -0.000000000337 Rises=F Damp=F
 DIIS: error= 3.16D-06 at cycle   2 NSaved=   2.
 NSaved= 2 IEnMin= 2 EnMin= -382.294279145255     IErMin= 2 ErrMin= 3.16D-06
 ErrMax= 3.16D-06  0.00D+00 EMaxC= 1.00D-01 BMatC= 6.31D-10 BMatP= 8.06D-10
 IDIUse=1 WtCom= 1.00D+00 WtEn= 0.00D+00
 Coeff-Com:  0.468D+00 0.532D+00
 Coeff:      0.468D+00 0.532D+00
 Gap=     0.201 Goal=   None    Shift=    0.000
 RMSDP=7.05D-07 MaxDP=8.62D-06 DE=-3.37D-10 OVMax= 0.00D+00

 Cycle  10  Pass 1  IDiag  1:
 E= -382.294279146178     Delta-E=       -0.000000000924 Rises=F Damp=F
 DIIS: error= 8.44D-07 at cycle   3 NSaved=   3.
 NSaved= 3 IEnMin= 3 EnMin= -382.294279146178     IErMin= 3 ErrMin= 8.44D-07
 ErrMax= 8.44D-07  0.00D+00 EMaxC= 1.00D-01 BMatC= 2.49D-11 BMatP= 6.31D-10
 IDIUse=1 WtCom= 1.00D+00 WtEn= 0.00D+00
 Coeff-Com:  0.222D+00 0.272D+00 0.506D+00
 Coeff:      0.222D+00 0.272D+00 0.506D+00
 Gap=     0.201 Goal=   None    Shift=    0.000
 RMSDP=1.42D-07 MaxDP=3.57D-06 DE=-9.24D-10 OVMax= 0.00D+00

 Cycle  11  Pass 1  IDiag  1:
 E= -382.294279146203     Delta-E=       -0.000000000025 Rises=F Damp=F
 DIIS: error= 3.61D-07 at cycle   4 NSaved=   4.
 NSaved= 4 IEnMin= 4 EnMin= -382.294279146203     IErMin= 4 ErrMin= 3.61D-07
 ErrMax= 3.61D-07  0.00D+00 EMaxC= 1.00D-01 BMatC= 4.56D-12 BMatP= 2.49D-11
 IDIUse=1 WtCom= 1.00D+00 WtEn= 0.00D+00
 Coeff-Com:  0.264D-03 0.144D-01 0.302D+00 0.684D+00
 Coeff:      0.264D-03 0.144D-01 0.302D+00 0.684D+00
 Gap=     0.201 Goal=   None    Shift=    0.000
 RMSDP=4.48D-08 MaxDP=1.04D-06 DE=-2.51D-11 OVMax= 0.00D+00

 Cycle  12  Pass 1  IDiag  1:
 E= -382.294279146210     Delta-E=       -0.000000000007 Rises=F Damp=F
 DIIS: error= 6.28D-08 at cycle   5 NSaved=   5.
 NSaved= 5 IEnMin= 5 EnMin= -382.294279146210     IErMin= 5 ErrMin= 6.28D-08
 ErrMax= 6.28D-08  0.00D+00 EMaxC= 1.00D-01 BMatC= 1.88D-13 BMatP= 4.56D-12
 IDIUse=1 WtCom= 1.00D+00 WtEn= 0.00D+00
 Coeff-Com: -0.792D-02-0.228D-02 0.140D+00 0.354D+00 0.516D+00
 Coeff:     -0.792D-02-0.228D-02 0.140D+00 0.354D+00 0.516D+00
 Gap=     0.201 Goal=   None    Shift=    0.000
 RMSDP=9.49D-09 MaxDP=1.66D-07 DE=-6.93D-12 OVMax= 0.00D+00

 SCF Done:  E(RB3LYP) =  -382.294279146     A.U. after   12 cycles
            NFock= 12  Conv=0.95D-08     -V/T= 2.0160
 KE= 3.762731371982D+02 PE=-1.795331834864D+03 EE= 5.814571353339D+02
 Leave Link  502 at Thu May 28 01:23:35 2020, MaxMem=    52428800 cpu:               7.0 elap:               2.1
 (Enter /ihome/crc/build/gaussian/a03/g16/l108.exe)
 Scan completed.
 
 Summary of the potential surface scan:
   N      D7          SCF    
 ----  ---------  -----------
    1  -180.0000   -382.29428
    2  -150.0000   -382.28257
    3  -120.0000   -382.23933
    4   -90.0000   -382.16276
    5   -60.0000   -382.07621
    6   -30.0000   -381.54635
    7    -0.0000   -378.37701
    8    30.0000   -381.54635
    9    60.0000   -382.07621
   10    90.0000   -382.16276
   11   120.0000   -382.23933
   12   150.0000   -382.28257
   13   180.0000   -382.29428
 ----  ---------  -----------
  
 Leave Link  108 at Thu May 28 01:23:35 2020, MaxMem=    52428800 cpu:               0.1 elap:               0.1
 (Enter /ihome/crc/build/gaussian/a03/g16/l9999.exe)
 1\1\GINC-SMP-N55\Scan\RB3LYP\STO-3G\C10H10\SHU8\28-May-2020\1\\#p b3ly
 p/sto-3g Scan geom=nocrowd\\DVB scan dihedral\\0,1\C\C,1,B1\C,2,B2,1,A
 1\C,3,B3,2,A2,1,D1,0\C,4,B4,3,A3,2,D2,0\H,2,B5,1,A4,5,D3,0\H,3,B6,2,A5
 ,1,D4,0\H,5,B7,4,A6,3,D5,0\C,4,B8,3,A7,2,D6,0\C,9,B9,4,A8,3,D7,0\H,10,
 B10,9,A9,4,D8,0\H,9,B11,4,A10,3,D9,0\H,10,B12,9,A11,4,D10,0\C,1,B13,2,
 A12,3,D11,0\H,14,B14,1,A13,2,D12,0\C,14,B15,1,A14,2,D13,0\H,16,B16,14,
 A15,1,D14,0\H,16,B17,14,A16,1,D15,0\C,5,B18,4,A17,3,D16,0\H,19,B19,5,A
 18,4,D17,0\\B1=1.39155762\B2=1.38920112\B3=1.3661767\B4=1.39155762\B5=
 1.09491754\B6=1.09598547\B7=1.09491754\B8=1.48585283\B9=1.34292581\B10
 =1.10354826\B11=1.09829801\B12=1.07\B13=1.48585283\B14=1.09829801\B15=
 1.34292581\B16=1.10354826\B17=1.07\B18=1.38920112\B19=1.09598547\A1=12
 0.26061806\A2=119.60307576\A3=120.13630618\A4=119.8992709\A5=119.94428
 41\A6=119.8992709\A7=119.97332138\A8=123.60169362\A9=119.56877435\A10=
 115.5129468\A11=122.34164357\A12=119.89037245\A13=115.5129468\A14=123.
 60169362\A15=119.56877435\A16=122.34164357\A17=120.26061806\A18=119.94
 42841\D1=0.\D2=0.\D3=180.\D4=180.\D5=180.\D6=180.\D7=-180.,s,12,30.\D8
 =0.\D9=0.\D10=180.\D11=180.\D12=180.\D13=0.\D14=0.\D15=180.\D16=0.\D17
 =180.\\Version=ES64L-G16RevA.03\HF=-382.2942791,-382.2825652,-382.2393
 27,-382.1627611,-382.0762109,-381.5463508,-378.377012,-381.5463508,-38
 2.0762109,-382.1627611,-382.239327,-382.2825652,-382.2942791\RMSD=1.26
 5e-09,3.125e-09,4.000e-09,9.032e-09,4.384e-09,5.482e-09,5.750e-09,7.12
 1e-09,4.860e-09,3.142e-09,3.512e-09,3.034e-09,9.489e-09\PG=C02H [SGH(C
 10H10)]\\@


 FOR THE NATURE OF THE CHEMICAL BOND
 IS THE PROBLEM AT THE HEART OF ALL CHEMISTRY.

                     -- BRYCE CRAWFORD, JR., 1953
 Job cpu time:       0 days  0 hours  4 minutes 47.5 seconds.
 Elapsed time:       0 days  0 hours  1 minutes 25.6 seconds.
 File lengths (MBytes):  RWF=      6 Int=      0 D2E=      0 Chk=      2 Scr=      1
 Normal termination of Gaussian 16 at Thu May 28 01:23:35 2020.
