Mo4OCl4 restricted single point                                         
SP        RB3LYP                                                      Gen                 
Number of atoms                            I                6
Info1-9                                    I   N=           9
          27          27           0           0           0         111
           1          18        -502
Full Title                                 C   N=           3
Mo4OCl4 restricted single point     
Route                                      C   N=           5
#p gfinput iop(6/7=3) iop(3/33=1) #B3LYP/Gen pseudo=read #SP
Charge                                     I               -2
Multiplicity                               I                1
Number of electrons                        I               52
Number of alpha electrons                  I               26
Number of beta electrons                   I               26
Number of basis functions                  I               43
Number of independent functions            I               43
Number of point charges in /Mol/           I                0
Number of translation vectors              I                0
Atomic numbers                             I   N=           6
          42           8          17          17          17          17
Nuclear charges                            R   N=           6
  1.40000000E+01  8.00000000E+00  7.00000000E+00  7.00000000E+00  7.00000000E+00
  7.00000000E+00
Current cartesian coordinates              R   N=          18
  1.14423578E-05  5.58764519E-01  1.35525272E-20  7.42573783E-06  3.75182343E+00
  2.71050543E-20  4.57356048E+00 -7.86520189E-01  0.00000000E+00  7.42573783E-06
 -7.86510728E-01  4.57358243E+00 -4.57360709E+00 -7.86499371E-01  4.44089210E-16
  7.42573783E-06 -7.86510728E-01 -4.57358243E+00
Number of symbols in /Mol/                 I                0
Force Field                                I                0
Atom Types                                 C   N=           6
                                                            
            
Int Atom Types                             I   N=           6
           0           0           0           0           0           0
MM charges                                 R   N=           6
  0.00000000E+00  0.00000000E+00  0.00000000E+00  0.00000000E+00  0.00000000E+00
  0.00000000E+00
Integer atomic weights                     I   N=           6
          98          16          35          35          35          35
Real atomic weights                        R   N=           6
  9.79055000E+01  1.59949146E+01  3.49688527E+01  3.49688527E+01  3.49688527E+01
  3.49688527E+01
Atom fragment info                         I   N=           6
           0           0           0           0           0           0
Atom residue num                           I   N=           6
           0           0           0           0           0           0
Nuclear spins                              I   N=           6
           0           0           3           3           3           3
Nuclear ZEff                               R   N=           6
 -2.06640000E+02 -5.60000000E+00 -2.04000000E+02 -2.04000000E+02 -2.04000000E+02
 -2.04000000E+02
Nuclear ZNuc                               R   N=           6
  4.20000000E+01  8.00000000E+00  1.70000000E+01  1.70000000E+01  1.70000000E+01
  1.70000000E+01
Nuclear QMom                               R   N=           6
  0.00000000E+00  0.00000000E+00 -8.16500000E+00 -8.16500000E+00 -8.16500000E+00
 -8.16500000E+00
Nuclear GFac                               R   N=           6
  0.00000000E+00  0.00000000E+00  8.21874000E-01  8.21874000E-01  8.21874000E-01
  8.21874000E-01
MicOpt                                     I   N=           6
          -1          -1          -1          -1          -1          -1
Number of residues                         I                0
Number of secondary structures             I                0
SymInf integers                            I   N=          26
           2           2           1           1           1           1
           1          -1           0           0           0           0
           0           0           0           0           0           0
           0           0           0           0           0           0
           0           0
RotTr to input orientation                 R   N=          12
  7.07106778E-01 -7.07106778E-01  9.83408294E-05 -6.95374673E-05  6.95374673E-05
  9.99999995E-01 -7.07106781E-01 -7.07106781E-01  0.00000000E+00  6.44925091E-04
 -6.44925091E-04 -4.60857807E-01
Number of contracted shells                I               17
Number of primitive shells                 I               52
Pure/Cartesian d shells                    I                0
Pure/Cartesian f shells                    I                0
Highest angular momentum                   I                2
Largest degree of contraction              I                6
Shell types                                I   N=          17
           0           0           1           1          -2           0
          -1          -1          -2           0           1           0
           1           0           1           0           1
Number of primitives per shell             I   N=          17
           4           3           3           3           4           6
           3           1           1           3           3           3
           3           3           3           3           3
Shell to atom map                          I   N=          17
           1           1           1           1           1           2
           2           2           2           3           3           4
           4           5           5           6           6
Primitive exponents                        R   N=          52
  1.30900000E+00  4.50000000E-01  1.68100000E-01  4.23000000E-02  2.36100000E+00
  1.30900000E+00  4.50000000E-01  4.89500000E+00  1.04400000E+00  3.87700000E-01
  4.99500000E-01  7.80000000E-02  2.47000000E-02  2.99300000E+00  1.06300000E+00
  3.72100000E-01  1.17800000E-01  5.48467166E+03  8.25234946E+02  1.88046958E+02
  5.29645000E+01  1.68975704E+01  5.79963534E+00  1.55396162E+01  3.59993359E+00
  1.01376175E+00  2.70005823E-01  8.00000000E-01  2.23100000E+00  4.72000000E-01
  1.63100000E-01  6.29600000E+00  6.33300000E-01  1.81900000E-01  2.23100000E+00
  4.72000000E-01  1.63100000E-01  6.29600000E+00  6.33300000E-01  1.81900000E-01
  2.23100000E+00  4.72000000E-01  1.63100000E-01  6.29600000E+00  6.33300000E-01
  1.81900000E-01  2.23100000E+00  4.72000000E-01  1.63100000E-01  6.29600000E+00
  6.33300000E-01  1.81900000E-01
Contraction coefficients                   R   N=          52
 -4.22489639E-02 -2.33027840E-01  3.80051732E-01  8.21669130E-01 -9.12176195E-01
  1.14774524E+00  6.09711030E-01 -9.08257996E-02  7.04289897E-01  3.97317898E-01
 -5.09638017E-02  4.88377416E-01  6.15765721E-01  4.52679996E-02  4.29771897E-01
  4.97632896E-01  2.65848998E-01  1.83107443E-03  1.39501722E-02  6.84450781E-02
  2.32714336E-01  4.70192898E-01  3.58520853E-01 -1.10777550E-01 -1.48026263E-01
  1.13076702E+00  1.00000000E+00  1.00000000E+00 -2.95891792E-01  7.57312579E-01
  4.35099788E-01 -3.48649982E-02  5.56254871E-01  5.56587871E-01 -2.95891792E-01
  7.57312579E-01  4.35099788E-01 -3.48649982E-02  5.56254871E-01  5.56587871E-01
 -2.95891792E-01  7.57312579E-01  4.35099788E-01 -3.48649982E-02  5.56254871E-01
  5.56587871E-01 -2.95891792E-01  7.57312579E-01  4.35099788E-01 -3.48649982E-02
  5.56254871E-01  5.56587871E-01
P(S=P) Contraction coefficients            R   N=          52
  0.00000000E+00  0.00000000E+00  0.00000000E+00  0.00000000E+00  0.00000000E+00
  0.00000000E+00  0.00000000E+00  0.00000000E+00  0.00000000E+00  0.00000000E+00
  0.00000000E+00  0.00000000E+00  0.00000000E+00  0.00000000E+00  0.00000000E+00
  0.00000000E+00  0.00000000E+00  0.00000000E+00  0.00000000E+00  0.00000000E+00
  0.00000000E+00  0.00000000E+00  0.00000000E+00  7.08742682E-02  3.39752839E-01
  7.27158577E-01  1.00000000E+00  0.00000000E+00  0.00000000E+00  0.00000000E+00
  0.00000000E+00  0.00000000E+00  0.00000000E+00  0.00000000E+00  0.00000000E+00
  0.00000000E+00  0.00000000E+00  0.00000000E+00  0.00000000E+00  0.00000000E+00
  0.00000000E+00  0.00000000E+00  0.00000000E+00  0.00000000E+00  0.00000000E+00
  0.00000000E+00  0.00000000E+00  0.00000000E+00  0.00000000E+00  0.00000000E+00
  0.00000000E+00  0.00000000E+00
Coordinates of each shell                  R   N=          51
  1.14423578E-05  5.58764519E-01  0.00000000E+00  1.14423578E-05  5.58764519E-01
  0.00000000E+00  1.14423578E-05  5.58764519E-01  0.00000000E+00  1.14423578E-05
  5.58764519E-01  0.00000000E+00  1.14423578E-05  5.58764519E-01  0.00000000E+00
  7.42573783E-06  3.75182343E+00  0.00000000E+00  7.42573783E-06  3.75182343E+00
  0.00000000E+00  7.42573783E-06  3.75182343E+00  0.00000000E+00  7.42573783E-06
  3.75182343E+00  0.00000000E+00  4.57356048E+00 -7.86520189E-01  0.00000000E+00
  4.57356048E+00 -7.86520189E-01  0.00000000E+00  7.42573783E-06 -7.86510728E-01
  4.57358243E+00  7.42573783E-06 -7.86510728E-01  4.57358243E+00 -4.57360709E+00
 -7.86499371E-01  0.00000000E+00 -4.57360709E+00 -7.86499371E-01  0.00000000E+00
  7.42573783E-06 -7.86510728E-01 -4.57358243E+00  7.42573783E-06 -7.86510728E-01
 -4.57358243E+00
Num ILSW                                   I              100
ILSW                                       I   N=         100
           0           0           0           0           2           0
           0           0           0           0         402          -1
           5           0           0           0           0           0
           0           0           0           0           0           0
           1           0           0           0           0           0
           0           0      100000           0          -1           0
           0           0           0           0           0           0
           0           0           0           1           0           0
           0 -2000000000           1           0           0           0
           0           0           4          52           0           0
           0           0           5           0           0           0
           0           0           0           6           0           1
           0           0           0           0           0           0
           0           0           0           0           0           0
           0           0           0           0           0           0
           0           0           0           0           0           0
           0           0           0           0
Num RLSW                                   I               52
RLSW                                       R   N=          52
  8.00000000E-01  7.20000000E-01  1.00000000E+00  8.10000000E-01  2.00000000E-01
  0.00000000E+00  0.00000000E+00  1.00000000E+00  0.00000000E+00  0.00000000E+00
  0.00000000E+00  0.00000000E+00  1.00000000E+00  0.00000000E+00  0.00000000E+00
  0.00000000E+00  0.00000000E+00  1.00000000E+00  0.00000000E+00  0.00000000E+00
  0.00000000E+00  0.00000000E+00  1.00000000E+00  0.00000000E+00  0.00000000E+00
  0.00000000E+00  0.00000000E+00  1.00000000E+00  0.00000000E+00  0.00000000E+00
  0.00000000E+00  0.00000000E+00  1.00000000E+00  0.00000000E+00  0.00000000E+00
  0.00000000E+00  0.00000000E+00  0.00000000E+00  1.00000000E+00  1.00000000E+00
  0.00000000E+00  1.00000000E+00  0.00000000E+00  0.00000000E+00  0.00000000E+00
  0.00000000E+00  0.00000000E+00  0.00000000E+00  0.00000000E+00  0.00000000E+00
  0.00000000E+00  0.00000000E+00
ECP-MxAtEC                                 I           250000
ECP-MaxLECP                                I               10
ECP-MaxAtL                                 I          2250000
ECP-MxTECP                                 I         11250000
ECP-LenNCZ                                 I               33
ECP-KFirst                                 I   N=          60
           1           0          18          18          18          18
           6           0          23          23          23          23
           9           0          28          28          28          28
          13           0           0           0           0           0
           0           0           0           0           0           0
           0           0           0           0           0           0
           0           0           0           0           0           0
           0           0           0           0           0           0
           0           0           0           0           0           0
           0           0           0           0           0           0
ECP-KLast                                  I   N=          60
           5           0          22          22          22          22
           8           0          27          27          27          27
          12           0          33          33          33          33
          17           0           0           0           0           0
           0           0           0           0           0           0
           0           0           0           0           0           0
           0           0           0           0           0           0
           0           0           0           0           0           0
           0           0           0           0           0           0
           0           0           0           0           0           0
ECP-LMax                                   I   N=           6
           3           0           2           2           2           2
ECP-LPSkip                                 I   N=           6
           0           1           0           0           0           0
ECP-RNFroz                                 R   N=           6
  2.80000000E+01  0.00000000E+00  1.00000000E+01  1.00000000E+01  1.00000000E+01
  1.00000000E+01
ECP-NLP                                    I   N=          33
           0           1           2           2           2           0
           1           2           0           1           2           2
           0           1           2           2           2           1
           2           2           2           2           0           1
           2           2           2           0           1           2
           2           2           2
ECP-CLP1                                   R   N=          33
 -4.69492000E-02 -2.02080084E+01 -1.06211630E+02 -4.18107368E+01 -4.20541030E+00
  2.80637170E+00  4.45162012E+01  8.27785227E+01  4.94208760E+00  2.58604976E+01
  1.32470874E+02  5.73149794E+01  3.00545910E+00  2.63637851E+01  1.83384920E+02
  9.84453068E+01  2.24901377E+01 -1.00000000E+01  6.62729170E+01 -2.89685950E+01
 -1.28663370E+01 -1.71021700E+00  3.00000000E+00  1.28528510E+01  2.75672398E+02
  1.15677712E+02  3.50606090E+01  5.00000000E+00  7.47948600E+00  6.13032000E+02
  2.80800685E+02  1.07878824E+02  1.53439560E+01
ECP-CLP2                                   R   N=          33
  0.00000000E+00  0.00000000E+00  0.00000000E+00  0.00000000E+00  0.00000000E+00
  0.00000000E+00  0.00000000E+00  0.00000000E+00  0.00000000E+00  0.00000000E+00
  0.00000000E+00  0.00000000E+00  0.00000000E+00  0.00000000E+00  0.00000000E+00
  0.00000000E+00  0.00000000E+00  0.00000000E+00  0.00000000E+00  0.00000000E+00
  0.00000000E+00  0.00000000E+00  0.00000000E+00  0.00000000E+00  0.00000000E+00
  0.00000000E+00  0.00000000E+00  0.00000000E+00  0.00000000E+00  0.00000000E+00
  0.00000000E+00  0.00000000E+00  0.00000000E+00
ECP-ZLP                                    R   N=          33
  5.37966781E+02  1.47898294E+02  4.57358898E+01  1.32911467E+01  4.70599610E+00
  1.10299176E+02  2.32014645E+01  5.35301310E+00  6.32901397E+01  2.33315302E+01
  2.46759423E+01  4.64930400E+00  1.04483998E+02  6.62307245E+01  3.91283176E+01
  1.31164437E+01  3.62802630E+00  9.48130000E+01  1.65644000E+02  3.08317000E+01
  1.05841000E+01  3.77040000E+00  1.28839100E+02  1.20378600E+02  6.35622000E+01
  1.80695000E+01  3.81420000E+00  2.16526300E+02  4.65723000E+01  1.47468500E+02
  4.89869000E+01  1.32096000E+01  3.18310000E+00
MxBond                                     I                5
NBond                                      I   N=           6
           5           1           1           1           1           1
IBond                                      I   N=          30
           2           3           4           5           6           1
           0           0           0           0           1           0
           0           0           0           1           0           0
           0           0           1           0           0           0
           0           1           0           0           0           0
RBond                                      R   N=          30
  2.00000000E+00  1.00000000E+00  1.00000000E+00  1.00000000E+00  1.00000000E+00
  2.00000000E+00  0.00000000E+00  0.00000000E+00  0.00000000E+00  0.00000000E+00
  1.00000000E+00  0.00000000E+00  0.00000000E+00  0.00000000E+00  0.00000000E+00
  1.00000000E+00  0.00000000E+00  0.00000000E+00  0.00000000E+00  0.00000000E+00
  1.00000000E+00  0.00000000E+00  0.00000000E+00  0.00000000E+00  0.00000000E+00
  1.00000000E+00  0.00000000E+00  0.00000000E+00  0.00000000E+00  0.00000000E+00
Virial Ratio                               R      2.677882806365683E+00
SCF Energy                                 R     -2.027136335750526E+02
Total Energy                               R     -2.027136335750526E+02
RMS Density                                R      2.310619873638696E-09
Job Status                                 I                1
Nuclear derivative order                   I                0
External E-field                           R   N=          35
  0.00000000E+00  0.00000000E+00  0.00000000E+00  0.00000000E+00  0.00000000E+00
  0.00000000E+00  0.00000000E+00  0.00000000E+00  0.00000000E+00  0.00000000E+00
  0.00000000E+00  0.00000000E+00  0.00000000E+00  0.00000000E+00  0.00000000E+00
  0.00000000E+00  0.00000000E+00  0.00000000E+00  0.00000000E+00  0.00000000E+00
  0.00000000E+00  0.00000000E+00  0.00000000E+00  0.00000000E+00  0.00000000E+00
  0.00000000E+00  0.00000000E+00  0.00000000E+00  0.00000000E+00  0.00000000E+00
  0.00000000E+00  0.00000000E+00  0.00000000E+00  0.00000000E+00  0.00000000E+00
IOpCl                                      I                0
IROHF                                      I                0
Alpha Orbital Energies                     R   N=          43
 -1.88692054E+01 -2.22098230E+00 -1.28647561E+00 -1.22268780E+00 -1.22268778E+00
 -6.10591949E-01 -4.13772266E-01 -4.02330388E-01 -4.02330321E-01 -3.99874514E-01
 -9.00757885E-02 -7.58301362E-02 -7.58301210E-02 -9.05457652E-03 -5.38455232E-03
  5.03666239E-04  1.51879274E-02  1.51879558E-02  2.86404113E-02  4.79365552E-02
  4.79366101E-02  5.70165521E-02  6.02995735E-02  6.02995845E-02  7.84751514E-02
  1.33882471E-01  2.48193448E-01  2.48193489E-01  2.90407631E-01  2.93225855E-01
  3.61013606E-01  4.43907632E-01  4.58573737E-01  4.58573751E-01  1.24957127E+00
  1.24957128E+00  1.26150215E+00  1.56998622E+00  2.07038528E+00  2.07089854E+00
  2.08445361E+00  2.08445362E+00  2.18477913E+00
Alpha MO coefficients                      R   N=        1849
  2.22426208E-03  7.56883209E-04 -8.56119506E-11  1.10994040E-03  0.00000000E+00
 -1.04563997E-09  1.56273622E-03  0.00000000E+00 -2.09596712E-04  0.00000000E+00
  0.00000000E+00 -3.63032272E-04 -2.48053791E-09  9.95024770E-01  2.71815644E-02
  2.57581499E-09 -8.82430562E-04  0.00000000E+00 -1.04119328E-02 -1.79606031E-09
  1.33231247E-03  0.00000000E+00  1.15407960E-04  0.00000000E+00  0.00000000E+00
  1.99892450E-04  2.87385867E-10 -2.59704994E-04  1.08434236E-04 -1.94989675E-04
  0.00000000E+00 -2.59703850E-04  1.39459534E-10 -1.94988839E-04  1.08435130E-04
 -2.59702689E-04 -1.08436081E-04 -1.94987866E-04  0.00000000E+00 -2.59703850E-04
  1.39459534E-10 -1.94988839E-04 -1.08435130E-04 -6.10741025E-03  1.00138648E+00
  4.66356623E-07  1.18606584E-02  0.00000000E+00 -2.98790329E-08  2.57911645E-03
  0.00000000E+00 -8.23081998E-03  0.00000000E+00  0.00000000E+00 -1.42562020E-02
 -5.52676025E-08 -5.93120299E-03  1.35620946E-02  1.67937664E-08 -1.20650790E-02
  0.00000000E+00 -2.37946543E-03  6.18294833E-12  4.11426834E-03  0.00000000E+00
 -2.65340254E-04  0.00000000E+00  0.00000000E+00 -4.59582656E-04 -1.70717936E-09
  3.77616829E-03 -2.39818550E-03  1.06244016E-03  0.00000000E+00  3.77607718E-03
  8.90126203E-10  1.06239831E-03 -2.39816275E-03  3.77598096E-03  2.39813919E-03
  1.06235315E-03  0.00000000E+00  3.77607718E-03  8.90126203E-10  1.06239831E-03
  2.39816275E-03  1.53431988E-03 -2.76410543E-02 -2.90365654E-06  9.68903194E-01
  0.00000000E+00  2.14363665E-08  1.09474734E-03  0.00000000E+00 -8.41710569E-03
  0.00000000E+00  0.00000000E+00 -1.45788505E-02  2.67850673E-07 -3.51944102E-02
  7.60674253E-02  7.72004634E-08 -5.72804510E-02  0.00000000E+00  3.89544435E-02
 -3.83914102E-08 -6.48129225E-03  0.00000000E+00 -4.88240824E-03  0.00000000E+00
  0.00000000E+00 -8.45657909E-03 -1.27971890E-08 -2.78278251E-03  2.62739788E-03
  1.37833766E-03  0.00000000E+00 -2.78257172E-03  2.36789678E-10  1.37833296E-03
  2.62723304E-03 -2.78234514E-03 -2.62705449E-03  1.37832709E-03  0.00000000E+00
 -2.78257172E-03  2.36789678E-10  1.37833296E-03 -2.62723304E-03  0.00000000E+00
  0.00000000E+00  0.00000000E+00  0.00000000E+00  9.96103046E-01  0.00000000E+00
  0.00000000E+00 -7.24065622E-04  0.00000000E+00  2.74282911E-07  4.89424116E-04
  0.00000000E+00  0.00000000E+00  0.00000000E+00  0.00000000E+00  0.00000000E+00
  0.00000000E+00  1.14089881E-02  0.00000000E+00  0.00000000E+00  0.00000000E+00
  4.22471506E-03  0.00000000E+00  9.52374955E-10 -2.97820903E-03  0.00000000E+00
  0.00000000E+00  0.00000000E+00  0.00000000E+00  0.00000000E+00  1.66705217E-03
  1.33705971E-02 -2.04816280E-09  3.22585828E-03 -9.51717471E-03  0.00000000E+00
  0.00000000E+00  0.00000000E+00  1.66695311E-03 -1.33705971E-02  2.04816280E-09
 -3.22585828E-03 -9.51717471E-03  2.17186769E-08 -7.21683533E-07  9.96103052E-01
  2.99605114E-06  0.00000000E+00 -7.24063913E-04 -5.78257010E-10  0.00000000E+00
 -2.57068774E-07  0.00000000E+00  0.00000000E+00  4.44984335E-07  4.89427875E-04
 -5.78605957E-08  1.10467258E-07  1.14089889E-02 -7.62937496E-08  0.00000000E+00
  1.53246339E-07  4.22471458E-03 -3.83468640E-08  0.00000000E+00 -9.08480184E-09
  0.00000000E+00  0.00000000E+00 -1.85021775E-08 -2.97820907E-03  1.33710944E-02
 -9.51746844E-03  3.22599894E-03  0.00000000E+00 -9.28993963E-09  1.66700537E-03
  9.24324349E-09  1.04951785E-08 -1.33700618E-02 -9.51686026E-03 -3.22570313E-03
  0.00000000E+00 -9.28993963E-09  1.66700537E-03  9.24324349E-09 -1.04951785E-08
  3.22667951E-02 -1.35575012E-01  2.76555273E-07 -2.79746415E-01  0.00000000E+00
 -3.77681097E-09  1.45183701E-02  0.00000000E+00 -6.63430230E-02  0.00000000E+00
  0.00000000E+00 -1.14909487E-01 -4.12301823E-07 -2.26935449E-01  5.11790492E-01
  1.69075559E-07 -5.76573310E-02  0.00000000E+00  5.16258530E-01  2.26137912E-07
 -4.60894860E-02  0.00000000E+00 -9.64123937E-03  0.00000000E+00  0.00000000E+00
 -1.66991158E-02 -7.16601864E-08  7.72676287E-03 -3.84125925E-03  2.18468130E-03
  0.00000000E+00  7.72644275E-03  1.52038045E-09  2.18462650E-03 -3.84123889E-03
  7.72609878E-03  3.84121752E-03  2.18456585E-03  0.00000000E+00  7.72644275E-03
  1.52038045E-09  2.18462650E-03  3.84123889E-03  7.30539098E-02 -7.20056417E-02
 -1.42640097E-05  3.92835461E-02  0.00000000E+00  5.04798742E-06 -1.55801084E-02
  0.00000000E+00  2.21102591E-02  0.00000000E+00  0.00000000E+00  3.82955631E-02
 -7.29959028E-06  3.96787933E-03 -7.43452798E-03 -7.67025657E-07  1.02152301E-03
  0.00000000E+00 -1.21131886E-02  1.50910826E-07  3.39417570E-03  0.00000000E+00
  1.77480348E-04  0.00000000E+00  0.00000000E+00  3.07404896E-04  1.35642452E-08
  4.70745950E-01 -2.89408523E-02  7.04604716E-03  0.00000000E+00  4.70643913E-01
  1.06978658E-06  7.04429166E-03 -2.89347425E-02  4.70536639E-01  2.89283398E-02
  7.04243090E-03  0.00000000E+00  4.70643913E-01  1.06978658E-06  7.04429166E-03
  2.89347425E-02  0.00000000E+00  0.00000000E+00  0.00000000E+00  0.00000000E+00
 -8.02199421E-02  0.00000000E+00  0.00000000E+00  3.60560884E-02  0.00000000E+00
  1.09271997E-08 -4.13692450E-02  0.00000000E+00  0.00000000E+00  0.00000000E+00
  0.00000000E+00  0.00000000E+00  0.00000000E+00 -3.67488419E-03  0.00000000E+00
  0.00000000E+00  0.00000000E+00  4.35396561E-04  0.00000000E+00 -6.67402131E-10
  4.52904900E-05  0.00000000E+00  0.00000000E+00  0.00000000E+00  0.00000000E+00
  0.00000000E+00  5.34596891E-03  6.88752402E-01  3.04186935E-07  9.02542946E-03
 -3.37166287E-02  0.00000000E+00  0.00000000E+00  0.00000000E+00  5.34542540E-03
 -6.88752402E-01 -3.04186935E-07 -9.02542946E-03 -3.37166287E-02 -1.10785160E-05
  9.40196217E-06 -8.02198351E-02 -4.66974544E-06  0.00000000E+00  3.60561061E-02
  2.30037086E-06  0.00000000E+00 -5.20347241E-05  0.00000000E+00  0.00000000E+00
  2.27990979E-05 -4.13691674E-02 -4.86067856E-07  8.83640272E-07 -3.67487010E-03
 -2.71154814E-07  0.00000000E+00  1.57943650E-06  4.35392121E-04 -4.54970868E-07
  0.00000000E+00 -8.58092770E-08  0.00000000E+00  0.00000000E+00 -2.26196138E-08
  4.52901928E-05  6.88987363E-01 -3.37265558E-02  9.02927637E-03  0.00000000E+00
 -3.79140930E-04  5.34570148E-03 -5.54478128E-06  1.73296718E-05 -6.88517159E-01
 -3.37066007E-02 -9.02154186E-03  0.00000000E+00 -3.79140930E-04  5.34570148E-03
 -5.54478128E-06 -1.73296718E-05  2.00605761E-07 -1.60381758E-07  4.80443935E-05
  6.97927722E-08  0.00000000E+00 -2.29756658E-05 -3.82610841E-08  0.00000000E+00
 -7.63264787E-02  0.00000000E+00  0.00000000E+00  4.40672466E-02  2.47173472E-05
  7.99063747E-09 -1.42910330E-08  2.06365915E-06  6.43359421E-09  0.00000000E+00
 -2.65457904E-08 -1.79449384E-07  7.97628750E-09  0.00000000E+00 -1.00453744E-04
  0.00000000E+00  0.00000000E+00  5.79985111E-05 -2.20539562E-08  4.90935107E-01
 -2.08296719E-02  7.13144072E-03  0.00000000E+00 -4.91363279E-01 -3.49231566E-06
 -7.13659717E-03  2.08497152E-02  4.91796707E-01  2.08700082E-02  7.14180496E-03
  0.00000000E+00 -4.91363279E-01 -3.49231566E-06 -7.13659717E-03 -2.08497152E-02
 -3.98208981E-02  1.13742241E-01 -1.22392341E-06  1.45293702E-01  0.00000000E+00
  3.62412264E-07  6.07578957E-02  0.00000000E+00  2.51436785E-01  0.00000000E+00
  0.00000000E+00  4.35501192E-01  4.31135865E-06 -3.69942009E-02  6.45516397E-02
  2.67021187E-06  5.51378506E-01  0.00000000E+00  2.31069936E-01  1.76525918E-06
  3.31838414E-01  0.00000000E+00  1.44585861E-02  0.00000000E+00  0.00000000E+00
  2.50430052E-02 -7.85672103E-08 -2.74510313E-02 -3.25606031E-02  4.97007085E-02
  0.00000000E+00 -2.74511445E-02 -1.22219747E-07  4.96973668E-02 -3.25606971E-02
 -2.74512356E-02  3.25607583E-02  4.96937993E-02  0.00000000E+00 -2.74511445E-02
 -1.22219747E-07  4.96973668E-02  3.25606971E-02  0.00000000E+00  0.00000000E+00
  0.00000000E+00  0.00000000E+00 -6.48482528E-02  0.00000000E+00  0.00000000E+00
  7.06212698E-02  0.00000000E+00 -1.39662358E-06  4.41904420E-01  0.00000000E+00
  0.00000000E+00  0.00000000E+00  0.00000000E+00  0.00000000E+00  0.00000000E+00
  5.24089593E-01  0.00000000E+00  0.00000000E+00  0.00000000E+00  3.46110326E-01
  0.00000000E+00  7.86924709E-08 -3.02855362E-02  0.00000000E+00  0.00000000E+00
  0.00000000E+00  0.00000000E+00  0.00000000E+00 -1.90192744E-02  2.33589143E-02
 -6.23743012E-07  6.91038060E-02  9.36725061E-02  0.00000000E+00  0.00000000E+00
  0.00000000E+00 -1.90159238E-02 -2.33589143E-02  6.23743012E-07 -6.91038060E-02
  9.36725061E-02  1.20195845E-07  2.44674436E-07 -6.48482964E-02 -2.23862523E-06
  0.00000000E+00  7.06212297E-02  3.85240345E-07  0.00000000E+00 -2.63405503E-07
  0.00000000E+00  0.00000000E+00 -4.90225688E-06  4.41904383E-01  2.82892810E-07
 -5.89610597E-07  5.24089661E-01 -3.21559280E-06  0.00000000E+00 -1.62768498E-06
  3.46110391E-01 -2.18036979E-06  0.00000000E+00 -1.26003220E-07  0.00000000E+00
  0.00000000E+00 -5.37862503E-08 -3.02855407E-02  2.33620992E-02  9.36801744E-02
  6.91048406E-02  0.00000000E+00  3.94855473E-07 -1.90176475E-02 -9.15068102E-08
  7.72270319E-07 -2.33555526E-02  9.36643555E-02 -6.91027755E-02  0.00000000E+00
  3.94855473E-07 -1.90176475E-02 -9.15068102E-08 -7.72270319E-07 -2.32331131E-01
  2.01858233E-01  1.06431223E-05 -1.41662404E-02  0.00000000E+00 -1.93924802E-06
  1.34522418E-02  0.00000000E+00 -3.83103721E-02  0.00000000E+00  0.00000000E+00
 -6.63475744E-02  4.75250650E-06 -9.88757887E-03  2.17083935E-02 -1.31818072E-05
  1.14967131E-01  0.00000000E+00  4.57222327E-02 -1.12712441E-05  8.15456428E-02
  0.00000000E+00  1.77264321E-03  0.00000000E+00  0.00000000E+00  3.07037407E-03
  6.75861815E-07  1.20698114E-01  4.18730112E-01 -9.81327715E-02  0.00000000E+00
  1.20694185E-01 -8.96043022E-06 -9.81266191E-02  4.18703064E-01  1.20686823E-01
 -4.18662761E-01 -9.81140363E-02  0.00000000E+00  1.20694185E-01 -8.96043022E-06
 -9.81266191E-02 -4.18703064E-01 -2.15316014E-06  1.76710312E-06  1.20568495E-05
 -1.42404129E-07  0.00000000E+00 -2.18798355E-06  1.94508103E-07  0.00000000E+00
  3.80982542E-01  0.00000000E+00  0.00000000E+00 -2.19961232E-01  6.29726393E-06
 -8.41277709E-08  1.91804739E-07 -1.20164195E-05  9.41741187E-07  0.00000000E+00
  3.69330385E-07 -1.07608033E-05  6.76300981E-07  0.00000000E+00  3.24479592E-03
  0.00000000E+00  0.00000000E+00 -1.87335342E-03  5.97258049E-07  9.15283766E-02
  3.63921029E-01 -1.75663740E-01  0.00000000E+00 -9.15201958E-02 -9.04029384E-06
  1.75646202E-01 -3.63876014E-01  9.15163581E-02 -3.63846389E-01 -1.75631492E-01
  0.00000000E+00 -9.15201958E-02 -9.04029384E-06  1.75646202E-01  3.63876014E-01
  0.00000000E+00  0.00000000E+00  0.00000000E+00  0.00000000E+00 -9.85516441E-06