tryptophan static polarizability                                        
SP        RHF                                                         STO-3G              
Number of atoms                            I               27
Info1-9                                    I   N=           9
          35          34           0           0           0         110
           1           1           2
Full Title                                 C   N=           3
tryptophan static polarizability    
Route                                      C   N=           3
#p hf/sto-3g polar symmetry=none    
Charge                                     I                0
Multiplicity                               I                1
Number of electrons                        I              108
Number of alpha electrons                  I               54
Number of beta electrons                   I               54
Number of basis functions                  I               87
Number of independent functions            I               87
Number of point charges in /Mol/           I                0
Number of translation vectors              I                0
Atomic numbers                             I   N=          27
           7           6           6           8           6           1
           1           6           6           7           1           6
           6           6           1           6           1           6
           1           6           1           1           1           1
           1           8           1
Nuclear charges                            R   N=          27
  7.00000000E+00  6.00000000E+00  6.00000000E+00  8.00000000E+00  6.00000000E+00
  1.00000000E+00  1.00000000E+00  6.00000000E+00  6.00000000E+00  7.00000000E+00
  1.00000000E+00  6.00000000E+00  6.00000000E+00  6.00000000E+00  1.00000000E+00
  6.00000000E+00  1.00000000E+00  6.00000000E+00  1.00000000E+00  6.00000000E+00
  1.00000000E+00  1.00000000E+00  1.00000000E+00  1.00000000E+00  1.00000000E+00
  8.00000000E+00  1.00000000E+00
Current cartesian coordinates              R   N=          81
 -1.32248113E-01  6.27764598E-01  5.33145252E-01  2.59422272E+00  1.83438232E-01
 -2.44885336E-02  3.96261876E+00 -9.89447473E-02  2.58564654E+00  5.93043114E+00
 -1.24035666E+00  2.90642957E+00  3.69057174E+00  2.48237067E+00 -1.50347026E+00
  3.48517037E+00  4.16696044E+00 -3.40459066E-01  2.54279656E+00  2.75804300E+00
 -3.19093286E+00  6.43520661E+00  2.12983696E+00 -2.25218981E+00  8.47452399E+00
  3.06797755E+00 -1.05804216E+00  1.06786703E+01  2.33935364E+00 -2.32145497E+00
  1.24739526E+01  2.66684784E+00 -1.70616368E+00  1.00007367E+01  8.23216529E-01
 -4.37124210E+00  7.35897515E+00  6.72364181E-01 -4.39612956E+00  6.17168845E+00
 -7.24257864E-01 -6.31760190E+00  4.13175515E+00 -8.64938767E-01 -6.39028249E+00
  7.63104712E+00 -1.90626362E+00 -8.10144369E+00  6.74573467E+00 -2.99044683E+00
 -9.59142017E+00  1.02886440E+01 -1.73757950E+00 -8.03492705E+00  1.13818065E+01
 -2.69814596E+00 -9.47319840E+00  1.15026828E+01 -3.82489064E-01 -6.19219839E+00
  1.35411445E+01 -2.43351843E-01 -6.13379601E+00  8.59024551E+00  4.23776956E+00
  6.14913036E-01 -9.75056702E-01  1.41330838E+00 -1.03701764E+00  2.91405719E+00
 -1.53898156E+00 -1.12163999E+00 -1.00198547E+00 -1.10057454E+00  7.71860078E-01
  2.75443582E+00  1.13324746E+00  4.55301169E+00  1.13194885E+00  1.67097544E+00
  3.78849090E+00
Number of symbols in /Mol/                 I                0
Force Field                                I                0
Atom Types                                 C   N=          27
                                                            
                                                            
                                                            
                                                            
                                                            
                        
Int Atom Types                             I   N=          27
           0           0           0           0           0           0
           0           0           0           0           0           0
           0           0           0           0           0           0
           0           0           0           0           0           0
           0           0           0
MM charges                                 R   N=          27
  0.00000000E+00  0.00000000E+00  0.00000000E+00  0.00000000E+00  0.00000000E+00
  0.00000000E+00  0.00000000E+00  0.00000000E+00  0.00000000E+00  0.00000000E+00
  0.00000000E+00  0.00000000E+00  0.00000000E+00  0.00000000E+00  0.00000000E+00
  0.00000000E+00  0.00000000E+00  0.00000000E+00  0.00000000E+00  0.00000000E+00
  0.00000000E+00  0.00000000E+00  0.00000000E+00  0.00000000E+00  0.00000000E+00
  0.00000000E+00  0.00000000E+00
Integer atomic weights                     I   N=          27
          14          12          12          16          12           1
           1          12          12          14           1          12
          12          12           1          12           1          12
           1          12           1           1           1           1
           1          16           1
Real atomic weights                        R   N=          27
  1.40030740E+01  1.20000000E+01  1.20000000E+01  1.59949146E+01  1.20000000E+01
  1.00782504E+00  1.00782504E+00  1.20000000E+01  1.20000000E+01  1.40030740E+01
  1.00782504E+00  1.20000000E+01  1.20000000E+01  1.20000000E+01  1.00782504E+00
  1.20000000E+01  1.00782504E+00  1.20000000E+01  1.00782504E+00  1.20000000E+01
  1.00782504E+00  1.00782504E+00  1.00782504E+00  1.00782504E+00  1.00782504E+00
  1.59949146E+01  1.00782504E+00
Atom fragment info                         I   N=          27
           0           0           0           0           0           0
           0           0           0           0           0           0
           0           0           0           0           0           0
           0           0           0           0           0           0
           0           0           0
Atom residue num                           I   N=          27
           0           0           0           0           0           0
           0           0           0           0           0           0
           0           0           0           0           0           0
           0           0           0           0           0           0
           0           0           0
Nuclear spins                              I   N=          27
           2           0           0           0           0           1
           1           0           0           2           1           0
           0           0           1           0           1           0
           1           0           1           1           1           1
           1           0           1
Nuclear ZEff                               R   N=          27
 -4.55000000E+00 -3.60000000E+00 -3.60000000E+00 -5.60000000E+00 -3.60000000E+00
 -1.00000000E+00 -1.00000000E+00 -3.60000000E+00 -3.60000000E+00 -4.55000000E+00
 -1.00000000E+00 -3.60000000E+00 -3.60000000E+00 -3.60000000E+00 -1.00000000E+00
 -3.60000000E+00 -1.00000000E+00 -3.60000000E+00 -1.00000000E+00 -3.60000000E+00
 -1.00000000E+00 -1.00000000E+00 -1.00000000E+00 -1.00000000E+00 -1.00000000E+00
 -5.60000000E+00 -1.00000000E+00
Nuclear ZNuc                               R   N=          27
  7.00000000E+00  6.00000000E+00  6.00000000E+00  8.00000000E+00  6.00000000E+00
  1.00000000E+00  1.00000000E+00  6.00000000E+00  6.00000000E+00  7.00000000E+00
  1.00000000E+00  6.00000000E+00  6.00000000E+00  6.00000000E+00  1.00000000E+00
  6.00000000E+00  1.00000000E+00  6.00000000E+00  1.00000000E+00  6.00000000E+00
  1.00000000E+00  1.00000000E+00  1.00000000E+00  1.00000000E+00  1.00000000E+00
  8.00000000E+00  1.00000000E+00
Nuclear QMom                               R   N=          27
  2.04400000E+00  0.00000000E+00  0.00000000E+00  0.00000000E+00  0.00000000E+00
  0.00000000E+00  0.00000000E+00  0.00000000E+00  0.00000000E+00  2.04400000E+00
  0.00000000E+00  0.00000000E+00  0.00000000E+00  0.00000000E+00  0.00000000E+00
  0.00000000E+00  0.00000000E+00  0.00000000E+00  0.00000000E+00  0.00000000E+00
  0.00000000E+00  0.00000000E+00  0.00000000E+00  0.00000000E+00  0.00000000E+00
  0.00000000E+00  0.00000000E+00
Nuclear GFac                               R   N=          27
  4.03761000E-01  0.00000000E+00  0.00000000E+00  0.00000000E+00  0.00000000E+00
  2.79284600E+00  2.79284600E+00  0.00000000E+00  0.00000000E+00  4.03761000E-01
  2.79284600E+00  0.00000000E+00  0.00000000E+00  0.00000000E+00  2.79284600E+00
  0.00000000E+00  2.79284600E+00  0.00000000E+00  2.79284600E+00  0.00000000E+00
  2.79284600E+00  2.79284600E+00  2.79284600E+00  2.79284600E+00  2.79284600E+00
  0.00000000E+00  2.79284600E+00
MicOpt                                     I   N=          27
          -1          -1          -1          -1          -1          -1
          -1          -1          -1          -1          -1          -1
          -1          -1          -1          -1          -1          -1
          -1          -1          -1          -1          -1          -1
          -1          -1          -1
Number of residues                         I                0
Number of secondary structures             I                0
Number of contracted shells                I               42
Number of primitive shells                 I              126
Pure/Cartesian d shells                    I                0
Pure/Cartesian f shells                    I                0
Highest angular momentum                   I                1
Largest degree of contraction              I                3
Shell types                                I   N=          42
           0          -1           0          -1           0          -1
           0          -1           0          -1           0           0
           0          -1           0          -1           0          -1
           0           0          -1           0          -1           0
          -1           0           0          -1           0           0
          -1           0           0          -1           0           0
           0           0           0           0          -1           0
Number of primitives per shell             I   N=          42
           3           3           3           3           3           3
           3           3           3           3           3           3
           3           3           3           3           3           3
           3           3           3           3           3           3
           3           3           3           3           3           3
           3           3           3           3           3           3
           3           3           3           3           3           3
Shell to atom map                          I   N=          42
           1           1           2           2           3           3
           4           4           5           5           6           7
           8           8           9           9          10          10
          11          12          12          13          13          14
          14          15          16          16          17          18
          18          19          20          20          21          22
          23          24          25          26          26          27
Primitive exponents                        R   N=         126
  9.91061690E+01  1.80523124E+01  4.88566024E+00  3.78045588E+00  8.78496645E-01
  2.85714374E-01  7.16168373E+01  1.30450963E+01  3.53051216E+00  2.94124936E+00
  6.83483096E-01  2.22289916E-01  7.16168373E+01  1.30450963E+01  3.53051216E+00
  2.94124936E+00  6.83483096E-01  2.22289916E-01  1.30709321E+02  2.38088661E+01
  6.44360831E+00  5.03315132E+00  1.16959612E+00  3.80388960E-01  7.16168373E+01
  1.30450963E+01  3.53051216E+00  2.94124936E+00  6.83483096E-01  2.22289916E-01
  3.42525091E+00  6.23913730E-01  1.68855404E-01  3.42525091E+00  6.23913730E-01
  1.68855404E-01  7.16168373E+01  1.30450963E+01  3.53051216E+00  2.94124936E+00
  6.83483096E-01  2.22289916E-01  7.16168373E+01  1.30450963E+01  3.53051216E+00
  2.94124936E+00  6.83483096E-01  2.22289916E-01  9.91061690E+01  1.80523124E+01
  4.88566024E+00  3.78045588E+00  8.78496645E-01  2.85714374E-01  3.42525091E+00
  6.23913730E-01  1.68855404E-01  7.16168373E+01  1.30450963E+01  3.53051216E+00
  2.94124936E+00  6.83483096E-01  2.22289916E-01  7.16168373E+01  1.30450963E+01
  3.53051216E+00  2.94124936E+00  6.83483096E-01  2.22289916E-01  7.16168373E+01
  1.30450963E+01  3.53051216E+00  2.94124936E+00  6.83483096E-01  2.22289916E-01
  3.42525091E+00  6.23913730E-01  1.68855404E-01  7.16168373E+01  1.30450963E+01
  3.53051216E+00  2.94124936E+00  6.83483096E-01  2.22289916E-01  3.42525091E+00
  6.23913730E-01  1.68855404E-01  7.16168373E+01  1.30450963E+01  3.53051216E+00
  2.94124936E+00  6.83483096E-01  2.22289916E-01  3.42525091E+00  6.23913730E-01
  1.68855404E-01  7.16168373E+01  1.30450963E+01  3.53051216E+00  2.94124936E+00
  6.83483096E-01  2.22289916E-01  3.42525091E+00  6.23913730E-01  1.68855404E-01
  3.42525091E+00  6.23913730E-01  1.68855404E-01  3.42525091E+00  6.23913730E-01
  1.68855404E-01  3.42525091E+00  6.23913730E-01  1.68855404E-01  3.42525091E+00
  6.23913730E-01  1.68855404E-01  1.30709321E+02  2.38088661E+01  6.44360831E+00
  5.03315132E+00  1.16959612E+00  3.80388960E-01  3.42525091E+00  6.23913730E-01
  1.68855404E-01
Contraction coefficients                   R   N=         126
  1.54328967E-01  5.35328142E-01  4.44634542E-01 -9.99672292E-02  3.99512826E-01
  7.00115469E-01  1.54328967E-01  5.35328142E-01  4.44634542E-01 -9.99672292E-02
  3.99512826E-01  7.00115469E-01  1.54328967E-01  5.35328142E-01  4.44634542E-01
 -9.99672292E-02  3.99512826E-01  7.00115469E-01  1.54328967E-01  5.35328142E-01
  4.44634542E-01 -9.99672292E-02  3.99512826E-01  7.00115469E-01  1.54328967E-01
  5.35328142E-01  4.44634542E-01 -9.99672292E-02  3.99512826E-01  7.00115469E-01
  1.54328967E-01  5.35328142E-01  4.44634542E-01  1.54328967E-01  5.35328142E-01
  4.44634542E-01  1.54328967E-01  5.35328142E-01  4.44634542E-01 -9.99672292E-02
  3.99512826E-01  7.00115469E-01  1.54328967E-01  5.35328142E-01  4.44634542E-01
 -9.99672292E-02  3.99512826E-01  7.00115469E-01  1.54328967E-01  5.35328142E-01
  4.44634542E-01 -9.99672292E-02  3.99512826E-01  7.00115469E-01  1.54328967E-01
  5.35328142E-01  4.44634542E-01  1.54328967E-01  5.35328142E-01  4.44634542E-01
 -9.99672292E-02  3.99512826E-01  7.00115469E-01  1.54328967E-01  5.35328142E-01
  4.44634542E-01 -9.99672292E-02  3.99512826E-01  7.00115469E-01  1.54328967E-01
  5.35328142E-01  4.44634542E-01 -9.99672292E-02  3.99512826E-01  7.00115469E-01
  1.54328967E-01  5.35328142E-01  4.44634542E-01  1.54328967E-01  5.35328142E-01
  4.44634542E-01 -9.99672292E-02  3.99512826E-01  7.00115469E-01  1.54328967E-01
  5.35328142E-01  4.44634542E-01  1.54328967E-01  5.35328142E-01  4.44634542E-01
 -9.99672292E-02  3.99512826E-01  7.00115469E-01  1.54328967E-01  5.35328142E-01
  4.44634542E-01  1.54328967E-01  5.35328142E-01  4.44634542E-01 -9.99672292E-02
  3.99512826E-01  7.00115469E-01  1.54328967E-01  5.35328142E-01  4.44634542E-01
  1.54328967E-01  5.35328142E-01  4.44634542E-01  1.54328967E-01  5.35328142E-01
  4.44634542E-01  1.54328967E-01  5.35328142E-01  4.44634542E-01  1.54328967E-01
  5.35328142E-01  4.44634542E-01  1.54328967E-01  5.35328142E-01  4.44634542E-01
 -9.99672292E-02  3.99512826E-01  7.00115469E-01  1.54328967E-01  5.35328142E-01
  4.44634542E-01
P(S=P) Contraction coefficients            R   N=         126
  0.00000000E+00  0.00000000E+00  0.00000000E+00  1.55916275E-01  6.07683719E-01
  3.91957393E-01  0.00000000E+00  0.00000000E+00  0.00000000E+00  1.55916275E-01
  6.07683719E-01  3.91957393E-01  0.00000000E+00  0.00000000E+00  0.00000000E+00
  1.55916275E-01  6.07683719E-01  3.91957393E-01  0.00000000E+00  0.00000000E+00
  0.00000000E+00  1.55916275E-01  6.07683719E-01  3.91957393E-01  0.00000000E+00
  0.00000000E+00  0.00000000E+00  1.55916275E-01  6.07683719E-01  3.91957393E-01
  0.00000000E+00  0.00000000E+00  0.00000000E+00  0.00000000E+00  0.00000000E+00
  0.00000000E+00  0.00000000E+00  0.00000000E+00  0.00000000E+00  1.55916275E-01
  6.07683719E-01  3.91957393E-01  0.00000000E+00  0.00000000E+00  0.00000000E+00
  1.55916275E-01  6.07683719E-01  3.91957393E-01  0.00000000E+00  0.00000000E+00
  0.00000000E+00  1.55916275E-01  6.07683719E-01  3.91957393E-01  0.00000000E+00
  0.00000000E+00  0.00000000E+00  0.00000000E+00  0.00000000E+00  0.00000000E+00
  1.55916275E-01  6.07683719E-01  3.91957393E-01  0.00000000E+00  0.00000000E+00
  0.00000000E+00  1.55916275E-01  6.07683719E-01  3.91957393E-01  0.00000000E+00
  0.00000000E+00  0.00000000E+00  1.55916275E-01  6.07683719E-01  3.91957393E-01
  0.00000000E+00  0.00000000E+00  0.00000000E+00  0.00000000E+00  0.00000000E+00
  0.00000000E+00  1.55916275E-01  6.07683719E-01  3.91957393E-01  0.00000000E+00
  0.00000000E+00  0.00000000E+00  0.00000000E+00  0.00000000E+00  0.00000000E+00
  1.55916275E-01  6.07683719E-01  3.91957393E-01  0.00000000E+00  0.00000000E+00
  0.00000000E+00  0.00000000E+00  0.00000000E+00  0.00000000E+00  1.55916275E-01
  6.07683719E-01  3.91957393E-01  0.00000000E+00  0.00000000E+00  0.00000000E+00
  0.00000000E+00  0.00000000E+00  0.00000000E+00  0.00000000E+00  0.00000000E+00
  0.00000000E+00  0.00000000E+00  0.00000000E+00  0.00000000E+00  0.00000000E+00
  0.00000000E+00  0.00000000E+00  0.00000000E+00  0.00000000E+00  0.00000000E+00
  1.55916275E-01  6.07683719E-01  3.91957393E-01  0.00000000E+00  0.00000000E+00
  0.00000000E+00
Coordinates of each shell                  R   N=         126
 -1.32248113E-01  6.27764598E-01  5.33145252E-01 -1.32248113E-01  6.27764598E-01
  5.33145252E-01  2.59422272E+00  1.83438232E-01 -2.44885336E-02  2.59422272E+00
  1.83438232E-01 -2.44885336E-02  3.96261876E+00 -9.89447473E-02  2.58564654E+00
  3.96261876E+00 -9.89447473E-02  2.58564654E+00  5.93043114E+00 -1.24035666E+00
  2.90642957E+00  5.93043114E+00 -1.24035666E+00  2.90642957E+00  3.69057174E+00
  2.48237067E+00 -1.50347026E+00  3.69057174E+00  2.48237067E+00 -1.50347026E+00
  3.48517037E+00  4.16696044E+00 -3.40459066E-01  2.54279656E+00  2.75804300E+00
 -3.19093286E+00  6.43520661E+00  2.12983696E+00 -2.25218981E+00  6.43520661E+00
  2.12983696E+00 -2.25218981E+00  8.47452399E+00  3.06797755E+00 -1.05804216E+00
  8.47452399E+00  3.06797755E+00 -1.05804216E+00  1.06786703E+01  2.33935364E+00
 -2.32145497E+00  1.06786703E+01  2.33935364E+00 -2.32145497E+00  1.24739526E+01
  2.66684784E+00 -1.70616368E+00  1.00007367E+01  8.23216529E-01 -4.37124210E+00
  1.00007367E+01  8.23216529E-01 -4.37124210E+00  7.35897515E+00  6.72364181E-01
 -4.39612956E+00  7.35897515E+00  6.72364181E-01 -4.39612956E+00  6.17168845E+00
 -7.24257864E-01 -6.31760190E+00  6.17168845E+00 -7.24257864E-01 -6.31760190E+00
  4.13175515E+00 -8.64938767E-01 -6.39028249E+00  7.63104712E+00 -1.90626362E+00
 -8.10144369E+00  7.63104712E+00 -1.90626362E+00 -8.10144369E+00  6.74573467E+00
 -2.99044683E+00 -9.59142017E+00  1.02886440E+01 -1.73757950E+00 -8.03492705E+00
  1.02886440E+01 -1.73757950E+00 -8.03492705E+00  1.13818065E+01 -2.69814596E+00
 -9.47319840E+00  1.15026828E+01 -3.82489064E-01 -6.19219839E+00  1.15026828E+01
 -3.82489064E-01 -6.19219839E+00  1.35411445E+01 -2.43351843E-01 -6.13379601E+00
  8.59024551E+00  4.23776956E+00  6.14913036E-01 -9.75056702E-01  1.41330838E+00
 -1.03701764E+00  2.91405719E+00 -1.53898156E+00 -1.12163999E+00 -1.00198547E+00
 -1.10057454E+00  7.71860078E-01  2.75443582E+00  1.13324746E+00  4.55301169E+00
  2.75443582E+00  1.13324746E+00  4.55301169E+00  1.13194885E+00  1.67097544E+00
  3.78849090E+00
Num ILSW                                   I              100
ILSW                                       I   N=         100
           0           0           0           0           2           0
           0           0           0           0           0          -1
           5           0           0           0           0           0
           0           0           0           0           0           0
           1           1           0           0           0           0
           0           0      100000           0          -1           0
           0           0           0           0           0           0
           0           0           0           1           0           0
           0 -2000000000           1           0           0           0
           0           0           4          52           0           0
           0           0           0           0           0           0
           0           0           0          27           0           1
           0           0           0           0           0           0
           0           0           0           0           0           0
           0           0           0           0           0           0
           0           0           0           0           0           0
           0           0           0           0
Num RLSW                                   I               52
RLSW                                       R   N=          52
  1.00000000E+00  1.00000000E+00  1.00000000E+00  1.00000000E+00  1.00000000E+00
  0.00000000E+00  0.00000000E+00  1.00000000E+00  0.00000000E+00  0.00000000E+00
  0.00000000E+00  0.00000000E+00  1.00000000E+00  0.00000000E+00  0.00000000E+00
  0.00000000E+00  0.00000000E+00  1.00000000E+00  0.00000000E+00  0.00000000E+00
  0.00000000E+00  0.00000000E+00  1.00000000E+00  0.00000000E+00  0.00000000E+00
  0.00000000E+00  0.00000000E+00  1.00000000E+00  0.00000000E+00  0.00000000E+00
  0.00000000E+00  0.00000000E+00  1.00000000E+00  0.00000000E+00  0.00000000E+00
  0.00000000E+00  0.00000000E+00  0.00000000E+00  1.00000000E+00  1.00000000E+00
  0.00000000E+00  1.00000000E+00  0.00000000E+00  0.00000000E+00  0.00000000E+00
  0.00000000E+00  0.00000000E+00  0.00000000E+00  0.00000000E+00  0.00000000E+00
  0.00000000E+00  0.00000000E+00
MxBond                                     I                4
NBond                                      I   N=          27
           3           4           3           1           4           1
           1           3           3           3           1           3
           3           3           1           3           1           3
           1           3           1           1           1           1
           1           2           1
IBond                                      I   N=         108
           2          23          25           0           1           3
           5          24           2           4          26           0
           3           0           0           0           2           6
           7           8           5           0           0           0
           5           0           0           0           5           9
          13           0           8          10          22           0
           9          11          12           0          10           0
           0           0          10          13          20           0
           8          12          14           0          13          15
          16           0          14           0           0           0
          14          17          18           0          16           0
           0           0          16          19          20           0
          18           0           0           0          12          18
          21           0          20           0           0           0
           9           0           0           0           1           0
           0           0           2           0           0           0
           1           0           0           0           3          27
           0           0          26           0           0           0
RBond                                      R   N=         108
  1.00000000E+00  1.00000000E+00  1.00000000E+00  0.00000000E+00  1.00000000E+00
  1.00000000E+00  1.00000000E+00  1.00000000E+00  1.00000000E+00  2.00000000E+00
  1.50000000E+00  0.00000000E+00  2.00000000E+00  0.00000000E+00  0.00000000E+00
  0.00000000E+00  1.00000000E+00  1.00000000E+00  1.00000000E+00  1.00000000E+00
  1.00000000E+00  0.00000000E+00  0.00000000E+00  0.00000000E+00  1.00000000E+00
  0.00000000E+00  0.00000000E+00  0.00000000E+00  1.00000000E+00  2.00000000E+00
  1.00000000E+00  0.00000000E+00  2.00000000E+00  1.00000000E+00  1.00000000E+00
  0.00000000E+00  1.00000000E+00  1.00000000E+00  1.00000000E+00  0.00000000E+00
  1.00000000E+00  0.00000000E+00  0.00000000E+00  0.00000000E+00  1.00000000E+00
  1.50000000E+00  1.50000000E+00  0.00000000E+00  1.00000000E+00  1.50000000E+00
  1.50000000E+00  0.00000000E+00  1.50000000E+00  1.00000000E+00  1.50000000E+00
  0.00000000E+00  1.00000000E+00  0.00000000E+00  0.00000000E+00  0.00000000E+00
  1.50000000E+00  1.00000000E+00  1.50000000E+00  0.00000000E+00  1.00000000E+00
  0.00000000E+00  0.00000000E+00  0.00000000E+00  1.50000000E+00  1.00000000E+00
  1.50000000E+00  0.00000000E+00  1.00000000E+00  0.00000000E+00  0.00000000E+00
  0.00000000E+00  1.50000000E+00  1.50000000E+00  1.00000000E+00  0.00000000E+00
  1.00000000E+00  0.00000000E+00  0.00000000E+00  0.00000000E+00  1.00000000E+00
  0.00000000E+00  0.00000000E+00  0.00000000E+00  1.00000000E+00  0.00000000E+00
  0.00000000E+00  0.00000000E+00  1.00000000E+00  0.00000000E+00  0.00000000E+00
  0.00000000E+00  1.00000000E+00  0.00000000E+00  0.00000000E+00  0.00000000E+00
  1.50000000E+00  1.00000000E+00  0.00000000E+00  0.00000000E+00  1.00000000E+00
  0.00000000E+00  0.00000000E+00  0.00000000E+00
Virial Ratio                               R      2.009190975552863E+00
SCF Energy                                 R     -6.735905711573295E+02
Total Energy                               R     -6.735905711573295E+02
RMS Density                                R      6.573860668249212E-09
Job Status                                 I                1
Nuclear derivative order                   I                0
External E-field                           R   N=          35
  0.00000000E+00  0.00000000E+00  0.00000000E+00  0.00000000E+00  0.00000000E+00
  0.00000000E+00  0.00000000E+00  0.00000000E+00  0.00000000E+00  0.00000000E+00
  0.00000000E+00  0.00000000E+00  0.00000000E+00  0.00000000E+00  0.00000000E+00
  0.00000000E+00  0.00000000E+00  0.00000000E+00  0.00000000E+00  0.00000000E+00
  0.00000000E+00  0.00000000E+00  0.00000000E+00  0.00000000E+00  0.00000000E+00
  0.00000000E+00  0.00000000E+00  0.00000000E+00  0.00000000E+00  0.00000000E+00
  0.00000000E+00  0.00000000E+00  0.00000000E+00  0.00000000E+00  0.00000000E+00
IOpCl                                      I                0
IROHF                                      I                0
Alpha Orbital Energies                     R   N=          87
 -2.02690029E+01 -2.02422818E+01 -1.53897248E+01 -1.53454286E+01 -1.11481690E+01
 -1.10984710E+01 -1.10680736E+01 -1.10651518E+01 -1.10633631E+01 -1.10254040E+01
 -1.10252678E+01 -1.10239059E+01 -1.10160427E+01 -1.10149152E+01 -1.10115487E+01
 -1.34767973E+00 -1.25783889E+00 -1.21998807E+00 -1.15379019E+00 -1.07454723E+00
 -1.02552467E+00 -9.59273432E-01 -9.36775786E-01 -9.13338007E-01 -8.37641252E-01
 -7.83051427E-01 -7.49374500E-01 -7.10597959E-01 -6.92634069E-01 -6.69163395E-01
 -6.48388958E-01 -6.16892287E-01 -6.02324153E-01 -5.98356664E-01 -5.80763082E-01
 -5.56460292E-01 -5.42814291E-01 -5.36860138E-01 -5.24088459E-01 -5.17742055E-01
 -4.97934971E-01 -4.87160197E-01 -4.78773836E-01 -4.59727110E-01 -4.44625302E-01
 -4.38476701E-01 -4.16688434E-01 -4.13912220E-01 -3.69714569E-01 -3.28525028E-01
 -3.25620315E-01 -3.06744656E-01 -2.42586043E-01 -2.25668688E-01  2.47576547E-01
  2.95186203E-01  3.18509987E-01  3.69439535E-01  5.21849388E-01  5.33597264E-01
  5.60984807E-01  5.68572584E-01  5.78367119E-01  6.12576781E-01  6.16757913E-01
  6.26558850E-01  6.44065756E-01  6.53055089E-01  6.77436631E-01  6.85124576E-01
  6.91117478E-01  7.16693492E-01  7.22605744E-01  7.42018042E-01  7.44633456E-01
  7.54212901E-01  7.71005887E-01  8.02945090E-01  8.25684465E-01  8.83595471E-01
  9.13202904E-01  9.59773717E-01  9.64833790E-01  1.00407693E+00  1.08620667E+00
  1.14488466E+00  1.17394482E+00
Alpha MO coefficients                      R   N=        7569
 -5.28516442E-05  3.73077347E-04  8.62986125E-05  1.76803321E-04  5.09017803E-04
 -3.07050045E-05  2.90702035E-04 -1.80628852E-04  1.97345483E-04  3.66066184E-04
  5.12830124E-04 -4.53942308E-03  1.99708654E-03 -2.10833434E-03 -3.45505676E-03
  1.22911481E-03  2.55273458E-04 -1.38767088E-04  2.01024324E-04  4.44127780E-04
 -5.55774353E-06 -6.56263299E-07  1.70118555E-05 -3.17410807E-05  3.04876935E-05
  7.95813139E-05  1.05819953E-05  2.84204213E-06 -1.97174650E-05  3.91844227E-06
  8.60153870E-06 -1.42615877E-05  5.38976574E-08  3.19660585E-10 -5.78352384E-06
 -4.51319125E-06  1.70037791E-07 -1.29738668E-07  1.43645018E-06 -7.46249034E-07
  7.67831792E-07  5.26684495E-07 -1.57799532E-07 -2.53582640E-08  3.01476129E-07
 -1.64740376E-07 -1.19240978E-07 -1.61377370E-07 -2.46375556E-07  1.68027643E-06
 -1.78478500E-06 -4.23927906E-07  1.69542434E-06  5.28508832E-08 -8.98350078E-07
  3.38133540E-07  8.65326398E-08  2.84069773E-07  1.54489132E-06 -1.91896987E-08
  2.20599321E-07 -8.93687519E-08  1.20067471E-07  7.68385393E-08 -3.13266047E-08
 -5.06692215E-10 -7.25950873E-10  1.50852378E-09 -4.43336704E-09  8.39889396E-09
  5.05097650E-09  1.40117156E-09 -5.00010379E-08  2.78212939E-08  2.36795481E-09
 -2.11436588E-08  9.64079083E-09  8.63270158E-06  7.12611413E-05  1.84498640E-05
  8.27625185E-05  9.94139525E-01  2.62667590E-02 -1.18419974E-03 -7.18935312E-04