Water                                                                   
SP        RCIS-FC                                                     STO-3G              
Number of atoms                            I                3
Info1-9                                    I   N=           9
          12          12           0           0           0         110
           1         101         201
Full Title                                 C   N=           1
Water       
Route                                      C   N=           3
#P CIS(D,50-50,NStates=5)/STO-3G    
Charge                                     I                0
Multiplicity                               I                1
Number of electrons                        I               10
Number of alpha electrons                  I                5
Number of beta electrons                   I                5
Number of basis functions                  I                7
Number of independent functions            I                7
Number of point charges in /Mol/           I                0
Number of translation vectors              I                0
Atomic numbers                             I   N=           3
           8           1           1
Nuclear charges                            R   N=           3
  8.00000000E+00  1.00000000E+00  1.00000000E+00
Current cartesian coordinates              R   N=           9
 -1.23259516E-32  0.00000000E+00  2.25178583E-01 -9.86076132E-32  1.49411036E+00
 -9.00714333E-01 -1.82975747E-16 -1.49411036E+00 -9.00714333E-01
Number of symbols in /Mol/                 I                0
Force Field                                I                0
Atom Types                                 C   N=           3
                                    
Int Atom Types                             I   N=           3
           0           0           0
MM charges                                 R   N=           3
  0.00000000E+00  0.00000000E+00  0.00000000E+00
Integer atomic weights                     I   N=           3
          16           1           1
Real atomic weights                        R   N=           3
  1.59949146E+01  1.00782504E+00  1.00782504E+00
Atom fragment info                         I   N=           3
           0           0           0
Atom residue num                           I   N=           3
           0           0           0
Nuclear spins                              I   N=           3
           0           1           1
Nuclear ZEff                               R   N=           3
 -5.60000000E+00 -1.00000000E+00 -1.00000000E+00
Nuclear ZNuc                               R   N=           3
  8.00000000E+00  1.00000000E+00  1.00000000E+00
Nuclear QMom                               R   N=           3
  0.00000000E+00  0.00000000E+00  0.00000000E+00
Nuclear GFac                               R   N=           3
  0.00000000E+00  2.79284600E+00  2.79284600E+00
MicOpt                                     I   N=           3
          -1          -1          -1
Number of residues                         I                0
Number of secondary structures             I                0
SymInf integers                            I   N=          26
           2           4           1           1           1          -1
          -1           1          -1           1           1           1
          -1           1           0           0           0           0
           0           0           0           0           0           0
           0           0
RotTr to input orientation                 R   N=          12
  2.33155031E-16 -1.00000000E+00 -2.07661063E-16 -6.01815023E-01 -3.06161700E-16
  7.98635510E-01 -7.98635510E-01 -6.12323400E-17 -6.01815023E-01  1.79835613E-01
  0.00000000E+00  1.35515854E-01
Number of contracted shells                I                4
Number of primitive shells                 I               12
Pure/Cartesian d shells                    I                0
Pure/Cartesian f shells                    I                0
Highest angular momentum                   I                1
Largest degree of contraction              I                3
Shell types                                I   N=           4
           0          -1           0           0
Number of primitives per shell             I   N=           4
           3           3           3           3
Shell to atom map                          I   N=           4
           1           1           2           3
Primitive exponents                        R   N=          12
  1.30709321E+02  2.38088661E+01  6.44360831E+00  5.03315132E+00  1.16959612E+00
  3.80388960E-01  3.42525091E+00  6.23913730E-01  1.68855404E-01  3.42525091E+00
  6.23913730E-01  1.68855404E-01
Contraction coefficients                   R   N=          12
  1.54328967E-01  5.35328142E-01  4.44634542E-01 -9.99672292E-02  3.99512826E-01
  7.00115469E-01  1.54328967E-01  5.35328142E-01  4.44634542E-01  1.54328967E-01
  5.35328142E-01  4.44634542E-01
P(S=P) Contraction coefficients            R   N=          12
  0.00000000E+00  0.00000000E+00  0.00000000E+00  1.55916275E-01  6.07683719E-01
  3.91957393E-01  0.00000000E+00  0.00000000E+00  0.00000000E+00  0.00000000E+00
  0.00000000E+00  0.00000000E+00
Coordinates of each shell                  R   N=          12
 -8.32662098E-33  6.24996119E-18  2.25178583E-01 -8.32662098E-33  6.24996119E-18
  2.25178583E-01 -1.08403510E-32  1.49411036E+00 -9.00714333E-01 -1.82975747E-16
 -1.49411036E+00 -9.00714333E-01
Num ILSW                                   I              100
ILSW                                       I   N=         100
           0           0           0           0           2           0
           0           0           0           0           0          -1
           5           0           0           0           0           0
           0           0           0           0           0           0
           1           0           0           0           0           0
           0           0      100000           0          -1           0
           0           0           0           0           0           0
           0           0           0           1           1           0
           0 -2000000000           1           0           0           0
           0           0           4          52           0           0
           0           0           0           0           0           0
           0           0           0           3           3           1
           0           0           0           0           0           0
           0           0           0           0           0           0
           0           0           0           0           0           0
           0           0           0           0           0           0
           0           0           0           0
Num RLSW                                   I               52
RLSW                                       R   N=          52
  1.00000000E+00  1.00000000E+00  1.00000000E+00  1.00000000E+00  1.00000000E+00
  0.00000000E+00  0.00000000E+00  1.00000000E+00  0.00000000E+00  0.00000000E+00
  0.00000000E+00  0.00000000E+00  1.00000000E+00  0.00000000E+00  0.00000000E+00
  0.00000000E+00  0.00000000E+00  1.00000000E+00  0.00000000E+00  0.00000000E+00
  0.00000000E+00  0.00000000E+00  1.00000000E+00  0.00000000E+00  0.00000000E+00
  0.00000000E+00  0.00000000E+00  1.00000000E+00  0.00000000E+00  0.00000000E+00
  0.00000000E+00  0.00000000E+00  1.00000000E+00  0.00000000E+00  0.00000000E+00
  0.00000000E+00  0.00000000E+00  0.00000000E+00  1.00000000E+00  1.00000000E+00
  0.00000000E+00  1.00000000E+00  0.00000000E+00  0.00000000E+00  0.00000000E+00
  0.00000000E+00  0.00000000E+00  0.00000000E+00  0.00000000E+00  0.00000000E+00
  0.00000000E+00  0.00000000E+00
MxBond                                     I                2
NBond                                      I   N=           3
           2           1           1
IBond                                      I   N=           6
           2           3           1           0           1           0
RBond                                      R   N=           6
  1.00000000E+00  1.00000000E+00  1.00000000E+00  0.00000000E+00  1.00000000E+00
  0.00000000E+00
Virial Ratio                               R      2.006004929613248E+00
SCF Energy                                 R     -7.496432879135465E+01
MP2 Energy                                 R     -7.500228212745346E+01
CIS-MP2 Energy                             R     -7.463082932037767E+01
CIS Energy                                 R     -7.459032049491127E+01
Total Energy                               R     -7.463082932037767E+01
Post-SCF wavefunction norm                 R      1.000000000000000E+00
RMS Density                                R      2.786553489831593E-10
Job Status                                 I                1
Nuclear derivative order                   I                0
External E-field                           R   N=          35
  0.00000000E+00  0.00000000E+00  0.00000000E+00  0.00000000E+00  0.00000000E+00
  0.00000000E+00  0.00000000E+00  0.00000000E+00  0.00000000E+00  0.00000000E+00
  0.00000000E+00  0.00000000E+00  0.00000000E+00  0.00000000E+00  0.00000000E+00
  0.00000000E+00  0.00000000E+00  0.00000000E+00  0.00000000E+00  0.00000000E+00
  0.00000000E+00  0.00000000E+00  0.00000000E+00  0.00000000E+00  0.00000000E+00
  0.00000000E+00  0.00000000E+00  0.00000000E+00  0.00000000E+00  0.00000000E+00
  0.00000000E+00  0.00000000E+00  0.00000000E+00  0.00000000E+00  0.00000000E+00
IOpCl                                      I                0
IROHF                                      I                0
Alpha Orbital Energies                     R   N=           7
 -2.02437548E+01 -1.25064474E+00 -6.03166236E-01 -4.45469870E-01 -3.88214643E-01
  5.70748223E-01  7.08591552E-01
Alpha MO coefficients                      R   N=          49
  9.94202990E-01  2.59157124E-02  0.00000000E+00  0.00000000E+00 -3.99311323E-03
 -5.62726393E-03 -5.62726393E-03 -2.34217947E-01  8.45881884E-01  0.00000000E+00
  0.00000000E+00 -1.17047748E-01  1.56449280E-01  1.56449280E-01  0.00000000E+00
  0.00000000E+00  0.00000000E+00  6.03305187E-01  0.00000000E+00  4.46376722E-01
 -4.46376722E-01 -1.00458170E-01  5.21395179E-01  0.00000000E+00  0.00000000E+00
  7.74266755E-01 -2.89064162E-01 -2.89064162E-01  0.00000000E+00  0.00000000E+00
  1.00000000E+00  0.00000000E+00  0.00000000E+00  0.00000000E+00  0.00000000E+00
 -1.28350478E-01  8.32525362E-01  0.00000000E+00  0.00000000E+00 -7.32626229E-01
 -7.75800555E-01 -7.75800555E-01  0.00000000E+00  0.00000000E+00  0.00000000E+00
  9.76484497E-01  0.00000000E+00 -8.08915582E-01  8.08915582E-01
Orthonormal basis                          R   N=          49
  1.57252278E-01  4.28560439E-01  0.00000000E+00  0.00000000E+00 -1.95811808E-01
  3.76796213E-01  3.76796213E-01  6.15697368E-01  2.96936683E-01  0.00000000E+00
  0.00000000E+00  6.43206968E-01 -1.30213105E-01 -1.30213105E-01  7.53129753E-01
 -2.92177617E-01  0.00000000E+00  0.00000000E+00 -6.50863973E-01 -1.60116329E-01
 -1.60116329E-01 -3.14400013E-01  1.15062418E+00  0.00000000E+00  0.00000000E+00
 -5.23703103E-01 -7.24820362E-01 -7.24820362E-01  0.00000000E+00  0.00000000E+00
  1.00000000E+00  0.00000000E+00  0.00000000E+00  0.00000000E+00  0.00000000E+00
  0.00000000E+00  0.00000000E+00  0.00000000E+00  6.86604997E-01  0.00000000E+00
  3.73727127E-01 -3.73727127E-01  0.00000000E+00  0.00000000E+00  0.00000000E+00
 -9.19822102E-01  0.00000000E+00  8.44940608E-01 -8.44940608E-01
Total SCF Density                          R   N=          28
  2.10677895E+00 -4.49467291E-01  1.97608144E+00  6.69751577E-33 -3.75432340E-32
  2.00000000E+00 -3.01629295E-18  1.69079694E-17 -2.77333912E-31  7.27954298E-01
 -1.08673406E-01  6.09173799E-01 -1.00235271E-31  1.38349321E-17  1.22641026E+00
 -2.63980302E-02 -3.70497666E-02 -1.23259516E-32  5.38602783E-01 -4.84204673E-01
  6.14636622E-01 -2.63980302E-02 -3.70497666E-02  7.08742220E-32 -5.38602783E-01
 -4.84204673E-01 -1.82372089E-01  6.14636622E-01
Total CI Rho(1) Density                    R   N=          28
  2.12325280E+00 -5.56322319E-01  2.66917992E+00  6.69751577E-33 -3.75432340E-32
  1.00000000E+00 -3.01629295E-18  1.69079694E-17 -2.77333912E-31  7.27954298E-01
 -1.46404800E-02 -7.56117624E-04 -1.00235271E-31  1.38349321E-17  1.76315145E+00
  7.31763417E-02 -6.82923405E-01 -1.23259516E-32  5.38602783E-01  8.41671625E-02
  1.21650312E+00  7.31763417E-02 -6.82923405E-01  7.08742220E-32 -5.38602783E-01
  8.41671625E-02  4.19494413E-01  1.21650312E+00
Grdnt Energy                               R      0.000000000000000E+00
Grdnt NVar                                 I                2
Grdnt IGetFC                               I                0
Internal Forces                            R   N=           2
  0.00000000E+00  0.00000000E+00
Internal Force Constants                   R   N=           3
  0.00000000E+00  0.00000000E+00  0.00000000E+00
Mulliken Charges                           R   N=           3
 -3.39214517E-01  1.69607259E-01  1.69607259E-01
ONIOM Charges                              I   N=          16
           0           0           0           0           0           0
           0           0           0           0           0           0
           0           0           0           0
ONIOM Multiplicities                       I   N=          16
           1           0           0           0           0           0
           0           0           0           0           0           0
           0           0           0           0
Atom Layers                                I   N=           3
           1           1           1
Atom Modifiers                             I   N=           3
           0           0           0
Force Field                                I                0
Atom Modified Types                        C   N=           3
                                    
Int Atom Modified Types                    I   N=           3
           0           0           0
Link Atoms                                 I   N=           3
           0           0           0
Atom Modified MM Charges                   R   N=           3
  0.00000000E+00  0.00000000E+00  0.00000000E+00
Link Distances                             R   N=          12
  0.00000000E+00  0.00000000E+00  0.00000000E+00  0.00000000E+00  0.00000000E+00
  0.00000000E+00  0.00000000E+00  0.00000000E+00  0.00000000E+00  0.00000000E+00
  0.00000000E+00  0.00000000E+00
Cartesian Gradient                         R   N=           9
  0.00000000E+00  0.00000000E+00 -0.00000000E+00  0.00000000E+00  0.00000000E+00
 -0.00000000E+00  0.00000000E+00  0.00000000E+00 -0.00000000E+00
Nonadiabatic coupling                      R   N=           9
  0.00000000E+00  0.00000000E+00  0.00000000E+00  0.00000000E+00  0.00000000E+00
  0.00000000E+00  0.00000000E+00  0.00000000E+00  0.00000000E+00
ETran NETS                                 I               20
ETran NETV                                 I              160
ETran scalars                              I   N=          20
          10          16           1          10           1           0
           0           0           0           0           0           0
           0           0           0           0           0           0
           0           0
ETran spin                                 I   N=          10
           2           0           2           2           2           0
           0           2           0           2
ETran sym                                  I   N=          10
           0           0           0           0           0           0
           0           0           0           0
ETran state values                         R   N=         160
 -7.45903205E+01  0.00000000E+00  0.00000000E+00 -0.00000000E+00  0.00000000E+00
  0.00000000E+00  0.00000000E+00  0.00000000E+00  0.00000000E+00  0.00000000E+00
  0.00000000E+00  0.00000000E+00  0.00000000E+00  0.00000000E+00  0.00000000E+00
  0.00000000E+00 -7.45150078E+01 -1.05811434E-01  2.66804193E-17  1.08790424E-17
 -1.38358939E-01 -3.38454898E-17 -2.55044059E-17  7.62127945E-18  5.00709428E-01
  0.00000000E+00  1.57746846E-17  5.25018861E-17  2.05991500E-17 -6.93889390E-17
  3.35547659E-02  2.79793703E-17 -7.45132558E+01  0.00000000E+00  0.00000000E+00
 -0.00000000E+00  0.00000000E+00  0.00000000E+00  0.00000000E+00  0.00000000E+00
  0.00000000E+00  0.00000000E+00  0.00000000E+00  0.00000000E+00  0.00000000E+00
  0.00000000E+00  0.00000000E+00  0.00000000E+00 -7.44901151E+01  0.00000000E+00
  0.00000000E+00 -0.00000000E+00  0.00000000E+00  0.00000000E+00  0.00000000E+00
  0.00000000E+00  0.00000000E+00  0.00000000E+00  0.00000000E+00  0.00000000E+00
  0.00000000E+00  0.00000000E+00  0.00000000E+00  0.00000000E+00 -7.44450053E+01
  0.00000000E+00  0.00000000E+00 -0.00000000E+00  0.00000000E+00  0.00000000E+00
  0.00000000E+00  0.00000000E+00  0.00000000E+00  0.00000000E+00  0.00000000E+00
  0.00000000E+00  0.00000000E+00  0.00000000E+00  0.00000000E+00  0.00000000E+00
 -7.44407759E+01  7.85046229E-17 -2.78192723E-17 -1.13434141E-17  3.92523115E-17
  3.52901837E-17  2.65930608E-17 -7.94659356E-18 -5.55111512E-17  6.83266611E-01
 -1.64480266E-17 -5.47429278E-17 -2.14784242E-17 -8.95388862E-02  2.08166817E-17
 -2.91736690E-17 -7.43813543E+01  2.54349124E-17 -2.77555756E-17  4.34939545E-01
 -6.18359386E-18 -8.32667268E-17 -3.24581893E-01 -2.05268330E-48  3.94296091E-17
  1.20894759E-17 -1.53769768E-03  7.43006575E-02  5.30707181E-02  6.19527515E-18
  9.68414812E-18 -2.28983499E-16 -7.43378202E+01  0.00000000E+00  0.00000000E+00
 -0.00000000E+00  0.00000000E+00  0.00000000E+00  0.00000000E+00  0.00000000E+00
  0.00000000E+00  0.00000000E+00  0.00000000E+00  0.00000000E+00  0.00000000E+00
  0.00000000E+00  0.00000000E+00  0.00000000E+00 -7.42969140E+01 -6.96670902E-18
 -3.36747699E-01  1.11022302E-16  2.53892099E-18  1.52661048E-01  1.52655666E-16
 -7.35947780E-01 -3.40606308E-17 -1.40979762E-17  2.20794252E-17  5.27355937E-16
 -1.97758476E-16 -3.06225887E-18 -4.32826421E-18 -4.96379422E-02 -7.42593566E+01
  0.00000000E+00  0.00000000E+00 -0.00000000E+00  0.00000000E+00  0.00000000E+00
  0.00000000E+00  0.00000000E+00  0.00000000E+00  0.00000000E+00  0.00000000E+00
  0.00000000E+00  0.00000000E+00  0.00000000E+00  0.00000000E+00  0.00000000E+00
ClPar MaxAn                                I              200
ClPar NIntPar                              I                4
ClPar NRealPar                             I               16
ClPar NBits                                I               30
ClPar LenBitVec                            I                1
ClPar Read BitMap                          I   N=         200
           0           0           0           0           0           0
           0           0           0           0           0           0
           0           0           0           0           0           0
           0           0           0           0           0           0
           0           0           0           0           0           0
           0           0           0           0           0           0
           0           0           0           0           0           0
           0           0           0           0           0           0
           0           0           0           0           0           0
           0           0           0           0           0           0
           0           0           0           0           0           0
           0           0           0           0           0           0
           0           0           0           0           0           0
           0           0           0           0           0           0
           0           0           0           0           0           0
           0           0           0           0           0           0
           0           0           0           0           0           0
           0           0           0           0           0           0
           0           0           0           0           0           0
           0           0           0           0           0           0
           0           0           0           0           0           0
           0           0           0           0           0           0
           0           0           0           0           0           0
           0           0           0           0           0           0
           0           0           0           0           0           0
           0           0           0           0           0           0
           0           0           0           0           0           0
           0           0           0           0           0           0
           0           0           0           0           0           0
           0           0           0           0           0           0
           0           0           0           0           0           0
           0           0           0           0           0           0
           0           0           0           0           0           0
           0           0
ClPar Default BitMap                       I   N=         200
        2016        2016        2016        2016        2016        2016
        2016        2016        2016        2016        2016        2016
        2016        2016        2016        2016        2016        2016
        2016        2016        2016        2016        2016        2016
        2016        2016        2016        2016        2016        2016
        2016        2016        2016        2016        2016        2016
        2016        2016        2016        2016        2016        2016
        2016        2016        2016        2016        2016        2016
        2016        2016        2016        2016        2016        2016
        2016        2016        2016        2016        2016        2016
        2016        2016        2016        2016        2016        2016
        2016        2016        2016        2016        2016        2016
        2016        2016        2016        2016        2016        2016
        2016        2016        2016        2016        2016        2016
        2016        2016         480         480         480         480
         480         480         480         480         480         480
         480         480         480         480         480         480
         480         480         480         480         480         480
         480         480         480         480         480         480
         480         480         480         480         480         480
         480         480         480         480         480         480
         480         480         480         480         480         480
         480         480         480         480         480         480
         480         480         480         480         480         480
         480         480         480         480         480         480
         480         480         480         480         480         480
         480         480         480         480         480         480
         480         480         480         480         480         480
         480         480         480         480         480         480
         480         480         480         480         480         480
         480         480         480         480         480         480
         480         480         480         480         480         480
         480         480         480         480         480         480
         480         480
ClPar Int Params                           I   N=         800
           0           0           0           0           0           0
           0           0           0           0           0           0
           0           0           0           0           0           0
           0           0           0           0           0           0
           0           0           0           0           0           0
           0           0           0           0           0           0
           0           0           0           0           0           0
           0           0           0           0           0           0
           0           0           0           0           0           0
           0           0           0           0           0           0
           0           0           0           0           0           0
           0           0           0           0           0           0
           0           0           0           0           0           0
           0           0           0           0           0           0
           0           0           0           0           0           0
           0           0           0           0           0           0
           0           0           0           0           0           0
           0           0           0           0           0           0
           0           0           0           0           0           0
           0           0           0           0           0           0
           0           0           0           0           0           0
           0           0           0           0           0           0
           0           0           0           0           0           0
           0           0           0           0           0           0
           0           0           0           0           0           0
           0           0           0           0           0           0
           0           0           0           0           0           0
           0           0           0           0           0           0
           0           0           0           0           0           0
           0           0           0           0           0           0
           0           0           0           0           0           0
           0           0           0           0           0           0
           0           0           0           0           0           0
           0           0           0           0           0           0
           0           0           0           0           0           0
           0           0           0           0           0           0
           0           0           0           0           0           0
           0           0           0           0           0           0
           0           0           0           0           0           0
           0           0           0           0           0           0
           0           0           0           0           0           0
           0           0           0           0           0           0
           0           0           0           0           0           0
           0           0           0           0           0           0
           0           0           0           0           0           0
           0           0           0           0           0           0
           0           0           0           0           0           0
           0           0           0           0           0           0
           0           0           0           0           0           0
           0           0           0           0           0           0
           0           0           0           0           0           0
           0           0           0           0           0           0
           0           0           0           0           0           0
           0           0           0           0           0           0
           0           0           0           0           0           0
           0           0           0           0           0           0
           0           0           0           0           0           0
           0           0           0           0           0           0
           0           0           0           0           0           0
           0           0           0           0           0           0
           0           0           0           0           0           0
           0           0           0           0           0           0
           0           0           0           0           0           0
           0           0           0           0           0           0
           0           0           0           0           0           0
           0           0           0           0           0           0
           0           0           0           0           0           0
           0           0           0           0           0           0
           0           0           0           0           0           0
           0           0           0           0           0           0
           0           0           0           0           0           0
           0           0           0           0           0           0
           0           0           0           0           0           0
           0           0           0           0           0           0
           0           0           0           0           0           0
           0           0           0           0           0           0
           0           0           0           0           0           0
           0           0           0           0           0           0
           0           0           0           0           0           0
           0           0           0           0           0           0
           0           0           0           0           0           0
           0           0           0           0           0           0
           0           0           0           0           0           0
           0           0           0           0           0           0