 Entering Gaussian System, Link 0=g16
 Input=/gpfs1/home/osl/test/water/Gaussian 16 Gaussian4/Input/water.com
 Output=/gpfs1/home/osl/test/water/Gaussian 16 Gaussian4/Output/water.log
 Initial command:
 /gpfs1/apps/software/Gaussian16/AVX/g16/l1.exe "/scratch/tmp/osl/869bf419f5a44023a9ec46fc26649bd3/Gau-26775.inp" -scrdir="/scratch/tmp/osl/869bf419f5a44023a9ec46fc26649bd3/"
 Entering Link 1 = /gpfs1/apps/software/Gaussian16/AVX/g16/l1.exe PID=     26776.
  
 Copyright (c) 1988-2019, Gaussian, Inc.  All Rights Reserved.
  
 This is part of the Gaussian(R) 16 program.  It is based on
 the Gaussian(R) 09 system (copyright 2009, Gaussian, Inc.),
 the Gaussian(R) 03 system (copyright 2003, Gaussian, Inc.),
 the Gaussian(R) 98 system (copyright 1998, Gaussian, Inc.),
 the Gaussian(R) 94 system (copyright 1995, Gaussian, Inc.),
 the Gaussian 92(TM) system (copyright 1992, Gaussian, Inc.),
 the Gaussian 90(TM) system (copyright 1990, Gaussian, Inc.),
 the Gaussian 88(TM) system (copyright 1988, Gaussian, Inc.),
 the Gaussian 86(TM) system (copyright 1986, Carnegie Mellon
 University), and the Gaussian 82(TM) system (copyright 1983,
 Carnegie Mellon University). Gaussian is a federally registered
 trademark of Gaussian, Inc.
  
 This software contains proprietary and confidential information,
 including trade secrets, belonging to Gaussian, Inc.
  
 This software is provided under written license and may be
 used, copied, transmitted, or stored only in accord with that
 written license.
  
 The following legend is applicable only to US Government
 contracts under FAR:
  
                    RESTRICTED RIGHTS LEGEND
  
 Use, reproduction and disclosure by the US Government is
 subject to restrictions as set forth in subparagraphs (a)
 and (c) of the Commercial Computer Software - Restricted
 Rights clause in FAR 52.227-19.
  
 Gaussian, Inc.
 340 Quinnipiac St., Bldg. 40, Wallingford CT 06492
  
  
 ---------------------------------------------------------------
 Warning -- This program may not be used in any manner that
 competes with the business of Gaussian, Inc. or will provide
 assistance to any competitor of Gaussian, Inc.  The licensee
 of this program is prohibited from giving any competitor of
 Gaussian, Inc. access to this program.  By using this program,
 the user acknowledges that Gaussian, Inc. is engaged in the
 business of creating and licensing software in the field of
 computational chemistry and represents and warrants to the
 licensee that it is not a competitor of Gaussian, Inc. and that
 it will not use this program in any manner prohibited above.
 ---------------------------------------------------------------
  

 Cite this work as:
 Gaussian 16, Revision C.01,
 M. J. Frisch, G. W. Trucks, H. B. Schlegel, G. E. Scuseria, 
 M. A. Robb, J. R. Cheeseman, G. Scalmani, V. Barone, 
 G. A. Petersson, H. Nakatsuji, X. Li, M. Caricato, A. V. Marenich, 
 J. Bloino, B. G. Janesko, R. Gomperts, B. Mennucci, H. P. Hratchian, 
 J. V. Ortiz, A. F. Izmaylov, J. L. Sonnenberg, D. Williams-Young, 
 F. Ding, F. Lipparini, F. Egidi, J. Goings, B. Peng, A. Petrone, 
 T. Henderson, D. Ranasinghe, V. G. Zakrzewski, J. Gao, N. Rega, 
 G. Zheng, W. Liang, M. Hada, M. Ehara, K. Toyota, R. Fukuda, 
 J. Hasegawa, M. Ishida, T. Nakajima, Y. Honda, O. Kitao, H. Nakai, 
 T. Vreven, K. Throssell, J. A. Montgomery, Jr., J. E. Peralta, 
 F. Ogliaro, M. J. Bearpark, J. J. Heyd, E. N. Brothers, K. N. Kudin, 
 V. N. Staroverov, T. A. Keith, R. Kobayashi, J. Normand, 
 K. Raghavachari, A. P. Rendell, J. C. Burant, S. S. Iyengar, 
 J. Tomasi, M. Cossi, J. M. Millam, M. Klene, C. Adamo, R. Cammi, 
 J. W. Ochterski, R. L. Martin, K. Morokuma, O. Farkas, 
 J. B. Foresman, and D. J. Fox, Gaussian, Inc., Wallingford CT, 2019.
 
 ******************************************
 Gaussian 16:  ES64L-G16RevC.01  3-Jul-2019
                24-Sep-2023 
 ******************************************
 %Chk="water.chk"
 %Rwf="water.rwf"
 %NProcShared=4
 Will use up to    4 processors via shared memory.
 %Mem=10GB
 ---------------------------------
 #p SCF=(DIIS) Symmetry=(Tight) G4
 ---------------------------------
 1/18=20,19=15,26=3,38=1/1,3;
 2/9=110,12=2,40=1/2;
 3/5=35,7=104,11=2,25=1,30=1,71=1,74=-5/1,2,3;
 4//1;
 5/5=2,22=2,38=5/2;
 6/7=2,8=2,9=2,10=2,28=1/1;
 7//1,2,3,16;
 1/18=20,19=15,26=3/3(2);
 2/9=110/2;
 99//99;
 2/9=110/2;
 3/5=35,7=104,11=2,25=1,30=1,71=1,74=-5/1,2,3;
 4/5=5,16=3,69=1/1;
 5/5=2,22=2,38=5/2;
 7//1,2,3,16;
 1/18=20,19=15,26=3/3(-5);
 2/9=110/2;
 6/7=2,8=2,9=2,10=2,19=2,28=1/1;
 99/9=1/99;
 Leave Link    1 at Sun Sep 24 18:45:38 2023, MaxMem=  1342177280 cpu:               0.2 elap:               0.1
 (Enter /gpfs1/apps/software/Gaussian16/AVX/g16/l101.exe)
 ---------------
 water_Gaussian4
 ---------------
 Symbolic Z-matrix:
 Charge =  0 Multiplicity = 1
 O                     0.       -0.11916   0. 
 H                    -0.79065   0.47664   0. 
 H                     0.79065   0.47664   0. 
 
 ITRead=  0  0  0
 MicOpt= -1 -1 -1
 NAtoms=      3 NQM=        3 NQMF=       0 NMMI=      0 NMMIF=      0
                NMic=       0 NMicF=      0.
                    Isotopes and Nuclear Properties:
 (Nuclear quadrupole moments (NQMom) in fm**2, nuclear magnetic moments (NMagM)
  in nuclear magnetons)

  Atom         1           2           3
 IAtWgt=          16           1           1
 AtmWgt=  15.9949146   1.0078250   1.0078250
 NucSpn=           0           1           1
 AtZEff=  -0.0000000  -0.0000000  -0.0000000
 NQMom=    0.0000000   0.0000000   0.0000000
 NMagM=    0.0000000   2.7928460   2.7928460
 AtZNuc=   8.0000000   1.0000000   1.0000000
 Leave Link  101 at Sun Sep 24 18:45:41 2023, MaxMem=  1342177280 cpu:               2.0 elap:               0.5
 (Enter /gpfs1/apps/software/Gaussian16/AVX/g16/l103.exe)

 GradGradGradGradGradGradGradGradGradGradGradGradGradGradGradGradGradGrad
 Berny optimization.
 Initialization pass.
                           ----------------------------
                           !    Initial Parameters    !
                           ! (Angstroms and Degrees)  !
 --------------------------                            --------------------------
 ! Name  Definition              Value          Derivative Info.                !
 --------------------------------------------------------------------------------
 ! R1    R(1,2)                  0.99           estimate D2E/DX2                !
 ! R2    R(1,3)                  0.99           estimate D2E/DX2                !
 ! A1    A(2,1,3)              105.9998         estimate D2E/DX2                !
 --------------------------------------------------------------------------------
 Trust Radius=3.00D-01 FncErr=1.00D-07 GrdErr=1.00D-06 EigMax=2.50D+02 EigMin=1.00D-04
 Number of steps in this run=     20 maximum allowed number of steps=    100.
 GradGradGradGradGradGradGradGradGradGradGradGradGradGradGradGradGradGrad

 Leave Link  103 at Sun Sep 24 18:45:44 2023, MaxMem=  1342177280 cpu:               0.0 elap:               0.0
 (Enter /gpfs1/apps/software/Gaussian16/AVX/g16/l202.exe)
                          Input orientation:                          
 ---------------------------------------------------------------------
 Center     Atomic      Atomic             Coordinates (Angstroms)
 Number     Number       Type             X           Y           Z
 ---------------------------------------------------------------------
      1          8           0        0.000000   -0.119160    0.000000
      2          1           0       -0.790650    0.476640    0.000000
      3          1           0        0.790650    0.476640    0.000000
 ---------------------------------------------------------------------
                    Distance matrix (angstroms):
                    1          2          3
     1  O    0.000000
     2  H    0.990003   0.000000
     3  H    0.990003   1.581300   0.000000
 Stoichiometry    H2O
 Framework group  C2V[C2(O),SGV(H2)]
 Deg. of freedom     2
 Full point group                 C2V     NOp   4
 Largest Abelian subgroup         C2V     NOp   4
 Largest concise Abelian subgroup C2      NOp   2
                         Standard orientation:                         
 ---------------------------------------------------------------------
 Center     Atomic      Atomic             Coordinates (Angstroms)
 Number     Number       Type             X           Y           Z
 ---------------------------------------------------------------------
      1          8           0        0.000000    0.000000    0.119160
      2          1           0       -0.000000    0.790650   -0.476640
      3          1           0       -0.000000   -0.790650   -0.476640
 ---------------------------------------------------------------------
 Rotational constants (GHZ):         795.3283556         401.0823125         266.6242826
 Leave Link  202 at Sun Sep 24 18:45:47 2023, MaxMem=  1342177280 cpu:               0.2 elap:               0.1
 (Enter /gpfs1/apps/software/Gaussian16/AVX/g16/l301.exe)
 Standard basis: GTBas3 (6D, 7F)
 Ernie: Thresh=  0.10000D-02 Tol=  0.10000D-05 Strict=F.
 There are    18 symmetry adapted cartesian basis functions of A1  symmetry.
 There are     4 symmetry adapted cartesian basis functions of A2  symmetry.
 There are     8 symmetry adapted cartesian basis functions of B1  symmetry.
 There are    11 symmetry adapted cartesian basis functions of B2  symmetry.
 There are    17 symmetry adapted basis functions of A1  symmetry.
 There are     4 symmetry adapted basis functions of A2  symmetry.
 There are     7 symmetry adapted basis functions of B1  symmetry.
 There are    10 symmetry adapted basis functions of B2  symmetry.
    38 basis functions,    58 primitive gaussians,    41 cartesian basis functions
     5 alpha electrons        5 beta electrons
       nuclear repulsion energy         8.8869838197 Hartrees.
 IExCor=  402 DFT=T Ex+Corr=B3LYP ExCW=0 ScaHFX=  0.200000
 ScaDFX=  0.800000  0.720000  1.000000  0.810000 ScalE2=  1.000000  1.000000
 IRadAn=      5 IRanWt=     -1 IRanGd=            0 ICorTp=0 IEmpDi=  4
 NAtoms=    3 NActive=    3 NUniq=    2 SFac= 2.25D+00 NAtFMM=   60 NAOKFM=F Big=F
 Integral buffers will be    131072 words long.
 Raffenetti 2 integral format.
 Two-electron integral symmetry is turned on.
 Leave Link  301 at Sun Sep 24 18:45:50 2023, MaxMem=  1342177280 cpu:               0.2 elap:               0.1
 (Enter /gpfs1/apps/software/Gaussian16/AVX/g16/l302.exe)
 NPDir=0 NMtPBC=     1 NCelOv=     1 NCel=       1 NClECP=     1 NCelD=      1
         NCelK=      1 NCelE2=     1 NClLst=     1 CellRange=     0.0.
 One-electron integrals computed using PRISM.
 One-electron integral symmetry used in STVInt
 NBasis=    38 RedAO= T EigKep=  1.66D-03  NBF=    17     4     7    10
 NBsUse=    38 1.00D-06 EigRej= -1.00D+00 NBFU=    17     4     7    10
 Precomputing XC quadrature grid using
 IXCGrd= 4 IRadAn=           5 IRanWt=          -1 IRanGd=           0 AccXCQ= 0.00D+00.
 Generated NRdTot=       0 NPtTot=           0 NUsed=           0 NTot=          32
 NSgBfM=    41    41    41    41    41 MxSgAt=     3 MxSgA2=     3.
 Leave Link  302 at Sun Sep 24 18:45:53 2023, MaxMem=  1342177280 cpu:               0.9 elap:               0.2
 (Enter /gpfs1/apps/software/Gaussian16/AVX/g16/l303.exe)
 DipDrv:  MaxL=1.
 Leave Link  303 at Sun Sep 24 18:45:55 2023, MaxMem=  1342177280 cpu:               0.1 elap:               0.1
 (Enter /gpfs1/apps/software/Gaussian16/AVX/g16/l401.exe)
 ExpMin= 1.61D-01 ExpMax= 5.48D+03 ExpMxC= 8.25D+02 IAcc=3 IRadAn=         5 AccDes= 0.00D+00
 Harris functional with IExCor=  402 and IRadAn=       5 diagonalized for initial guess.
 HarFok:  IExCor=  402 AccDes= 0.00D+00 IRadAn=         5 IDoV= 1 UseB2=F ITyADJ=14
 ICtDFT=  3500011 ScaDFX=  1.000000  1.000000  1.000000  1.000000
 FoFCou: FMM=F IPFlag=           0 FMFlag=      100000 FMFlg1=           0
         NFxFlg=           0 DoJE=T BraDBF=F KetDBF=T FulRan=T
         wScrn=  0.000000 ICntrl=       500 IOpCl=  0 I1Cent=   200000004 NGrid=           0
         NMat0=    1 NMatS0=      1 NMatT0=    0 NMatD0=    1 NMtDS0=    0 NMtDT0=    0
 Petite list used in FoFCou.
 Harris En= -76.4609036957838    
 JPrj=0 DoOrth=F DoCkMO=F.
 Initial guess orbital symmetries:
       Occupied  (A1) (A1) (B2) (A1) (B1)
       Virtual   (A1) (B2) (B2) (A1) (A1) (B1) (A2) (A1) (B1) (B2)
                 (A1) (A1) (B2) (B2) (A2) (B1) (B2) (A1) (A1) (A1)
                 (A2) (B1) (A1) (B2) (B1) (A1) (B1) (B2) (A2) (A1)
                 (B2) (A1) (A1)
 The electronic state of the initial guess is 1-A1.
 Leave Link  401 at Sun Sep 24 18:45:58 2023, MaxMem=  1342177280 cpu:               3.4 elap:               1.1
 (Enter /gpfs1/apps/software/Gaussian16/AVX/g16/l502.exe)
 Keep R1 ints in memory in symmetry-blocked form, NReq=3735352.
 FoFCou: FMM=F IPFlag=           0 FMFlag=           0 FMFlg1=           0
         NFxFlg=           0 DoJE=F BraDBF=F KetDBF=F FulRan=T
         wScrn=  0.000000 ICntrl=       600 IOpCl=  0 I1Cent=           0 NGrid=           0
         NMat0=    1 NMatS0=    741 NMatT0=    0 NMatD0=    1 NMtDS0=    0 NMtDT0=    0
 Petite list used in FoFCou.
 Closed shell SCF:
 Using DIIS extrapolation, IDIIS=  1040.
 NGot=  1342177280 LenX=  1342097730 LenY=  1342095608
 Requested convergence on RMS density matrix=1.00D-08 within 128 cycles.
 Requested convergence on MAX density matrix=1.00D-06.
 Requested convergence on             energy=1.00D-06.
 No special actions if energy rises.
 Integral accuracy reduced to 1.0D-05 until final iterations.

 Cycle   1  Pass 0  IDiag  1:
 E= -76.3463906426269    
 DIIS: error= 4.90D-02 at cycle   1 NSaved=   1.
 NSaved= 1 IEnMin= 1 EnMin= -76.3463906426269     IErMin= 1 ErrMin= 4.90D-02
 ErrMax= 4.90D-02  0.00D+00 EMaxC= 1.00D-01 BMatC= 1.05D-01 BMatP= 1.05D-01
 IDIUse=3 WtCom= 5.10D-01 WtEn= 4.90D-01
 Coeff-Com:  0.100D+01
 Coeff-En:   0.100D+01
 Coeff:      0.100D+01
 Gap=     0.207 Goal=   None    Shift=    0.000
 GapD=    0.207 DampG=1.000 DampE=0.500 DampFc=0.5000 IDamp=-1.
 Damping current iteration by 5.00D-01
 RMSDP=1.27D-02 MaxDP=1.76D-01              OVMax= 2.07D-01

 Cycle   2  Pass 0  IDiag  1:
 E= -76.3704607525392     Delta-E=       -0.024070109912 Rises=F Damp=T
 DIIS: error= 1.39D-02 at cycle   2 NSaved=   2.
 NSaved= 2 IEnMin= 2 EnMin= -76.3704607525392     IErMin= 2 ErrMin= 1.39D-02
 ErrMax= 1.39D-02  0.00D+00 EMaxC= 1.00D-01 BMatC= 8.88D-03 BMatP= 1.05D-01
 IDIUse=3 WtCom= 8.61D-01 WtEn= 1.39D-01
 Coeff-Com:  0.207D+00 0.793D+00
 Coeff-En:   0.332D+00 0.668D+00
 Coeff:      0.224D+00 0.776D+00
 Gap=     0.337 Goal=   None    Shift=    0.000
 RMSDP=1.52D-03 MaxDP=1.77D-02 DE=-2.41D-02 OVMax= 1.23D-01

 Cycle   3  Pass 0  IDiag  1:
 E= -76.4243344711144     Delta-E=       -0.053873718575 Rises=F Damp=F
 DIIS: error= 1.72D-03 at cycle   3 NSaved=   3.
 NSaved= 3 IEnMin= 3 EnMin= -76.4243344711144     IErMin= 3 ErrMin= 1.72D-03
 ErrMax= 1.72D-03  0.00D+00 EMaxC= 1.00D-01 BMatC= 1.63D-04 BMatP= 8.88D-03
 IDIUse=3 WtCom= 9.83D-01 WtEn= 1.72D-02
 Coeff-Com:  0.293D-01-0.341D-01 0.100D+01
 Coeff-En:   0.000D+00 0.000D+00 0.100D+01
 Coeff:      0.288D-01-0.335D-01 0.100D+01
 Gap=     0.351 Goal=   None    Shift=    0.000
 RMSDP=1.74D-04 MaxDP=2.67D-03 DE=-5.39D-02 OVMax= 2.80D-03

 Cycle   4  Pass 0  IDiag  1:
 E= -76.4244398374830     Delta-E=       -0.000105366369 Rises=F Damp=F
 DIIS: error= 2.59D-04 at cycle   4 NSaved=   4.
 NSaved= 4 IEnMin= 4 EnMin= -76.4244398374830     IErMin= 4 ErrMin= 2.59D-04
 ErrMax= 2.59D-04  0.00D+00 EMaxC= 1.00D-01 BMatC= 2.83D-06 BMatP= 1.63D-04
 IDIUse=3 WtCom= 9.97D-01 WtEn= 2.59D-03
 Coeff-Com:  0.749D-02-0.177D-01 0.265D+00 0.745D+00
 Coeff-En:   0.000D+00 0.000D+00 0.000D+00 0.100D+01
 Coeff:      0.747D-02-0.177D-01 0.264D+00 0.746D+00
 Gap=     0.351 Goal=   None    Shift=    0.000
 RMSDP=1.87D-05 MaxDP=2.35D-04 DE=-1.05D-04 OVMax= 3.21D-04

 Cycle   5  Pass 0  IDiag  1:
 E= -76.4244416130380     Delta-E=       -0.000001775555 Rises=F Damp=F
 DIIS: error= 4.63D-05 at cycle   5 NSaved=   5.
 NSaved= 5 IEnMin= 5 EnMin= -76.4244416130380     IErMin= 5 ErrMin= 4.63D-05
 ErrMax= 4.63D-05  0.00D+00 EMaxC= 1.00D-01 BMatC= 8.93D-08 BMatP= 2.83D-06
 IDIUse=1 WtCom= 1.00D+00 WtEn= 0.00D+00
 Coeff-Com:  0.809D-03-0.104D-02 0.338D-02 0.264D-01 0.970D+00
 Coeff:      0.809D-03-0.104D-02 0.338D-02 0.264D-01 0.970D+00
 Gap=     0.351 Goal=   None    Shift=    0.000
 RMSDP=4.67D-06 MaxDP=6.99D-05 DE=-1.78D-06 OVMax= 7.64D-05

 Initial convergence to 1.0D-05 achieved.  Increase integral accuracy.
 Cycle   6  Pass 1  IDiag  1:
 E= -76.4244414930074     Delta-E=        0.000000120031 Rises=F Damp=F
 DIIS: error= 1.82D-06 at cycle   1 NSaved=   1.
 NSaved= 1 IEnMin= 1 EnMin= -76.4244414930074     IErMin= 1 ErrMin= 1.82D-06
 ErrMax= 1.82D-06  0.00D+00 EMaxC= 1.00D-01 BMatC= 4.90D-11 BMatP= 4.90D-11
 IDIUse=1 WtCom= 1.00D+00 WtEn= 0.00D+00
 Coeff-Com:  0.100D+01
 Coeff:      0.100D+01
 Gap=     0.351 Goal=   None    Shift=    0.000
 RMSDP=4.67D-06 MaxDP=6.99D-05 DE= 1.20D-07 OVMax= 3.65D-06

 Cycle   7  Pass 1  IDiag  1:
 E= -76.4244414930486     Delta-E=       -0.000000000041 Rises=F Damp=F
 DIIS: error= 7.33D-07 at cycle   2 NSaved=   2.
 NSaved= 2 IEnMin= 2 EnMin= -76.4244414930486     IErMin= 2 ErrMin= 7.33D-07
 ErrMax= 7.33D-07  0.00D+00 EMaxC= 1.00D-01 BMatC= 1.02D-11 BMatP= 4.90D-11
 IDIUse=1 WtCom= 1.00D+00 WtEn= 0.00D+00
 Coeff-Com:  0.292D+00 0.708D+00
 Coeff:      0.292D+00 0.708D+00
 Gap=     0.351 Goal=   None    Shift=    0.000
 RMSDP=5.38D-08 MaxDP=6.29D-07 DE=-4.11D-11 OVMax= 1.05D-06

 Cycle   8  Pass 1  IDiag  1:
 E= -76.4244414930551     Delta-E=       -0.000000000006 Rises=F Damp=F
 DIIS: error= 1.98D-07 at cycle   3 NSaved=   3.
 NSaved= 3 IEnMin= 3 EnMin= -76.4244414930551     IErMin= 3 ErrMin= 1.98D-07
 ErrMax= 1.98D-07  0.00D+00 EMaxC= 1.00D-01 BMatC= 1.70D-12 BMatP= 1.02D-11
 IDIUse=1 WtCom= 1.00D+00 WtEn= 0.00D+00
 Coeff-Com:  0.110D+00 0.334D+00 0.556D+00
 Coeff:      0.110D+00 0.334D+00 0.556D+00
 Gap=     0.351 Goal=   None    Shift=    0.000
 RMSDP=2.54D-08 MaxDP=3.74D-07 DE=-6.49D-12 OVMax= 4.25D-07

 Cycle   9  Pass 1  IDiag  1:
 E= -76.4244414930561     Delta-E=       -0.000000000001 Rises=F Damp=F
 DIIS: error= 6.89D-08 at cycle   4 NSaved=   4.
 NSaved= 4 IEnMin= 4 EnMin= -76.4244414930561     IErMin= 4 ErrMin= 6.89D-08
 ErrMax= 6.89D-08  0.00D+00 EMaxC= 1.00D-01 BMatC= 1.80D-13 BMatP= 1.70D-12
 IDIUse=1 WtCom= 1.00D+00 WtEn= 0.00D+00
 Coeff-Com: -0.127D-01-0.750D-03 0.246D+00 0.767D+00
 Coeff:     -0.127D-01-0.750D-03 0.246D+00 0.767D+00
 Gap=     0.351 Goal=   None    Shift=    0.000
 RMSDP=6.15D-09 MaxDP=1.09D-07 DE=-1.07D-12 OVMax= 8.86D-08

 SCF Done:  E(RB3LYP) =  -76.4244414931     A.U. after    9 cycles
            NFock=  9  Conv=0.62D-08     -V/T= 2.0063
 KE= 7.594389811444D+01 PE=-1.985928089098D+02 EE= 3.733748548261D+01
 Leave Link  502 at Sun Sep 24 18:46:00 2023, MaxMem=  1342177280 cpu:               2.8 elap:               1.2
 (Enter /gpfs1/apps/software/Gaussian16/AVX/g16/l601.exe)
 Copying SCF densities to generalized density rwf, IOpCl= 0 IROHF=0.

 **********************************************************************

            Population analysis using the SCF Density.

 **********************************************************************

 Orbital symmetries:
       Occupied  (A1) (A1) (B2) (A1) (B1)
       Virtual   (A1) (B2) (B2) (A1) (A1) (B1) (A2) (A1) (B1) (A1)
                 (B2) (A1) (B2) (B2) (A2) (B1) (B2) (A1) (A1) (A1)
                 (A2) (B1) (A1) (B2) (B1) (A1) (B1) (B2) (A2) (A1)
                 (B2) (A1) (A1)
 The electronic state is 1-A1.
 Alpha  occ. eigenvalues --  -19.13173  -0.98280  -0.50709  -0.36568  -0.28983
 Alpha virt. eigenvalues --    0.06100   0.14395   0.61965   0.66117   0.83373
 Alpha virt. eigenvalues --    0.86668   0.88524   0.92044   0.95111   0.99904
 Alpha virt. eigenvalues --    1.01555   1.67623   2.10592   2.24059   2.45820
 Alpha virt. eigenvalues --    2.51746   2.84064   2.85515   3.00967   4.11332
 Alpha virt. eigenvalues --    4.12076   4.14134   4.43151   4.70929   5.02545
 Alpha virt. eigenvalues --    5.16721   5.38054   5.41608   5.48937   5.80654
 Alpha virt. eigenvalues --    5.82072   6.82941  12.80112
          Condensed to atoms (all electrons):
               1          2          3
     1  O    8.029643   0.284589   0.284589
     2  H    0.284589   0.447034  -0.031033
     3  H    0.284589  -0.031033   0.447034
 Mulliken charges:
               1
     1  O   -0.598821
     2  H    0.299410
     3  H    0.299410
 Sum of Mulliken charges =  -0.00000
 Mulliken charges with hydrogens summed into heavy atoms:
               1
     1  O   -0.000000
 Electronic spatial extent (au):  <R**2>=             19.3722
 Charge=             -0.0000 electrons
 Dipole moment (field-independent basis, Debye):
    X=             -0.0000    Y=             -0.0000    Z=             -1.8263  Tot=              1.8263
 Quadrupole moment (field-independent basis, Debye-Ang):
   XX=             -7.1776   YY=             -4.1450   ZZ=             -6.0004
   XY=              0.0000   XZ=              0.0000   YZ=             -0.0000
 Traceless Quadrupole moment (field-independent basis, Debye-Ang):
   XX=             -1.4033   YY=              1.6293   ZZ=             -0.2260
   XY=              0.0000   XZ=              0.0000   YZ=             -0.0000
 Octapole moment (field-independent basis, Debye-Ang**2):
  XXX=              0.0000  YYY=             -0.0000  ZZZ=             -0.8419  XYY=             -0.0000
  XXY=             -0.0000  XXZ=             -0.1764  XZZ=              0.0000  YZZ=             -0.0000
  YYZ=             -1.2372  XYZ=             -0.0000
 Hexadecapole moment (field-independent basis, Debye-Ang**3):
 XXXX=             -5.1959 YYYY=             -6.2193 ZZZZ=             -6.2918 XXXY=             -0.0000
 XXXZ=             -0.0000 YYYX=             -0.0000 YYYZ=              0.0000 ZZZX=             -0.0000
 ZZZY=              0.0000 XXYY=             -2.2003 XXZZ=             -1.9628 YYZZ=             -1.7616
 XXYZ=              0.0000 YYXZ=              0.0000 ZZXY=             -0.0000
 N-N= 8.886983819716D+00 E-N=-1.985928113731D+02  KE= 7.594389811444D+01
 Symmetry A1   KE= 6.786753474186D+01
 Symmetry A2   KE= 8.243969138041D-35
 Symmetry B1   KE= 4.581808433150D+00
 Symmetry B2   KE= 3.494554939424D+00
 No NMR shielding tensors so no spin-rotation constants.
 Leave Link  601 at Sun Sep 24 18:46:02 2023, MaxMem=  1342177280 cpu:               0.5 elap:               0.2
 (Enter /gpfs1/apps/software/Gaussian16/AVX/g16/l701.exe)
 ... and contract with generalized density number  0.
 Compute integral first derivatives.
 Leave Link  701 at Sun Sep 24 18:46:03 2023, MaxMem=  1342177280 cpu:               0.5 elap:               0.1
 (Enter /gpfs1/apps/software/Gaussian16/AVX/g16/l702.exe)
 L702 exits ... SP integral derivatives will be done elsewhere.
 Leave Link  702 at Sun Sep 24 18:46:05 2023, MaxMem=  1342177280 cpu:               0.1 elap:               0.0
 (Enter /gpfs1/apps/software/Gaussian16/AVX/g16/l703.exe)
 Integral derivatives from FoFJK, PRISM(SPDF).
 Compute integral first derivatives, UseDBF=F ICtDFT=           0.
 Calling FoFJK, ICntrl=      2127 FMM=F ISym2X=1 I1Cent= 0 IOpClX= 0 NMat=1 NMatS=1 NMatT=0.
 FoFJK:  IHMeth= 1 ICntrl=    2127 DoSepK=F KAlg= 0 I1Cent=           0 FoldK=F
 IRaf=         0 NMat=       1 IRICut=       1 DoRegI=T DoRafI=F ISym2E= 1 IDoP0=0 IntGTp=1.
 FoFCou: FMM=F IPFlag=           0 FMFlag=      100000 FMFlg1=         800
         NFxFlg=           0 DoJE=F BraDBF=F KetDBF=F FulRan=T
         wScrn=  0.000000 ICntrl=      2127 IOpCl=  0 I1Cent=           0 NGrid=           0
         NMat0=    1 NMatS0=      1 NMatT0=    0 NMatD0=    1 NMtDS0=    0 NMtDT0=    0
 Petite list used in FoFCou.
 Leave Link  703 at Sun Sep 24 18:46:07 2023, MaxMem=  1342177280 cpu:               2.2 elap:               0.6
 (Enter /gpfs1/apps/software/Gaussian16/AVX/g16/l716.exe)
 Dipole        =-5.20767705D-17 0.00000000D+00-7.18533567D-01
 ***** Axes restored to original set *****
 -------------------------------------------------------------------
 Center     Atomic                   Forces (Hartrees/Bohr)
 Number     Number              X              Y              Z
 -------------------------------------------------------------------
      1        8           0.000000000    0.023505470   -0.000000000
      2        1           0.024249097   -0.011752735    0.000000000
      3        1          -0.024249097   -0.011752735    0.000000000
 -------------------------------------------------------------------
 Cartesian Forces:  Max     0.024249097 RMS     0.014924991
 Leave Link  716 at Sun Sep 24 18:46:08 2023, MaxMem=  1342177280 cpu:               0.1 elap:               0.0
 (Enter /gpfs1/apps/software/Gaussian16/AVX/g16/l103.exe)

 GradGradGradGradGradGradGradGradGradGradGradGradGradGradGradGradGradGrad
 Berny optimization.
 FormGI is forming the generalized inverse of G from B-inverse, IUseBI=4.
 Internal  Forces:  Max     0.026439152 RMS     0.022308194
 Search for a local minimum.
 Step number   1 out of a maximum of   20
 All quantities printed in internal units (Hartrees-Bohrs-Radians)
 RMS Force = .22308D-01 SwitMx=.10000D-02 MixMth= 1
 Mixed Optimization -- RFO/linear search
 Second derivative matrix not updated -- first step.
 The second derivative matrix:
                          R1        R2        A1
           R1           0.49490
           R2           0.00000   0.49490
           A1           0.00000   0.00000   0.16000
 ITU=  0
     Eigenvalues ---    0.16000   0.49490   0.49490
 RFO step:  Lambda=-3.38661252D-03 EMin= 1.60000000D-01
 Linear search not attempted -- first point.
 Iteration  1 RMS(Cart)=  0.06218083 RMS(Int)=  0.00120854
 Iteration  2 RMS(Cart)=  0.00083020 RMS(Int)=  0.00000068
 Iteration  3 RMS(Cart)=  0.00000076 RMS(Int)=  0.00000000
 ITry= 1 IFail=0 DXMaxC= 7.56D-02 DCOld= 1.00D+10 DXMaxT= 3.00D-01 DXLimC= 3.00D+00 Rises=F
 ClnCor:  largest displacement from symmetrization is 1.02D-15 for atom     3.
 Variable       Old X    -DE/DX   Delta X   Delta X   Delta X     New X
                                 (Linear)    (Quad)   (Total)
    R1        1.87083  -0.02644   0.00000  -0.05306  -0.05306   1.81777
    R2        1.87083  -0.02644   0.00000  -0.05306  -0.05306   1.81777
    A1        1.85004  -0.00974   0.00000  -0.05963  -0.05963   1.79042
         Item               Value     Threshold  Converged?
 Maximum Force            0.026439     0.000450     NO 
 RMS     Force            0.022308     0.000300     NO 
 Maximum Displacement     0.075630     0.001800     NO 
 RMS     Displacement     0.061964     0.001200     NO 
 Predicted change in Energy=-1.708860D-03
 Lowest energy point so far.  Saving SCF results.
 GradGradGradGradGradGradGradGradGradGradGradGradGradGradGradGradGradGrad

 Leave Link  103 at Sun Sep 24 18:46:08 2023, MaxMem=  1342177280 cpu:               0.4 elap:               0.1
 (Enter /gpfs1/apps/software/Gaussian16/AVX/g16/l202.exe)
                          Input orientation:                          
 ---------------------------------------------------------------------
 Center     Atomic      Atomic             Coordinates (Angstroms)
 Number     Number       Type             X           Y           Z
 ---------------------------------------------------------------------
      1          8           0       -0.000000   -0.122990    0.000000
      2          1           0       -0.750628    0.478555    0.000000
      3          1           0        0.750628    0.478555   -0.000000
 ---------------------------------------------------------------------
                    Distance matrix (angstroms):
                    1          2          3
     1  O    0.000000
     2  H    0.961924   0.000000
     3  H    0.961924   1.501256   0.000000
 Stoichiometry    H2O
 Framework group  C2V[C2(O),SGV(H2)]
 Deg. of freedom     2
 Full point group                 C2V     NOp   4
 RotChk:  IX=0 Diff= 1.10D-15
 Largest Abelian subgroup         C2V     NOp   4
 Largest concise Abelian subgroup C2      NOp   2
                         Standard orientation:                         
 ---------------------------------------------------------------------
 Center     Atomic      Atomic             Coordinates (Angstroms)
 Number     Number       Type             X           Y           Z
 ---------------------------------------------------------------------
      1          8           0       -0.000000   -0.000000    0.120309
      2          1           0        0.000000    0.750628   -0.481236
      3          1           0       -0.000000   -0.750628   -0.481236
 ---------------------------------------------------------------------
 Rotational constants (GHZ):         780.2103460         444.9921965         283.3715272
 Leave Link  202 at Sun Sep 24 18:46:08 2023, MaxMem=  1342177280 cpu:               0.0 elap:               0.0
 (Enter /gpfs1/apps/software/Gaussian16/AVX/g16/l301.exe)
 Standard basis: GTBas3 (6D, 7F)
 Ernie: Thresh=  0.10000D-02 Tol=  0.10000D-05 Strict=F.
 There are    18 symmetry adapted cartesian basis functions of A1  symmetry.
 There are     4 symmetry adapted cartesian basis functions of A2  symmetry.
 There are     8 symmetry adapted cartesian basis functions of B1  symmetry.
 There are    11 symmetry adapted cartesian basis functions of B2  symmetry.
 There are    17 symmetry adapted basis functions of A1  symmetry.
 There are     4 symmetry adapted basis functions of A2  symmetry.
 There are     7 symmetry adapted basis functions of B1  symmetry.
 There are    10 symmetry adapted basis functions of B2  symmetry.
    38 basis functions,    58 primitive gaussians,    41 cartesian basis functions
     5 alpha electrons        5 beta electrons
       nuclear repulsion energy         9.1544654131 Hartrees.
 IExCor=  402 DFT=T Ex+Corr=B3LYP ExCW=0 ScaHFX=  0.200000
 ScaDFX=  0.800000  0.720000  1.000000  0.810000 ScalE2=  1.000000  1.000000
 IRadAn=      5 IRanWt=     -1 IRanGd=            0 ICorTp=0 IEmpDi=  4
 NAtoms=    3 NActive=    3 NUniq=    2 SFac= 2.25D+00 NAtFMM=   60 NAOKFM=F Big=F
 Integral buffers will be    131072 words long.
 Raffenetti 2 integral format.
 Two-electron integral symmetry is turned on.
 Leave Link  301 at Sun Sep 24 18:46:08 2023, MaxMem=  1342177280 cpu:               0.2 elap:               0.0
 (Enter /gpfs1/apps/software/Gaussian16/AVX/g16/l302.exe)
 NPDir=0 NMtPBC=     1 NCelOv=     1 NCel=       1 NClECP=     1 NCelD=      1
         NCelK=      1 NCelE2=     1 NClLst=     1 CellRange=     0.0.
 One-electron integrals computed using PRISM.
 One-electron integral symmetry used in STVInt
 NBasis=    38 RedAO= T EigKep=  1.64D-03  NBF=    17     4     7    10
 NBsUse=    38 1.00D-06 EigRej= -1.00D+00 NBFU=    17     4     7    10
 Precomputing XC quadrature grid using
 IXCGrd= 4 IRadAn=           5 IRanWt=          -1 IRanGd=           0 AccXCQ= 0.00D+00.
 Generated NRdTot=       0 NPtTot=           0 NUsed=           0 NTot=          32
 NSgBfM=    41    41    41    41    41 MxSgAt=     3 MxSgA2=     3.
 Leave Link  302 at Sun Sep 24 18:46:08 2023, MaxMem=  1342177280 cpu:               0.5 elap:               0.1
 (Enter /gpfs1/apps/software/Gaussian16/AVX/g16/l303.exe)
 DipDrv:  MaxL=1.
 Leave Link  303 at Sun Sep 24 18:46:08 2023, MaxMem=  1342177280 cpu:               0.1 elap:               0.0
 (Enter /gpfs1/apps/software/Gaussian16/AVX/g16/l401.exe)
 Initial guess from the checkpoint file:  "water.chk"
 B after Tr=     0.000000   -0.000000    0.000000
         Rot=    1.000000    0.000000   -0.000000    0.000000 Ang=   0.00 deg.
 Guess basis will be translated and rotated to current coordinates.
 JPrj=2 DoOrth=T DoCkMO=T.
 Initial guess orbital symmetries:
       Occupied  (A1) (A1) (B2) (A1) (B1)
       Virtual   (A1) (B2) (B2) (A1) (A1) (B1) (A2) (A1) (B1) (A1)
                 (B2) (A1) (B2) (B2) (A2) (B1) (B2) (A1) (A1) (A1)
                 (A2) (B1) (A1) (B2) (B1) (A1) (B1) (B2) (A2) (A1)
                 (B2) (A1) (A1)
 The electronic state of the initial guess is 1-A1.
 Generating alternative initial guess.
 ExpMin= 1.61D-01 ExpMax= 5.48D+03 ExpMxC= 8.25D+02 IAcc=3 IRadAn=         5 AccDes= 0.00D+00
 Harris functional with IExCor=  402 and IRadAn=       5 diagonalized for initial guess.
 HarFok:  IExCor=  402 AccDes= 0.00D+00 IRadAn=         5 IDoV= 1 UseB2=F ITyADJ=14
 ICtDFT=  3500011 ScaDFX=  1.000000  1.000000  1.000000  1.000000
 FoFCou: FMM=F IPFlag=           0 FMFlag=      100000 FMFlg1=           0
         NFxFlg=           0 DoJE=T BraDBF=F KetDBF=T FulRan=T
         wScrn=  0.000000 ICntrl=       500 IOpCl=  0 I1Cent=   200000004 NGrid=           0
         NMat0=    1 NMatS0=      1 NMatT0=    0 NMatD0=    1 NMtDS0=    0 NMtDT0=    0
 Petite list used in FoFCou.
 Harris En= -76.4639848658790    
 Leave Link  401 at Sun Sep 24 18:46:09 2023, MaxMem=  1342177280 cpu:               0.9 elap:               0.2
 (Enter /gpfs1/apps/software/Gaussian16/AVX/g16/l502.exe)
 Keep R1 ints in memory in symmetry-blocked form, NReq=3735352.
 FoFCou: FMM=F IPFlag=           0 FMFlag=           0 FMFlg1=           0
         NFxFlg=           0 DoJE=F BraDBF=F KetDBF=F FulRan=T
         wScrn=  0.000000 ICntrl=       600 IOpCl=  0 I1Cent=           0 NGrid=           0
         NMat0=    1 NMatS0=    741 NMatT0=    0 NMatD0=    1 NMtDS0=    0 NMtDT0=    0
 Petite list used in FoFCou.
 Closed shell SCF:
 Using DIIS extrapolation, IDIIS=  1040.
 NGot=  1342177280 LenX=  1342097730 LenY=  1342095608
 Requested convergence on RMS density matrix=1.00D-08 within 128 cycles.
 Requested convergence on MAX density matrix=1.00D-06.
 Requested convergence on             energy=1.00D-06.
 No special actions if energy rises.
 Integral accuracy reduced to 1.0D-05 until final iterations.

 Cycle   1  Pass 0  IDiag  1:
 E= -76.4255772556674    
 DIIS: error= 4.34D-03 at cycle   1 NSaved=   1.
 NSaved= 1 IEnMin= 1 EnMin= -76.4255772556674     IErMin= 1 ErrMin= 4.34D-03
 ErrMax= 4.34D-03  0.00D+00 EMaxC= 1.00D-01 BMatC= 5.67D-04 BMatP= 5.67D-04
 IDIUse=3 WtCom= 9.57D-01 WtEn= 4.34D-02
 Coeff-Com:  0.100D+01
 Coeff-En:   0.100D+01
 Coeff:      0.100D+01
 Gap=     0.379 Goal=   None    Shift=    0.000
 GapD=    0.379 DampG=1.000 DampE=1.000 DampFc=1.0000 IDamp=-1.
 RMSDP=6.82D-04 MaxDP=1.01D-02              OVMax= 1.08D-02

 Cycle   2  Pass 0  IDiag  1:
 E= -76.4259421804575     Delta-E=       -0.000364924790 Rises=F Damp=F
 DIIS: error= 2.16D-03 at cycle   2 NSaved=   2.
 NSaved= 2 IEnMin= 2 EnMin= -76.4259421804575     IErMin= 2 ErrMin= 2.16D-03
 ErrMax= 2.16D-03  0.00D+00 EMaxC= 1.00D-01 BMatC= 1.52D-04 BMatP= 5.67D-04
 IDIUse=3 WtCom= 9.78D-01 WtEn= 2.16D-02
 Coeff-Com:  0.282D+00 0.718D+00
 Coeff-En:   0.000D+00 0.100D+01
 Coeff:      0.275D+00 0.725D+00
 Gap=     0.359 Goal=   None    Shift=    0.000
 RMSDP=2.99D-04 MaxDP=4.62D-03 DE=-3.65D-04 OVMax= 4.62D-03

 Cycle   3  Pass 0  IDiag  1:
 E= -76.4259913232066     Delta-E=       -0.000049142749 Rises=F Damp=F
 DIIS: error= 1.32D-03 at cycle   3 NSaved=   3.
 NSaved= 3 IEnMin= 3 EnMin= -76.4259913232066     IErMin= 3 ErrMin= 1.32D-03
 ErrMax= 1.32D-03  0.00D+00 EMaxC= 1.00D-01 BMatC= 7.68D-05 BMatP= 1.52D-04
 IDIUse=3 WtCom= 9.87D-01 WtEn= 1.32D-02
 Coeff-Com:  0.275D-01 0.413D+00 0.560D+00
 Coeff-En:   0.000D+00 0.353D+00 0.647D+00
 Coeff:      0.271D-01 0.412D+00 0.561D+00
 Gap=     0.362 Goal=   None    Shift=    0.000
 RMSDP=1.36D-04 MaxDP=2.05D-03 DE=-4.91D-05 OVMax= 2.25D-03

 Cycle   4  Pass 0  IDiag  1:
 E= -76.4260430887121     Delta-E=       -0.000051765505 Rises=F Damp=F
 DIIS: error= 1.58D-04 at cycle   4 NSaved=   4.
 NSaved= 4 IEnMin= 4 EnMin= -76.4260430887121     IErMin= 4 ErrMin= 1.58D-04
 ErrMax= 1.58D-04  0.00D+00 EMaxC= 1.00D-01 BMatC= 6.38D-07 BMatP= 7.68D-05
 IDIUse=3 WtCom= 9.98D-01 WtEn= 1.58D-03
 Coeff-Com: -0.461D-02 0.817D-01 0.161D+00 0.762D+00
 Coeff-En:   0.000D+00 0.000D+00 0.000D+00 0.100D+01
 Coeff:     -0.461D-02 0.815D-01 0.161D+00 0.762D+00
 Gap=     0.362 Goal=   None    Shift=    0.000
 RMSDP=1.12D-05 MaxDP=1.20D-04 DE=-5.18D-05 OVMax= 2.21D-04

 Cycle   5  Pass 0  IDiag  1:
 E= -76.4260435502661     Delta-E=       -0.000000461554 Rises=F Damp=F
 DIIS: error= 9.28D-06 at cycle   5 NSaved=   5.
 NSaved= 5 IEnMin= 5 EnMin= -76.4260435502661     IErMin= 5 ErrMin= 9.28D-06
 ErrMax= 9.28D-06  0.00D+00 EMaxC= 1.00D-01 BMatC= 1.79D-09 BMatP= 6.38D-07
 IDIUse=1 WtCom= 1.00D+00 WtEn= 0.00D+00
 Coeff-Com: -0.387D-03-0.221D-02-0.473D-03 0.522D-01 0.951D+00
 Coeff:     -0.387D-03-0.221D-02-0.473D-03 0.522D-01 0.951D+00
 Gap=     0.362 Goal=   None    Shift=    0.000
 RMSDP=1.14D-06 MaxDP=1.36D-05 DE=-4.62D-07 OVMax= 2.32D-05

 Initial convergence to 1.0D-05 achieved.  Increase integral accuracy.
 Cycle   6  Pass 1  IDiag  1:
 E= -76.4260445226459     Delta-E=       -0.000000972380 Rises=F Damp=F
 DIIS: error= 7.34D-07 at cycle   1 NSaved=   1.
 NSaved= 1 IEnMin= 1 EnMin= -76.4260445226459     IErMin= 1 ErrMin= 7.34D-07
 ErrMax= 7.34D-07  0.00D+00 EMaxC= 1.00D-01 BMatC= 1.87D-11 BMatP= 1.87D-11
 IDIUse=1 WtCom= 1.00D+00 WtEn= 0.00D+00
 Coeff-Com:  0.100D+01
 Coeff:      0.100D+01
 Gap=     0.362 Goal=   None    Shift=    0.000
 RMSDP=1.14D-06 MaxDP=1.36D-05 DE=-9.72D-07 OVMax= 2.11D-06

 Cycle   7  Pass 1  IDiag  1:
 E= -76.4260445226526     Delta-E=       -0.000000000007 Rises=F Damp=F
 DIIS: error= 5.96D-07 at cycle   2 NSaved=   2.
 NSaved= 2 IEnMin= 2 EnMin= -76.4260445226526     IErMin= 2 ErrMin= 5.96D-07
 ErrMax= 5.96D-07  0.00D+00 EMaxC= 1.00D-01 BMatC= 1.56D-11 BMatP= 1.87D-11
 IDIUse=1 WtCom= 1.00D+00 WtEn= 0.00D+00
 Coeff-Com:  0.473D+00 0.527D+00
 Coeff:      0.473D+00 0.527D+00
 Gap=     0.362 Goal=   None    Shift=    0.000
 RMSDP=7.48D-08 MaxDP=1.17D-06 DE=-6.71D-12 OVMax= 1.27D-06

 Cycle   8  Pass 1  IDiag  1:
 E= -76.4260445226626     Delta-E=       -0.000000000010 Rises=F Damp=F
 DIIS: error= 1.84D-07 at cycle   3 NSaved=   3.
 NSaved= 3 IEnMin= 3 EnMin= -76.4260445226626     IErMin= 3 ErrMin= 1.84D-07
 ErrMax= 1.84D-07  0.00D+00 EMaxC= 1.00D-01 BMatC= 1.31D-12 BMatP= 1.56D-11
 IDIUse=1 WtCom= 1.00D+00 WtEn= 0.00D+00
 Coeff-Com: -0.287D-01 0.211D+00 0.818D+00
 Coeff:     -0.287D-01 0.211D+00 0.818D+00
 Gap=     0.362 Goal=   None    Shift=    0.000
 RMSDP=1.79D-08 MaxDP=2.78D-07 DE=-9.98D-12 OVMax= 3.33D-07

 Cycle   9  Pass 1  IDiag  1:
 E= -76.4260445226634     Delta-E=       -0.000000000001 Rises=F Damp=F
 DIIS: error= 1.62D-08 at cycle   4 NSaved=   4.
 NSaved= 4 IEnMin= 4 EnMin= -76.4260445226634     IErMin= 4 ErrMin= 1.62D-08
 ErrMax= 1.62D-08  0.00D+00 EMaxC= 1.00D-01 BMatC= 6.36D-15 BMatP= 1.31D-12
 IDIUse=1 WtCom= 1.00D+00 WtEn= 0.00D+00
 Coeff-Com: -0.155D-01 0.418D-01 0.188D+00 0.785D+00
 Coeff:     -0.155D-01 0.418D-01 0.188D+00 0.785D+00
 Gap=     0.362 Goal=   None    Shift=    0.000
 RMSDP=1.53D-09 MaxDP=1.63D-08 DE=-8.95D-13 OVMax= 3.12D-08

 SCF Done:  E(RB3LYP) =  -76.4260445227     A.U. after    9 cycles
            NFock=  9  Conv=0.15D-08     -V/T= 2.0051
 KE= 7.603987000697D+01 PE=-1.991544079907D+02 EE= 3.753402804801D+01
 Leave Link  502 at Sun Sep 24 18:46:09 2023, MaxMem=  1342177280 cpu:               1.5 elap:               0.4
 (Enter /gpfs1/apps/software/Gaussian16/AVX/g16/l701.exe)
 ... and contract with generalized density number  0.
 Compute integral first derivatives.
 Leave Link  701 at Sun Sep 24 18:46:09 2023, MaxMem=  1342177280 cpu:               0.5 elap:               0.1
 (Enter /gpfs1/apps/software/Gaussian16/AVX/g16/l702.exe)
 L702 exits ... SP integral derivatives will be done elsewhere.
 Leave Link  702 at Sun Sep 24 18:46:09 2023, MaxMem=  1342177280 cpu:               0.1 elap:               0.0
 (Enter /gpfs1/apps/software/Gaussian16/AVX/g16/l703.exe)
 Integral derivatives from FoFJK, PRISM(SPDF).
 Compute integral first derivatives, UseDBF=F ICtDFT=           0.
 Calling FoFJK, ICntrl=      2127 FMM=F ISym2X=1 I1Cent= 0 IOpClX= 0 NMat=1 NMatS=1 NMatT=0.
 FoFJK:  IHMeth= 1 ICntrl=    2127 DoSepK=F KAlg= 0 I1Cent=           0 FoldK=F
 IRaf=         0 NMat=       1 IRICut=       1 DoRegI=T DoRafI=F ISym2E= 1 IDoP0=0 IntGTp=1.
 FoFCou: FMM=F IPFlag=           0 FMFlag=      100000 FMFlg1=         800
         NFxFlg=           0 DoJE=F BraDBF=F KetDBF=F FulRan=T
         wScrn=  0.000000 ICntrl=      2127 IOpCl=  0 I1Cent=           0 NGrid=           0
         NMat0=    1 NMatS0=      1 NMatT0=    0 NMatD0=    1 NMtDS0=    0 NMtDT0=    0
 Petite list used in FoFCou.
 Leave Link  703 at Sun Sep 24 18:46:10 2023, MaxMem=  1342177280 cpu:               1.9 elap:               0.5
 (Enter /gpfs1/apps/software/Gaussian16/AVX/g16/l716.exe)
 Dipole        =-4.83152752D-17 0.00000000D+00-7.34799634D-01
 ***** Axes restored to original set *****
 -------------------------------------------------------------------
 Center     Atomic                   Forces (Hartrees/Bohr)
 Number     Number              X              Y              Z
 -------------------------------------------------------------------
      1        8           0.000000000    0.001850591   -0.000000000
      2        1          -0.001806793   -0.000925296    0.000000000
      3        1           0.001806793   -0.000925296    0.000000000
 -------------------------------------------------------------------
 Cartesian Forces:  Max     0.001850591 RMS     0.001138519
 Leave Link  716 at Sun Sep 24 18:46:10 2023, MaxMem=  1342177280 cpu:               0.1 elap:               0.0
 (Enter /gpfs1/apps/software/Gaussian16/AVX/g16/l103.exe)

 GradGradGradGradGradGradGradGradGradGradGradGradGradGradGradGradGradGrad
 Berny optimization.
 Using GEDIIS/GDIIS optimizer.
 FormGI is forming the generalized inverse of G from B-inverse, IUseBI=4.
 Internal  Forces:  Max     0.003366395 RMS     0.002058693
 Search for a local minimum.
 Step number   2 out of a maximum of   20
 All quantities printed in internal units (Hartrees-Bohrs-Radians)
 RMS Force = .20587D-02 SwitMx=.10000D-02 MixMth= 1
 Mixed Optimization -- RFO/linear search
 Update second derivatives using D2CorX and points    1    2
 DE= -1.60D-03 DEPred=-1.71D-03 R= 9.38D-01
 TightC=F SS=  1.41D+00  RLast= 9.58D-02 DXNew= 5.0454D-01 2.8753D-01
 Trust test= 9.38D-01 RLast= 9.58D-02 DXMaxT set to 3.00D-01
 The second derivative matrix:
                          R1        R2        A1
           R1           0.49173
           R2          -0.00317   0.49173
           A1           0.02260   0.02260   0.17963
 ITU=  1  0
 Use linear search instead of GDIIS.
     Eigenvalues ---    0.17635   0.49183   0.49490
 RFO step:  Lambda=-3.88172365D-05 EMin= 1.76354805D-01
 Quartic linear search produced a step of -0.07258.
 Iteration  1 RMS(Cart)=  0.01039036 RMS(Int)=  0.00005876
 Iteration  2 RMS(Cart)=  0.00004891 RMS(Int)=  0.00000000
 Iteration  3 RMS(Cart)=  0.00000000 RMS(Int)=  0.00000000
 ITry= 1 IFail=0 DXMaxC= 1.05D-02 DCOld= 1.00D+10 DXMaxT= 3.00D-01 DXLimC= 3.00D+00 Rises=F
 ClnCor:  largest displacement from symmetrization is 9.93D-16 for atom     3.
 Variable       Old X    -DE/DX   Delta X   Delta X   Delta X     New X
                                 (Linear)    (Quad)   (Total)
    R1        1.81777   0.00083   0.00385  -0.00323   0.00062   1.81839
    R2        1.81777   0.00083   0.00385  -0.00323   0.00062   1.81839
    A1        1.79042   0.00337   0.00433   0.01345   0.01778   1.80820
         Item               Value     Threshold  Converged?
 Maximum Force            0.003366     0.000450     NO 
 RMS     Force            0.002059     0.000300     NO 
 Maximum Displacement     0.010536     0.001800     NO 
 RMS     Displacement     0.010367     0.001200     NO 
 Predicted change in Energy=-3.180637D-05
 Lowest energy point so far.  Saving SCF results.
 GradGradGradGradGradGradGradGradGradGradGradGradGradGradGradGradGradGrad

 Leave Link  103 at Sun Sep 24 18:46:10 2023, MaxMem=  1342177280 cpu:               0.0 elap:               0.0
 (Enter /gpfs1/apps/software/Gaussian16/AVX/g16/l202.exe)
                          Input orientation:                          
 ---------------------------------------------------------------------
 Center     Atomic      Atomic             Coordinates (Angstroms)
 Number     Number       Type             X           Y           Z
 ---------------------------------------------------------------------
      1          8           0       -0.000000   -0.118659   -0.000000
      2          1           0       -0.756203    0.476390    0.000000
      3          1           0        0.756203    0.476390   -0.000000
 ---------------------------------------------------------------------
                    Distance matrix (angstroms):
                    1          2          3
     1  O    0.000000
     2  H    0.962251   0.000000
     3  H    0.962251   1.512407   0.000000
 Stoichiometry    H2O
 Framework group  C2V[C2(O),SGV(H2)]
 Deg. of freedom     2
 Full point group                 C2V     NOp   4
 RotChk:  IX=0 Diff= 7.07D-16
 Largest Abelian subgroup         C2V     NOp   4
 Largest concise Abelian subgroup C2      NOp   2
                         Standard orientation:                         
 ---------------------------------------------------------------------
 Center     Atomic      Atomic             Coordinates (Angstroms)
 Number     Number       Type             X           Y           Z
 ---------------------------------------------------------------------
      1          8           0        0.000000    0.000000    0.119010
      2          1           0       -0.000000    0.756203   -0.476039
      3          1           0       -0.000000   -0.756203   -0.476039
 ---------------------------------------------------------------------
 Rotational constants (GHZ):         797.3368423         438.4547940         282.8924802
 Leave Link  202 at Sun Sep 24 18:46:10 2023, MaxMem=  1342177280 cpu:               0.0 elap:               0.0
 (Enter /gpfs1/apps/software/Gaussian16/AVX/g16/l301.exe)
 Standard basis: GTBas3 (6D, 7F)
 Ernie: Thresh=  0.10000D-02 Tol=  0.10000D-05 Strict=F.
 There are    18 symmetry adapted cartesian basis functions of A1  symmetry.
 There are     4 symmetry adapted cartesian basis functions of A2  symmetry.
 There are     8 symmetry adapted cartesian basis functions of B1  symmetry.
 There are    11 symmetry adapted cartesian basis functions of B2  symmetry.
 There are    17 symmetry adapted basis functions of A1  symmetry.
 There are     4 symmetry adapted basis functions of A2  symmetry.
 There are     7 symmetry adapted basis functions of B1  symmetry.
 There are    10 symmetry adapted basis functions of B2  symmetry.
    38 basis functions,    58 primitive gaussians,    41 cartesian basis functions
     5 alpha electrons        5 beta electrons
       nuclear repulsion energy         9.1488790369 Hartrees.
 IExCor=  402 DFT=T Ex+Corr=B3LYP ExCW=0 ScaHFX=  0.200000
 ScaDFX=  0.800000  0.720000  1.000000  0.810000 ScalE2=  1.000000  1.000000
 IRadAn=      5 IRanWt=     -1 IRanGd=            0 ICorTp=0 IEmpDi=  4
 NAtoms=    3 NActive=    3 NUniq=    2 SFac= 2.25D+00 NAtFMM=   60 NAOKFM=F Big=F
 Integral buffers will be    131072 words long.
 Raffenetti 2 integral format.
 Two-electron integral symmetry is turned on.
 Leave Link  301 at Sun Sep 24 18:46:10 2023, MaxMem=  1342177280 cpu:               0.2 elap:               0.0
 (Enter /gpfs1/apps/software/Gaussian16/AVX/g16/l302.exe)
 NPDir=0 NMtPBC=     1 NCelOv=     1 NCel=       1 NClECP=     1 NCelD=      1
         NCelK=      1 NCelE2=     1 NClLst=     1 CellRange=     0.0.
 One-electron integrals computed using PRISM.
 One-electron integral symmetry used in STVInt
 NBasis=    38 RedAO= T EigKep=  1.64D-03  NBF=    17     4     7    10
 NBsUse=    38 1.00D-06 EigRej= -1.00D+00 NBFU=    17     4     7    10
 Precomputing XC quadrature grid using
 IXCGrd= 4 IRadAn=           5 IRanWt=          -1 IRanGd=           0 AccXCQ= 0.00D+00.
 Generated NRdTot=       0 NPtTot=           0 NUsed=           0 NTot=          32
 NSgBfM=    41    41    41    41    41 MxSgAt=     3 MxSgA2=     3.
 Leave Link  302 at Sun Sep 24 18:46:10 2023, MaxMem=  1342177280 cpu:               0.5 elap:               0.1
 (Enter /gpfs1/apps/software/Gaussian16/AVX/g16/l303.exe)
 DipDrv:  MaxL=1.
 Leave Link  303 at Sun Sep 24 18:46:10 2023, MaxMem=  1342177280 cpu:               0.1 elap:               0.0
 (Enter /gpfs1/apps/software/Gaussian16/AVX/g16/l401.exe)
 Initial guess from the checkpoint file:  "water.chk"
 B after Tr=    -0.000000   -0.000000   -0.000000
         Rot=    1.000000    0.000000    0.000000   -0.000000 Ang=   0.00 deg.
 Guess basis will be translated and rotated to current coordinates.
 JPrj=2 DoOrth=T DoCkMO=T.
 Initial guess orbital symmetries:
       Occupied  (A1) (A1) (B2) (A1) (B1)
       Virtual   (A1) (B2) (B2) (A1) (A1) (B1) (A2) (A1) (B1) (A1)
                 (B2) (A1) (B2) (B2) (A2) (B1) (B2) (A1) (A1) (A1)
                 (A2) (B1) (A1) (B2) (B1) (A1) (B2) (B1) (A2) (A1)
                 (B2) (A1) (A1)
 The electronic state of the initial guess is 1-A1.
 Leave Link  401 at Sun Sep 24 18:46:10 2023, MaxMem=  1342177280 cpu:               0.3 elap:               0.1
 (Enter /gpfs1/apps/software/Gaussian16/AVX/g16/l502.exe)
 Keep R1 ints in memory in symmetry-blocked form, NReq=3735352.
 FoFCou: FMM=F IPFlag=           0 FMFlag=           0 FMFlg1=           0
         NFxFlg=           0 DoJE=F BraDBF=F KetDBF=F FulRan=T
         wScrn=  0.000000 ICntrl=       600 IOpCl=  0 I1Cent=           0 NGrid=           0
         NMat0=    1 NMatS0=    741 NMatT0=    0 NMatD0=    1 NMtDS0=    0 NMtDT0=    0
 Petite list used in FoFCou.
 Closed shell SCF:
 Using DIIS extrapolation, IDIIS=  1040.
 NGot=  1342177280 LenX=  1342097730 LenY=  1342095608
 Requested convergence on RMS density matrix=1.00D-08 within 128 cycles.
 Requested convergence on MAX density matrix=1.00D-06.
 Requested convergence on             energy=1.00D-06.
 No special actions if energy rises.

 Cycle   1  Pass 1  IDiag  1:
 E= -76.4260666419667    
 DIIS: error= 6.01D-04 at cycle   1 NSaved=   1.
 NSaved= 1 IEnMin= 1 EnMin= -76.4260666419667     IErMin= 1 ErrMin= 6.01D-04
 ErrMax= 6.01D-04  0.00D+00 EMaxC= 1.00D-01 BMatC= 1.19D-05 BMatP= 1.19D-05
 IDIUse=3 WtCom= 9.94D-01 WtEn= 6.01D-03
 Coeff-Com:  0.100D+01
 Coeff-En:   0.100D+01
 Coeff:      0.100D+01
 Gap=     0.362 Goal=   None    Shift=    0.000
 RMSDP=1.02D-04 MaxDP=1.05D-03              OVMax= 1.46D-03

 Cycle   2  Pass 1  IDiag  1:
 E= -76.4260775112525     Delta-E=       -0.000010869286 Rises=F Damp=F
 DIIS: error= 9.67D-05 at cycle   2 NSaved=   2.
 NSaved= 2 IEnMin= 2 EnMin= -76.4260775112525     IErMin= 2 ErrMin= 9.67D-05
 ErrMax= 9.67D-05  0.00D+00 EMaxC= 1.00D-01 BMatC= 1.99D-07 BMatP= 1.19D-05
 IDIUse=1 WtCom= 1.00D+00 WtEn= 0.00D+00
 Coeff-Com: -0.276D-02 0.100D+01
 Coeff:     -0.276D-02 0.100D+01
 Gap=     0.361 Goal=   None    Shift=    0.000
 RMSDP=1.33D-05 MaxDP=1.63D-04 DE=-1.09D-05 OVMax= 2.52D-04

 Cycle   3  Pass 1  IDiag  1:
 E= -76.4260774945703     Delta-E=        0.000000016682 Rises=F Damp=F
 DIIS: error= 6.83D-05 at cycle   3 NSaved=   3.
 NSaved= 3 IEnMin= 2 EnMin= -76.4260775112525     IErMin= 3 ErrMin= 6.83D-05
 ErrMax= 6.83D-05  0.00D+00 EMaxC= 1.00D-01 BMatC= 2.54D-07 BMatP= 1.99D-07
 IDIUse=1 WtCom= 1.00D+00 WtEn= 0.00D+00
 Coeff-Com: -0.158D-01 0.543D+00 0.473D+00
 Coeff:     -0.158D-01 0.543D+00 0.473D+00
 Gap=     0.361 Goal=   None    Shift=    0.000
 RMSDP=8.10D-06 MaxDP=1.20D-04 DE= 1.67D-08 OVMax= 1.35D-04

 Cycle   4  Pass 1  IDiag  1:
 E= -76.4260776666175     Delta-E=       -0.000000172047 Rises=F Damp=F
 DIIS: error= 1.29D-05 at cycle   4 NSaved=   4.
 NSaved= 4 IEnMin= 4 EnMin= -76.4260776666175     IErMin= 4 ErrMin= 1.29D-05
 ErrMax= 1.29D-05  0.00D+00 EMaxC= 1.00D-01 BMatC= 5.83D-09 BMatP= 1.99D-07
 IDIUse=1 WtCom= 1.00D+00 WtEn= 0.00D+00
 Coeff-Com: -0.729D-02 0.141D+00 0.185D+00 0.681D+00
 Coeff:     -0.729D-02 0.141D+00 0.185D+00 0.681D+00
 Gap=     0.361 Goal=   None    Shift=    0.000
 RMSDP=1.09D-06 MaxDP=1.61D-05 DE=-1.72D-07 OVMax= 1.54D-05

 Cycle   5  Pass 1  IDiag  1:
 E= -76.4260776704105     Delta-E=       -0.000000003793 Rises=F Damp=F
 DIIS: error= 7.64D-07 at cycle   5 NSaved=   5.
 NSaved= 5 IEnMin= 5 EnMin= -76.4260776704105     IErMin= 5 ErrMin= 7.64D-07
 ErrMax= 7.64D-07  0.00D+00 EMaxC= 1.00D-01 BMatC= 1.34D-11 BMatP= 5.83D-09
 IDIUse=1 WtCom= 1.00D+00 WtEn= 0.00D+00
 Coeff-Com:  0.350D-04-0.289D-02 0.184D-02 0.499D-01 0.951D+00
 Coeff:      0.350D-04-0.289D-02 0.184D-02 0.499D-01 0.951D+00
 Gap=     0.361 Goal=   None    Shift=    0.000
 RMSDP=9.13D-08 MaxDP=1.11D-06 DE=-3.79D-09 OVMax= 1.97D-06

 Cycle   6  Pass 1  IDiag  1:
 E= -76.4260776704232     Delta-E=       -0.000000000013 Rises=F Damp=F
 DIIS: error= 6.73D-08 at cycle   6 NSaved=   6.
 NSaved= 6 IEnMin= 6 EnMin= -76.4260776704232     IErMin= 6 ErrMin= 6.73D-08
 ErrMax= 6.73D-08  0.00D+00 EMaxC= 1.00D-01 BMatC= 1.16D-13 BMatP= 1.34D-11
 IDIUse=1 WtCom= 1.00D+00 WtEn= 0.00D+00
 Coeff-Com:  0.407D-04-0.114D-02-0.113D-02-0.621D-02 0.110D-01 0.997D+00
 Coeff:      0.407D-04-0.114D-02-0.113D-02-0.621D-02 0.110D-01 0.997D+00
 Gap=     0.361 Goal=   None    Shift=    0.000
 RMSDP=1.07D-08 MaxDP=1.56D-07 DE=-1.27D-11 OVMax= 1.75D-07

 Cycle   7  Pass 1  IDiag  1:
 E= -76.4260776704232     Delta-E=       -0.000000000000 Rises=F Damp=F
 DIIS: error= 6.27D-09 at cycle   7 NSaved=   7.
 NSaved= 7 IEnMin= 7 EnMin= -76.4260776704232     IErMin= 7 ErrMin= 6.27D-09
 ErrMax= 6.27D-09  0.00D+00 EMaxC= 1.00D-01 BMatC= 7.10D-16 BMatP= 1.16D-13
 IDIUse=1 WtCom= 1.00D+00 WtEn= 0.00D+00
 Coeff-Com: -0.277D-05 0.886D-04 0.963D-04 0.245D-03-0.288D-02-0.106D+00
 Coeff-Com:  0.111D+01
 Coeff:     -0.277D-05 0.886D-04 0.963D-04 0.245D-03-0.288D-02-0.106D+00
 Coeff:      0.111D+01
 Gap=     0.361 Goal=   None    Shift=    0.000
 RMSDP=1.20D-09 MaxDP=1.39D-08 DE=-8.53D-14 OVMax= 1.87D-08

 SCF Done:  E(RB3LYP) =  -76.4260776704     A.U. after    7 cycles
            NFock=  7  Conv=0.12D-08     -V/T= 2.0051
 KE= 7.603700615384D+01 PE=-1.991451848470D+02 EE= 3.753322198576D+01
 Leave Link  502 at Sun Sep 24 18:46:11 2023, MaxMem=  1342177280 cpu:               1.5 elap:               0.4
 (Enter /gpfs1/apps/software/Gaussian16/AVX/g16/l701.exe)
 ... and contract with generalized density number  0.
 Compute integral first derivatives.
 Leave Link  701 at Sun Sep 24 18:46:11 2023, MaxMem=  1342177280 cpu:               0.5 elap:               0.1
 (Enter /gpfs1/apps/software/Gaussian16/AVX/g16/l702.exe)
 L702 exits ... SP integral derivatives will be done elsewhere.
 Leave Link  702 at Sun Sep 24 18:46:11 2023, MaxMem=  1342177280 cpu:               0.1 elap:               0.0
 (Enter /gpfs1/apps/software/Gaussian16/AVX/g16/l703.exe)
 Integral derivatives from FoFJK, PRISM(SPDF).
 Compute integral first derivatives, UseDBF=F ICtDFT=           0.
 Calling FoFJK, ICntrl=      2127 FMM=F ISym2X=1 I1Cent= 0 IOpClX= 0 NMat=1 NMatS=1 NMatT=0.
 FoFJK:  IHMeth= 1 ICntrl=    2127 DoSepK=F KAlg= 0 I1Cent=           0 FoldK=F
 IRaf=         0 NMat=       1 IRICut=       1 DoRegI=T DoRafI=F ISym2E= 1 IDoP0=0 IntGTp=1.
 FoFCou: FMM=F IPFlag=           0 FMFlag=      100000 FMFlg1=         800
         NFxFlg=           0 DoJE=F BraDBF=F KetDBF=F FulRan=T
         wScrn=  0.000000 ICntrl=      2127 IOpCl=  0 I1Cent=           0 NGrid=           0
         NMat0=    1 NMatS0=      1 NMatT0=    0 NMatD0=    1 NMtDS0=    0 NMtDT0=    0
 Petite list used in FoFCou.
 Leave Link  703 at Sun Sep 24 18:46:11 2023, MaxMem=  1342177280 cpu:               1.9 elap:               0.5
 (Enter /gpfs1/apps/software/Gaussian16/AVX/g16/l716.exe)
 Dipole        =-4.87760201D-17 0.00000000D+00-7.28967189D-01
 ***** Axes restored to original set *****
 -------------------------------------------------------------------
 Center     Atomic                   Forces (Hartrees/Bohr)
 Number     Number              X              Y              Z
 -------------------------------------------------------------------
      1        8           0.000000000    0.000374817   -0.000000000
      2        1          -0.000044869   -0.000187409    0.000000000
      3        1           0.000044869   -0.000187409    0.000000000
 -------------------------------------------------------------------
 Cartesian Forces:  Max     0.000374817 RMS     0.000154473
 Leave Link  716 at Sun Sep 24 18:46:11 2023, MaxMem=  1342177280 cpu:               0.1 elap:               0.0
 (Enter /gpfs1/apps/software/Gaussian16/AVX/g16/l103.exe)

 GradGradGradGradGradGradGradGradGradGradGradGradGradGradGradGradGradGrad
 Berny optimization.
 Using GEDIIS/GDIIS optimizer.
 FormGI is forming the generalized inverse of G from B-inverse, IUseBI=4.
 Internal  Forces:  Max     0.000318265 RMS     0.000195188
 Search for a local minimum.
 Step number   3 out of a maximum of   20
 All quantities printed in internal units (Hartrees-Bohrs-Radians)
 RMS Force = .19519D-03 SwitMx=.10000D-02 MixMth= 2
 Mixed Optimization -- En-DIIS/RFO-DIIS
 Update second derivatives using D2CorX and points    1    2    3
 DE= -3.31D-05 DEPred=-3.18D-05 R= 1.04D+00
 TightC=F SS=  1.41D+00  RLast= 1.78D-02 DXNew= 5.0454D-01 5.3410D-02
 Trust test= 1.04D+00 RLast= 1.78D-02 DXMaxT set to 3.00D-01
 The second derivative matrix:
                          R1        R2        A1
           R1           0.49543
           R2           0.00053   0.49543
           A1           0.03407   0.03407   0.16905
 ITU=  1  1  0
 Use linear search instead of GDIIS.
     Eigenvalues ---    0.16210   0.49490   0.50292
 RFO step:  Lambda=-1.28484934D-07 EMin= 1.62099104D-01
 Quartic linear search produced a step of  0.10141.
 Iteration  1 RMS(Cart)=  0.00106298 RMS(Int)=  0.00000078
 Iteration  2 RMS(Cart)=  0.00000075 RMS(Int)=  0.00000000
 ITry= 1 IFail=0 DXMaxC= 1.09D-03 DCOld= 1.00D+10 DXMaxT= 3.00D-01 DXLimC= 3.00D+00 Rises=F
 ClnCor:  largest displacement from symmetrization is 7.45D-16 for atom     3.
 Variable       Old X    -DE/DX   Delta X   Delta X   Delta X     New X
                                 (Linear)    (Quad)   (Total)
    R1        1.81839  -0.00008   0.00006  -0.00036  -0.00030   1.81809
    R2        1.81839  -0.00008   0.00006  -0.00036  -0.00030   1.81809
    A1        1.80820   0.00032   0.00180   0.00022   0.00202   1.81022
         Item               Value     Threshold  Converged?
 Maximum Force            0.000318     0.000450     YES
 RMS     Force            0.000195     0.000300     YES
 Maximum Displacement     0.001087     0.001800     YES
 RMS     Displacement     0.001063     0.001200     YES
 Predicted change in Energy=-3.430262D-07
 Optimization completed.
    -- Stationary point found.
                           ----------------------------
                           !   Optimized Parameters   !
                           ! (Angstroms and Degrees)  !
 --------------------------                            --------------------------
 ! Name  Definition              Value          Derivative Info.                !
 --------------------------------------------------------------------------------
 ! R1    R(1,2)                  0.9623         -DE/DX =   -0.0001              !
 ! R2    R(1,3)                  0.9623         -DE/DX =   -0.0001              !
 ! A1    A(2,1,3)              103.6023         -DE/DX =    0.0003              !
 --------------------------------------------------------------------------------
 Lowest energy point so far.  Saving SCF results.
 Largest change from initial coordinates is atom    2       0.034 Angstoms.
 GradGradGradGradGradGradGradGradGradGradGradGradGradGradGradGradGradGrad

 Leave Link  103 at Sun Sep 24 18:46:11 2023, MaxMem=  1342177280 cpu:               0.0 elap:               0.0
 (Enter /gpfs1/apps/software/Gaussian16/AVX/g16/l202.exe)
                          Input orientation:                          
 ---------------------------------------------------------------------
 Center     Atomic      Atomic             Coordinates (Angstroms)
 Number     Number       Type             X           Y           Z
 ---------------------------------------------------------------------
      1          8           0       -0.000000   -0.118659   -0.000000
      2          1           0       -0.756203    0.476390    0.000000
      3          1           0        0.756203    0.476390   -0.000000
 ---------------------------------------------------------------------
                    Distance matrix (angstroms):
                    1          2          3
     1  O    0.000000
     2  H    0.962251   0.000000
     3  H    0.962251   1.512407   0.000000
 Stoichiometry    H2O
 Framework group  C2V[C2(O),SGV(H2)]
 Deg. of freedom     2
 Full point group                 C2V     NOp   4
 RotChk:  IX=0 Diff= 4.71D-16
 Largest Abelian subgroup         C2V     NOp   4
 Largest concise Abelian subgroup C2      NOp   2
                         Standard orientation:                         
 ---------------------------------------------------------------------
 Center     Atomic      Atomic             Coordinates (Angstroms)
 Number     Number       Type             X           Y           Z
 ---------------------------------------------------------------------
      1          8           0       -0.000000    0.000000    0.119010
      2          1           0        0.000000    0.756203   -0.476039
      3          1           0       -0.000000   -0.756203   -0.476039
 ---------------------------------------------------------------------
 Rotational constants (GHZ):         797.3368423         438.4547940         282.8924802
 Leave Link  202 at Sun Sep 24 18:46:11 2023, MaxMem=  1342177280 cpu:               0.0 elap:               0.0
 (Enter /gpfs1/apps/software/Gaussian16/AVX/g16/l601.exe)
 Copying SCF densities to generalized density rwf, IOpCl= 0 IROHF=0.

 **********************************************************************

            Population analysis using the SCF Density.

 **********************************************************************

 Orbital symmetries:
       Occupied  (A1) (A1) (B2) (A1) (B1)
       Virtual   (A1) (B2) (B2) (A1) (A1) (B1) (A2) (A1) (B1) (A1)
                 (B2) (A1) (B2) (B2) (A2) (B1) (B2) (A1) (A1) (A1)
                 (A2) (B1) (A1) (B2) (B1) (A1) (B1) (B2) (A2) (A1)
                 (B2) (A1) (A1)
 The electronic state is 1-A1.
 Alpha  occ. eigenvalues --  -19.12891  -0.99630  -0.51337  -0.37263  -0.29283
 Alpha virt. eigenvalues --    0.06862   0.15314   0.62298   0.68230   0.82840
 Alpha virt. eigenvalues --    0.86425   0.88591   0.91782   0.94823   1.00297
 Alpha virt. eigenvalues --    1.02138   1.70752   2.10560   2.32254   2.46675
 Alpha virt. eigenvalues --    2.55744   2.86079   2.87964   3.05762   4.11473
 Alpha virt. eigenvalues --    4.12181   4.13901   4.44564   4.76932   5.01780
 Alpha virt. eigenvalues --    5.19809   5.40682   5.40905   5.53674   5.80712
 Alpha virt. eigenvalues --    5.87083   6.86487  12.78580
          Condensed to atoms (all electrons):
               1          2          3
     1  O    7.998728   0.295443   0.295443
     2  H    0.295443   0.445135  -0.035385
     3  H    0.295443  -0.035385   0.445135
 Mulliken charges:
               1
     1  O   -0.589614
     2  H    0.294807
     3  H    0.294807
 Sum of Mulliken charges =   0.00000
 Mulliken charges with hydrogens summed into heavy atoms:
               1
     1  O    0.000000
 Electronic spatial extent (au):  <R**2>=             19.0023
 Charge=              0.0000 electrons
 Dipole moment (field-independent basis, Debye):
    X=             -0.0000    Y=              0.0000    Z=             -1.8528  Tot=              1.8528
 Quadrupole moment (field-independent basis, Debye-Ang):
   XX=             -7.1213   YY=             -4.2966   ZZ=             -5.9263
   XY=              0.0000   XZ=              0.0000   YZ=             -0.0000
 Traceless Quadrupole moment (field-independent basis, Debye-Ang):
   XX=             -1.3399   YY=              1.4848   ZZ=             -0.1449
   XY=              0.0000   XZ=              0.0000   YZ=             -0.0000
 Octapole moment (field-independent basis, Debye-Ang**2):
  XXX=              0.0000  YYY=              0.0000  ZZZ=             -0.9225  XYY=             -0.0000
  XXY=              0.0000  XXZ=             -0.2021  XZZ=              0.0000  YZZ=              0.0000
  YYZ=             -1.1596  XYZ=             -0.0000
 Hexadecapole moment (field-independent basis, Debye-Ang**3):
 XXXX=             -5.1297 YYYY=             -6.0439 ZZZZ=             -6.1428 XXXY=             -0.0000
 XXXZ=             -0.0000 YYYX=             -0.0000 YYYZ=             -0.0000 ZZZX=             -0.0000
 ZZZY=             -0.0000 XXYY=             -2.1095 XXZZ=             -1.9268 YYZZ=             -1.7163
 XXYZ=              0.0000 YYXZ=              0.0000 ZZXY=             -0.0000
 N-N= 9.148879036944D+00 E-N=-1.991451847215D+02  KE= 7.603700615384D+01
 Symmetry A1   KE= 6.789076037369D+01
 Symmetry A2   KE= 2.619342683913D-35
 Symmetry B1   KE= 4.578360225811D+00
 Symmetry B2   KE= 3.567885554337D+00
 No NMR shielding tensors so no spin-rotation constants.
 Leave Link  601 at Sun Sep 24 18:46:11 2023, MaxMem=  1342177280 cpu:               0.4 elap:               0.1
 (Enter /gpfs1/apps/software/Gaussian16/AVX/g16/l9999.exe)
 Unable to Open any file for archive entry.
 1\1\GINC-KENNEDY53\FOpt\RB3LYP\GTBas3\H2O1\OSL\24-Sep-2023\0\\#p SCF=(
 DIIS) Symmetry=(Tight) G4\\water_Gaussian4\\0,1\O,0.,-0.1186594123,0.\
 H,-0.7562033882,0.4763897062,0.\H,0.7562033882,0.4763897062,0.\\Versio
 n=ES64L-G16RevC.01\State=1-A1\HF=-76.4260777\RMSD=1.198e-09\RMSF=1.545
 e-04\Dipole=0.,0.7289672,0.\Quadrupole=1.103909,-0.1077348,-0.9961743,
 0.,0.,0.\PG=C02V [C2(O1),SGV(H2)]\\@
 The archive entry for this job was punched.


 ONE OF THE BENEFITS OF A COLLEGE EDUCATION
 IS TO SHOW THE BOY ITS LITTLE AVAIL 
                                    EMERSON IN 'CULTURE'
 Leave Link 9999 at Sun Sep 24 18:46:15 2023, MaxMem=  1342177280 cpu:               0.5 elap:               0.2
 Job cpu time:       0 days  0 hours  0 minutes 26.4 seconds.
 Elapsed time:       0 days  0 hours  0 minutes  7.7 seconds.
 File lengths (MBytes):  RWF=     17 Int=      0 D2E=      0 Chk=      2 Scr=      2
 Normal termination of Gaussian 16 at Sun Sep 24 18:46:15 2023.
 (Enter /gpfs1/apps/software/Gaussian16/AVX/g16/l1.exe)
 Link1:  Proceeding to internal job step number  2.
 ----------------------------------------------------------
 #P Geom=AllCheck Guess=TCheck SCRF=Check B3LYP/GTBas3 Freq
 ----------------------------------------------------------
 1/10=4,29=7,30=1,38=1,40=1/1,3;
 2/12=2,40=1/2;
 3/5=35,11=2,14=-4,25=1,30=1,70=2,71=2,74=-5,116=-2,140=1/1,2,3;
 4/5=101/1;
 5/5=2,22=2,38=6,98=1/2;
 8/6=4,10=90,11=11/1;
 11/6=1,8=1,9=11,15=111,16=1/1,2,10;
 10/6=1/2;
 6/7=2,8=2,9=2,10=2,28=1/1;
 7/8=1,10=1,25=1/1,2,3,16;
 1/10=4,30=1/3;
 99//99;
 Leave Link    1 at Sun Sep 24 18:46:15 2023, MaxMem=  1342177280 cpu:               0.1 elap:               0.0
 (Enter /gpfs1/apps/software/Gaussian16/AVX/g16/l101.exe)
 Structure from the checkpoint file:  "water.chk"
 ---------------
 water_Gaussian4
 ---------------
 Charge =  0 Multiplicity = 1
 Redundant internal coordinates found in file.  (old form).
 O,0,0.,-0.1186594123,0.
 H,0,-0.7562033882,0.4763897062,0.
 H,0,0.7562033882,0.4763897062,0.
 Recover connectivity data from disk.
 ITRead=  0  0  0
 MicOpt= -1 -1 -1
 NAtoms=      3 NQM=        3 NQMF=       0 NMMI=      0 NMMIF=      0
                NMic=       0 NMicF=      0.
                    Isotopes and Nuclear Properties:
 (Nuclear quadrupole moments (NQMom) in fm**2, nuclear magnetic moments (NMagM)
  in nuclear magnetons)

  Atom         1           2           3
 IAtWgt=          16           1           1
 AtmWgt=  15.9949146   1.0078250   1.0078250
 NucSpn=           0           1           1
 AtZEff=   5.6000000   1.0000000   1.0000000
 NQMom=    0.0000000   0.0000000   0.0000000
 NMagM=    0.0000000   2.7928460   2.7928460
 AtZNuc=   8.0000000   1.0000000   1.0000000
 Leave Link  101 at Sun Sep 24 18:46:16 2023, MaxMem=  1342177280 cpu:               1.8 elap:               0.5
 (Enter /gpfs1/apps/software/Gaussian16/AVX/g16/l103.exe)

 GradGradGradGradGradGradGradGradGradGradGradGradGradGradGradGradGradGrad
 Berny optimization.
 Initialization pass.
                           ----------------------------
                           !    Initial Parameters    !
                           ! (Angstroms and Degrees)  !
 --------------------------                            --------------------------
 ! Name  Definition              Value          Derivative Info.                !
 --------------------------------------------------------------------------------
 ! R1    R(1,2)                  0.9623         calculate D2E/DX2 analytically  !
 ! R2    R(1,3)                  0.9623         calculate D2E/DX2 analytically  !
 ! A1    A(2,1,3)              103.6023         calculate D2E/DX2 analytically  !
 --------------------------------------------------------------------------------
 Trust Radius=3.00D-01 FncErr=1.00D-07 GrdErr=1.00D-07 EigMax=2.50D+02 EigMin=1.00D-04
 Number of steps in this run=      2 maximum allowed number of steps=      2.
 GradGradGradGradGradGradGradGradGradGradGradGradGradGradGradGradGradGrad

 Leave Link  103 at Sun Sep 24 18:46:16 2023, MaxMem=  1342177280 cpu:               0.0 elap:               0.0
 (Enter /gpfs1/apps/software/Gaussian16/AVX/g16/l202.exe)
                          Input orientation:                          
 ---------------------------------------------------------------------
 Center     Atomic      Atomic             Coordinates (Angstroms)
 Number     Number       Type             X           Y           Z
 ---------------------------------------------------------------------
      1          8           0       -0.000000   -0.118659   -0.000000
      2          1           0       -0.756203    0.476390    0.000000
      3          1           0        0.756203    0.476390   -0.000000
 ---------------------------------------------------------------------
                    Distance matrix (angstroms):
                    1          2          3
     1  O    0.000000
     2  H    0.962251   0.000000
     3  H    0.962251   1.512407   0.000000
 Stoichiometry    H2O
 Framework group  C2V[C2(O),SGV(H2)]
 Deg. of freedom     2
 Full point group                 C2V     NOp   4
 RotChk:  IX=0 Diff= 9.42D-16
 Largest Abelian subgroup         C2V     NOp   4
 Largest concise Abelian subgroup C2      NOp   2
                         Standard orientation:                         
 ---------------------------------------------------------------------
 Center     Atomic      Atomic             Coordinates (Angstroms)
 Number     Number       Type             X           Y           Z
 ---------------------------------------------------------------------
      1          8           0        0.000000   -0.000000    0.119010
      2          1           0       -0.000000    0.756203   -0.476039
      3          1           0       -0.000000   -0.756203   -0.476039
 ---------------------------------------------------------------------
 Rotational constants (GHZ):         797.3368423         438.4547940         282.8924802
 Leave Link  202 at Sun Sep 24 18:46:16 2023, MaxMem=  1342177280 cpu:               0.0 elap:               0.0
 (Enter /gpfs1/apps/software/Gaussian16/AVX/g16/l301.exe)
 Standard basis: GTBas3 (6D, 7F)
 Ernie: Thresh=  0.10000D-02 Tol=  0.10000D-05 Strict=F.
 There are    18 symmetry adapted cartesian basis functions of A1  symmetry.
 There are     4 symmetry adapted cartesian basis functions of A2  symmetry.
 There are     8 symmetry adapted cartesian basis functions of B1  symmetry.
 There are    11 symmetry adapted cartesian basis functions of B2  symmetry.
 There are    17 symmetry adapted basis functions of A1  symmetry.
 There are     4 symmetry adapted basis functions of A2  symmetry.
 There are     7 symmetry adapted basis functions of B1  symmetry.
 There are    10 symmetry adapted basis functions of B2  symmetry.
    38 basis functions,    58 primitive gaussians,    41 cartesian basis functions
     5 alpha electrons        5 beta electrons
       nuclear repulsion energy         9.1488790369 Hartrees.
 IExCor=  402 DFT=T Ex+Corr=B3LYP ExCW=0 ScaHFX=  0.200000
 ScaDFX=  0.800000  0.720000  1.000000  0.810000 ScalE2=  1.000000  1.000000
 IRadAn=      5 IRanWt=     -1 IRanGd=            0 ICorTp=0 IEmpDi=  4
 NAtoms=    3 NActive=    3 NUniq=    2 SFac= 2.25D+00 NAtFMM=   60 NAOKFM=F Big=F
 Integral buffers will be    131072 words long.
 Raffenetti 2 integral format.
 Two-electron integral symmetry is turned on.
 Leave Link  301 at Sun Sep 24 18:46:16 2023, MaxMem=  1342177280 cpu:               0.2 elap:               0.0
 (Enter /gpfs1/apps/software/Gaussian16/AVX/g16/l302.exe)
 NPDir=0 NMtPBC=     1 NCelOv=     1 NCel=       1 NClECP=     1 NCelD=      1
         NCelK=      1 NCelE2=     1 NClLst=     1 CellRange=     0.0.
 One-electron integrals computed using PRISM.
 One-electron integral symmetry used in STVInt
 NBasis=    38 RedAO= T EigKep=  1.64D-03  NBF=    17     4     7    10
 NBsUse=    38 1.00D-06 EigRej= -1.00D+00 NBFU=    17     4     7    10
 Precomputing XC quadrature grid using
 IXCGrd= 4 IRadAn=           5 IRanWt=          -1 IRanGd=           0 AccXCQ= 0.00D+00.
 Generated NRdTot=       0 NPtTot=           0 NUsed=           0 NTot=          32
 NSgBfM=    41    41    41    41    41 MxSgAt=     3 MxSgA2=     3.
 Leave Link  302 at Sun Sep 24 18:46:16 2023, MaxMem=  1342177280 cpu:               0.5 elap:               0.1
 (Enter /gpfs1/apps/software/Gaussian16/AVX/g16/l303.exe)
 DipDrv:  MaxL=1.
 Leave Link  303 at Sun Sep 24 18:46:16 2023, MaxMem=  1342177280 cpu:               0.1 elap:               0.0
 (Enter /gpfs1/apps/software/Gaussian16/AVX/g16/l401.exe)
 Initial guess from the checkpoint file:  "water.chk"
 B after Tr=     0.000000    0.000000   -0.000000
         Rot=    1.000000   -0.000000    0.000000   -0.000000 Ang=   0.00 deg.
 Guess basis will be translated and rotated to current coordinates.
 JPrj=2 DoOrth=T DoCkMO=T.
 Initial guess orbital symmetries:
       Occupied  (A1) (A1) (B2) (A1) (B1)
       Virtual   (A1) (B2) (B2) (A1) (A1) (B1) (A2) (A1) (B1) (A1)
                 (B2) (A1) (B2) (B2) (A2) (B1) (B2) (A1) (A1) (A1)
                 (A2) (B1) (A1) (B2) (B1) (A1) (B1) (B2) (A2) (A1)
                 (B2) (A1) (A1)
 The electronic state of the initial guess is 1-A1.
 Leave Link  401 at Sun Sep 24 18:46:16 2023, MaxMem=  1342177280 cpu:               0.3 elap:               0.1
 (Enter /gpfs1/apps/software/Gaussian16/AVX/g16/l502.exe)
 Keep R1 ints in memory in symmetry-blocked form, NReq=3735352.
 FoFCou: FMM=F IPFlag=           0 FMFlag=           0 FMFlg1=           0
         NFxFlg=           0 DoJE=F BraDBF=F KetDBF=F FulRan=T
         wScrn=  0.000000 ICntrl=       600 IOpCl=  0 I1Cent=           0 NGrid=           0
         NMat0=    1 NMatS0=    741 NMatT0=    0 NMatD0=    1 NMtDS0=    0 NMtDT0=    0
 Petite list used in FoFCou.
 Closed shell SCF:
 Using DIIS extrapolation, IDIIS=  1040.
 NGot=  1342177280 LenX=  1342097730 LenY=  1342095608
 Requested convergence on RMS density matrix=1.00D-08 within 128 cycles.
 Requested convergence on MAX density matrix=1.00D-06.
 Requested convergence on             energy=1.00D-06.
 No special actions if energy rises.

 Cycle   1  Pass 1  IDiag  1:
 E= -76.4260776704234    
 DIIS: error= 1.73D-10 at cycle   1 NSaved=   1.
 NSaved= 1 IEnMin= 1 EnMin= -76.4260776704234     IErMin= 1 ErrMin= 1.73D-10
 ErrMax= 1.73D-10  0.00D+00 EMaxC= 1.00D-01 BMatC= 1.28D-18 BMatP= 1.28D-18
 IDIUse=1 WtCom= 1.00D+00 WtEn= 0.00D+00
 Coeff-Com:  0.100D+01
 Coeff:      0.100D+01
 Gap=     0.361 Goal=   None    Shift=    0.000
 Skip diagonalization as Alpha Fock matrix is already diagonal.
 RMSDP=0.00D+00 MaxDP=0.00D+00              OVMax= 0.00D+00

 SCF Done:  E(RB3LYP) =  -76.4260776704     A.U. after    1 cycles
            NFock=  1  Conv=0.00D+00     -V/T= 2.0051
 KE= 7.603700615384D+01 PE=-1.991451847215D+02 EE= 3.753322186025D+01
 Leave Link  502 at Sun Sep 24 18:46:17 2023, MaxMem=  1342177280 cpu:               1.0 elap:               0.2
 (Enter /gpfs1/apps/software/Gaussian16/AVX/g16/l801.exe)
 DoSCS=F DFT=T ScalE2(SS,OS)=  1.000000  1.000000
 Range of M.O.s used for correlation:     1    38
 NBasis=    38 NAE=     5 NBE=     5 NFC=     0 NFV=     0
 NROrb=     38 NOA=     5 NOB=     5 NVA=    33 NVB=    33

 **** Warning!!: The largest alpha MO coefficient is  0.17753861D+02

 Leave Link  801 at Sun Sep 24 18:46:21 2023, MaxMem=  1342177280 cpu:               0.1 elap:               0.2
 (Enter /gpfs1/apps/software/Gaussian16/AVX/g16/l1101.exe)
 Using compressed storage, NAtomX=     3.
 Will process      4 centers per pass.
 Leave Link 1101 at Sun Sep 24 18:46:24 2023, MaxMem=  1342177280 cpu:               0.5 elap:               0.1
 (Enter /gpfs1/apps/software/Gaussian16/AVX/g16/l1102.exe)
 Symmetrizing basis deriv contribution to polar:
 IMax=3 JMax=2 DiffMx= 0.00D+00
 Leave Link 1102 at Sun Sep 24 18:46:28 2023, MaxMem=  1342177280 cpu:               1.4 elap:               0.5
 (Enter /gpfs1/apps/software/Gaussian16/AVX/g16/l1110.exe)
 Forming Gx(P) for the SCF density, NAtomX=     3.
 Integral derivatives from FoFJK, PRISM(SPDF).
 Do as many integral derivatives as possible in FoFJK.
 G2DrvN: MDV=    1342176847.
 G2DrvN: will do     4 centers at a time, making    1 passes.
 Calling FoFCou, ICntrl=  3107 FMM=F I1Cent=   0 AccDes= 0.00D+00.
 FoFJK:  IHMeth= 1 ICntrl=    3107 DoSepK=F KAlg= 0 I1Cent=           0 FoldK=F
 IRaf=         0 NMat=       1 IRICut=       1 DoRegI=T DoRafI=F ISym2E= 1 IDoP0=0 IntGTp=1.
 FoFCou: FMM=F IPFlag=           0 FMFlag=      100000 FMFlg1=           0
         NFxFlg=           0 DoJE=F BraDBF=F KetDBF=F FulRan=T
         wScrn=  0.000000 ICntrl=      3107 IOpCl=  0 I1Cent=           0 NGrid=           0
         NMat0=    1 NMatS0=      1 NMatT0=    0 NMatD0=    1 NMtDS0=    0 NMtDT0=    0
 Petite list used in FoFCou.
 End of G2Drv F.D. properties file   721 does not exist.
 End of G2Drv F.D. properties file   722 does not exist.
 End of G2Drv F.D. properties file   788 does not exist.
 Leave Link 1110 at Sun Sep 24 18:46:34 2023, MaxMem=  1342177280 cpu:               4.8 elap:               2.0
 (Enter /gpfs1/apps/software/Gaussian16/AVX/g16/l1002.exe)
 Minotr:  Closed shell wavefunction.
          IDoAtm=111
          Direct CPHF calculation.
          Differentiating once with respect to electric field.
                with respect to dipole field.
          Differentiating once with respect to nuclear coordinates.
          Using symmetry in CPHF.
          Requested convergence is 1.0D-08 RMS, and 1.0D-07 maximum.
          Secondary convergence is 1.0D-12 RMS, and 1.0D-12 maximum.
          NewPWx=T KeepS1=F KeepF1=F KeepIn=T MapXYZ=F SortEE=F KeepMc=T.
          874 words used for storage of precomputed grid.
 Keep R1 ints in memory in symmetry-blocked form, NReq=3724245.
 FoFCou: FMM=F IPFlag=           0 FMFlag=           0 FMFlg1=           0
         NFxFlg=           0 DoJE=F BraDBF=F KetDBF=F FulRan=T
         wScrn=  0.000000 ICntrl=       600 IOpCl=  0 I1Cent=           0 NGrid=           0
         NMat0=    1 NMatS0=    741 NMatT0=    0 NMatD0=    1 NMtDS0=    0 NMtDT0=    0
 Petite list used in FoFCou.
          MDV=    1342177280 using IRadAn=       1.
          Solving linear equations simultaneously, MaxMat=       0.
          There are     9 degrees of freedom in the 1st order CPHF.  IDoFFX=4 NUNeed=     9.
[...]
 Number     Number       Type             X           Y           Z
 ---------------------------------------------------------------------
      1          8           0       -0.000000   -0.118659   -0.000000
      2          1           0       -0.756203    0.476390    0.000000
      3          1           0        0.756203    0.476390   -0.000000
 ---------------------------------------------------------------------
                    Distance matrix (angstroms):
                    1          2          3
     1  O    0.000000
     2  H    0.962251   0.000000
     3  H    0.962251   1.512407   0.000000
 Stoichiometry    H2O
 Framework group  C2V[C2(O),SGV(H2)]
 Deg. of freedom     2
 Full point group                 C2V     NOp   4
 RotChk:  IX=0 Diff= 2.36D-16
 Largest Abelian subgroup         C2V     NOp   4
 Largest concise Abelian subgroup C2      NOp   2
                         Standard orientation:                         
 ---------------------------------------------------------------------
 Center     Atomic      Atomic             Coordinates (Angstroms)
 Number     Number       Type             X           Y           Z
 ---------------------------------------------------------------------
      1          8           0        0.000000    0.000000    0.119010
      2          1           0       -0.000000    0.756203   -0.476039
      3          1           0       -0.000000   -0.756203   -0.476039
 ---------------------------------------------------------------------
 Rotational constants (GHZ):         797.3368423         438.4547940         282.8924802
 Leave Link  202 at Sun Sep 24 18:46:56 2023, MaxMem=  1342177280 cpu:               0.0 elap:               0.0
 (Enter /gpfs1/apps/software/Gaussian16/AVX/g16/l301.exe)
 Standard basis: GFHFB2 (5D, 7F)
 Ernie: Thresh=  0.10000D-02 Tol=  0.10000D-05 Strict=F.
 Ernie:  4 primitive shells out of 70 were deleted.
 There are    71 symmetry adapted cartesian basis functions of A1  symmetry.
 There are    23 symmetry adapted cartesian basis functions of A2  symmetry.
 There are    38 symmetry adapted cartesian basis functions of B1  symmetry.
 There are    50 symmetry adapted cartesian basis functions of B2  symmetry.
 There are    53 symmetry adapted basis functions of A1  symmetry.
 There are    20 symmetry adapted basis functions of A2  symmetry.
 There are    30 symmetry adapted basis functions of B1  symmetry.
 There are    40 symmetry adapted basis functions of B2  symmetry.
   143 basis functions,   211 primitive gaussians,   182 cartesian basis functions
     5 alpha electrons        5 beta electrons
       nuclear repulsion energy         9.1488790369 Hartrees.
 IExCor=    0 DFT=F Ex=HF Corr=None ExCW=0 ScaHFX=  1.000000
 ScaDFX=  1.000000  1.000000  1.000000  1.000000 ScalE2=  1.000000  1.000000
 IRadAn=      5 IRanWt=     -1 IRanGd=            0 ICorTp=0 IEmpDi=  4
 NAtoms=    3 NActive=    3 NUniq=    2 SFac= 2.25D+00 NAtFMM=   60 NAOKFM=F Big=F
 Integral buffers will be    131072 words long.
 Raffenetti 1 integral format.
 Two-electron integral symmetry is turned on.
 Leave Link  301 at Sun Sep 24 18:46:56 2023, MaxMem=  1342177280 cpu:               0.2 elap:               0.0
 (Enter /gpfs1/apps/software/Gaussian16/AVX/g16/l302.exe)
 NPDir=0 NMtPBC=     1 NCelOv=     1 NCel=       1 NClECP=     1 NCelD=      1
         NCelK=      1 NCelE2=     1 NClLst=     1 CellRange=     0.0.
 One-electron integrals computed using PRISM.
 One-electron integral symmetry used in STVInt
 NBasis=   143 RedAO= T EigKep=  1.31D-04  NBF=    53    20    30    40
 NBsUse=   143 1.00D-06 EigRej= -1.00D+00 NBFU=    53    20    30    40
 Leave Link  302 at Sun Sep 24 18:46:56 2023, MaxMem=  1342177280 cpu:               0.8 elap:               0.2
 (Enter /gpfs1/apps/software/Gaussian16/AVX/g16/l303.exe)
 DipDrv:  MaxL=1.
 Leave Link  303 at Sun Sep 24 18:46:56 2023, MaxMem=  1342177280 cpu:               0.2 elap:               0.0
 (Enter /gpfs1/apps/software/Gaussian16/AVX/g16/l401.exe)
 Initial guess from the checkpoint file:  "water.chk"
 B after Tr=    -0.000000    0.000000   -0.000000
         Rot=    1.000000   -0.000000    0.000000    0.000000 Ang=   0.00 deg.
 Guess basis will be translated and rotated to current coordinates.
 JPrj=2 DoOrth=T DoCkMO=T.
 Initial guess orbital symmetries:
       Occupied  (A1) (A1) (B2) (A1) (B1)
       Virtual   (A1) (B2) (A1) (B1) (B2) (A1) (B2) (A1) (A1) (B2)
                 (B1) (A1) (A2) (B1) (A1) (B2) (A1) (B2) (B2) (B1)
                 (A2) (A1) (A1) (A1) (B2) (B1) (B1) (A1) (A1) (A2)
                 (B2) (B1) (B2) (A1) (B2) (A2) (A1) (B2) (A1) (A2)
                 (A1) (B1) (B2) (B1) (A1) (A2) (A1) (B1) (B2) (B2)
                 (A1) (B2) (B1) (A2) (A1) (B2) (A1) (A1) (B2) (B1)
                 (A1) (A2) (A1) (B2) (A2) (B1) (B1) (B2) (A1) (A1)
                 (B2) (B1) (A1) (B1) (A2) (B2) (A1) (B2) (B1) (A2)
                 (A1) (A1) (B2) (A1) (A1) (A1) (A1) (A1) (A1) (A1)
                 (A1) (A1) (A1) (A1) (A1) (A1) (A1) (A1) (A1) (A1)
                 (A1) (A1) (A2) (A2) (A2) (A2) (A2) (A2) (A2) (A2)
                 (A2) (B1) (B1) (B1) (B1) (B1) (B1) (B1) (B1) (B1)
                 (B1) (B1) (B1) (B2) (B2) (B2) (B2) (B2) (B2) (B2)
                 (B2) (B2) (B2) (B2) (B2) (B2) (B2) (B2)
 The electronic state of the initial guess is 1-A1.
 Leave Link  401 at Sun Sep 24 18:46:56 2023, MaxMem=  1342177280 cpu:               0.5 elap:               0.1
 (Enter /gpfs1/apps/software/Gaussian16/AVX/g16/l502.exe)
 Keep R1 ints in memory in symmetry-blocked form, NReq=69547314.
 FoFCou: FMM=F IPFlag=           0 FMFlag=           0 FMFlg1=           0
         NFxFlg=           0 DoJE=F BraDBF=F KetDBF=F FulRan=T
         wScrn=  0.000000 ICntrl=       600 IOpCl=  0 I1Cent=           0 NGrid=           0
         NMat0=    1 NMatS0=  10296 NMatT0=    0 NMatD0=    1 NMtDS0=    0 NMtDT0=    0
 Petite list used in FoFCou.
 Closed shell SCF:
 Using DIIS extrapolation, IDIIS=  1040.
 NGot=  1342177280 LenX=  1328687465 LenY=  1328653900
 Requested convergence on RMS density matrix=1.00D-08 within 128 cycles.
 Requested convergence on MAX density matrix=1.00D-06.
 Requested convergence on             energy=1.00D-06.
 No special actions if energy rises.

 Cycle   1  Pass 1  IDiag  1:
 E= -76.0663098194675    
 DIIS: error= 4.59D-03 at cycle   1 NSaved=   1.
 NSaved= 1 IEnMin= 1 EnMin= -76.0663098194675     IErMin= 1 ErrMin= 4.59D-03
 ErrMax= 4.59D-03  0.00D+00 EMaxC= 1.00D-01 BMatC= 1.29D-03 BMatP= 1.29D-03
 IDIUse=3 WtCom= 9.54D-01 WtEn= 4.59D-02
 Coeff-Com:  0.100D+01
 Coeff-En:   0.100D+01
 Coeff:      0.100D+01
 Gap=     0.609 Goal=   None    Shift=    0.000
 GapD=    0.609 DampG=2.000 DampE=1.000 DampFc=2.0000 IDamp=-1.
 RMSDP=3.81D-04 MaxDP=8.87D-03              OVMax= 3.70D-03

 Cycle   2  Pass 1  IDiag  1:
 E= -76.0666477161202     Delta-E=       -0.000337896653 Rises=F Damp=F
 DIIS: error= 3.52D-04 at cycle   2 NSaved=   2.
 NSaved= 2 IEnMin= 2 EnMin= -76.0666477161202     IErMin= 2 ErrMin= 3.52D-04
 ErrMax= 3.52D-04  0.00D+00 EMaxC= 1.00D-01 BMatC= 5.15D-06 BMatP= 1.29D-03
 IDIUse=3 WtCom= 9.96D-01 WtEn= 3.52D-03
 Coeff-Com: -0.542D-01 0.105D+01
 Coeff-En:   0.000D+00 0.100D+01
 Coeff:     -0.540D-01 0.105D+01
 Gap=     0.598 Goal=   None    Shift=    0.000
 RMSDP=3.64D-05 MaxDP=1.12D-03 DE=-3.38D-04 OVMax= 6.43D-04

 Cycle   3  Pass 1  IDiag  1:
 E= -76.0666513858294     Delta-E=       -0.000003669709 Rises=F Damp=F
 DIIS: error= 3.28D-05 at cycle   3 NSaved=   3.
 NSaved= 3 IEnMin= 3 EnMin= -76.0666513858294     IErMin= 3 ErrMin= 3.28D-05
 ErrMax= 3.28D-05  0.00D+00 EMaxC= 1.00D-01 BMatC= 5.64D-08 BMatP= 5.15D-06
 IDIUse=1 WtCom= 1.00D+00 WtEn= 0.00D+00
 Coeff-Com:  0.624D-02-0.143D+00 0.114D+01
 Coeff:      0.624D-02-0.143D+00 0.114D+01
 Gap=     0.598 Goal=   None    Shift=    0.000
 RMSDP=4.56D-06 MaxDP=1.39D-04 DE=-3.67D-06 OVMax= 1.43D-04

 Cycle   4  Pass 1  IDiag  1:
 E= -76.0666514998384     Delta-E=       -0.000000114009 Rises=F Damp=F
 DIIS: error= 1.20D-05 at cycle   4 NSaved=   4.
 NSaved= 4 IEnMin= 4 EnMin= -76.0666514998384     IErMin= 4 ErrMin= 1.20D-05
 ErrMax= 1.20D-05  0.00D+00 EMaxC= 1.00D-01 BMatC= 3.70D-09 BMatP= 5.64D-08
 IDIUse=1 WtCom= 1.00D+00 WtEn= 0.00D+00
 Coeff-Com: -0.387D-03 0.130D-01-0.249D+00 0.124D+01
 Coeff:     -0.387D-03 0.130D-01-0.249D+00 0.124D+01
 Gap=     0.598 Goal=   None    Shift=    0.000
 RMSDP=5.61D-07 MaxDP=1.46D-05 DE=-1.14D-07 OVMax= 4.09D-05

 Cycle   5  Pass 1  IDiag  1:
 E= -76.0666515080615     Delta-E=       -0.000000008223 Rises=F Damp=F
 DIIS: error= 3.73D-06 at cycle   5 NSaved=   5.
 NSaved= 5 IEnMin= 5 EnMin= -76.0666515080615     IErMin= 5 ErrMin= 3.73D-06
 ErrMax= 3.73D-06  0.00D+00 EMaxC= 1.00D-01 BMatC= 2.95D-10 BMatP= 3.70D-09
 IDIUse=1 WtCom= 1.00D+00 WtEn= 0.00D+00
 Coeff-Com: -0.433D-03 0.949D-02-0.615D-01-0.391D-01 0.109D+01
 Coeff:     -0.433D-03 0.949D-02-0.615D-01-0.391D-01 0.109D+01
 Gap=     0.598 Goal=   None    Shift=    0.000
 RMSDP=1.56D-07 MaxDP=3.72D-06 DE=-8.22D-09 OVMax= 1.13D-05

 Cycle   6  Pass 1  IDiag  1:
 E= -76.0666515086518     Delta-E=       -0.000000000590 Rises=F Damp=F
 DIIS: error= 1.46D-06 at cycle   6 NSaved=   6.
 NSaved= 6 IEnMin= 6 EnMin= -76.0666515086518     IErMin= 6 ErrMin= 1.46D-06
 ErrMax= 1.46D-06  0.00D+00 EMaxC= 1.00D-01 BMatC= 5.04D-11 BMatP= 2.95D-10
 IDIUse=1 WtCom= 1.00D+00 WtEn= 0.00D+00
 Coeff-Com: -0.531D-04 0.797D-03 0.915D-02-0.122D+00 0.263D+00 0.849D+00
 Coeff:     -0.531D-04 0.797D-03 0.915D-02-0.122D+00 0.263D+00 0.849D+00
 Gap=     0.598 Goal=   None    Shift=    0.000
 RMSDP=4.19D-08 MaxDP=9.94D-07 DE=-5.90D-10 OVMax= 4.57D-06

 Cycle   7  Pass 1  IDiag  1:
 E= -76.0666515087124     Delta-E=       -0.000000000061 Rises=F Damp=F
 DIIS: error= 3.27D-07 at cycle   7 NSaved=   7.
 NSaved= 7 IEnMin= 7 EnMin= -76.0666515087124     IErMin= 7 ErrMin= 3.27D-07
 ErrMax= 3.27D-07  0.00D+00 EMaxC= 1.00D-01 BMatC= 3.27D-12 BMatP= 5.04D-11
 IDIUse=1 WtCom= 1.00D+00 WtEn= 0.00D+00
 Coeff-Com:  0.420D-04-0.927D-03 0.622D-02 0.167D-02-0.118D+00 0.467D-01
 Coeff-Com:  0.106D+01
 Coeff:      0.420D-04-0.927D-03 0.622D-02 0.167D-02-0.118D+00 0.467D-01
 Coeff:      0.106D+01
 Gap=     0.598 Goal=   None    Shift=    0.000
 RMSDP=1.61D-08 MaxDP=3.51D-07 DE=-6.06D-11 OVMax= 1.29D-06

 Cycle   8  Pass 1  IDiag  1:
 E= -76.0666515087186     Delta-E=       -0.000000000006 Rises=F Damp=F
 DIIS: error= 5.78D-08 at cycle   8 NSaved=   8.
 NSaved= 8 IEnMin= 8 EnMin= -76.0666515087186     IErMin= 8 ErrMin= 5.78D-08
 ErrMax= 5.78D-08  0.00D+00 EMaxC= 1.00D-01 BMatC= 1.19D-13 BMatP= 3.27D-12
 IDIUse=1 WtCom= 1.00D+00 WtEn= 0.00D+00
 Coeff-Com: -0.102D-04 0.245D-03-0.242D-02 0.610D-02 0.187D-01-0.439D-01
 Coeff-Com: -0.336D+00 0.136D+01
 Coeff:     -0.102D-04 0.245D-03-0.242D-02 0.610D-02 0.187D-01-0.439D-01
 Coeff:     -0.336D+00 0.136D+01
 Gap=     0.598 Goal=   None    Shift=    0.000
 RMSDP=3.51D-09 MaxDP=8.80D-08 DE=-6.20D-12 OVMax= 3.71D-07

 SCF Done:  E(RHF) =  -76.0666515087     A.U. after    8 cycles
            NFock=  8  Conv=0.35D-08     -V/T= 2.0011
 KE= 7.598148263853D+01 PE=-1.989627453029D+02 EE= 3.776573211873D+01
 Leave Link  502 at Sun Sep 24 18:47:01 2023, MaxMem=  1342177280 cpu:              18.6 elap:               4.7
 (Enter /gpfs1/apps/software/Gaussian16/AVX/g16/l601.exe)
 Copying SCF densities to generalized density rwf, IOpCl= 0 IROHF=0.

 **********************************************************************

            Population analysis using the SCF Density.

 **********************************************************************

 Orbital symmetries:
       Occupied  (A1) (A1) (B2) (A1) (B1)
       Virtual   (A1) (B2) (A1) (B1) (B2) (A1) (A1) (B2) (A1) (B1)
                 (B2) (A1) (A2) (B1) (A1) (B2) (A1) (B2) (A1) (B2)
                 (A2) (B1) (A1) (A1) (B2) (B1) (A1) (B2) (B1) (A1)
                 (A2) (B1) (B2) (A1) (B2) (A2) (A1) (B2) (A1) (B1)
                 (A2) (A1) (B2) (B1) (A2) (A1) (B2) (B1) (A1) (B2)
                 (A1) (B2) (B1) (A1) (A2) (B2) (A1) (B2) (A1) (B1)
                 (A1) (B1) (A1) (A2) (B2) (A1) (A2) (B2) (B1) (B2)
                 (A1) (B1) (A2) (A1) (B1) (A1) (B2) (B2) (A2) (B1)
                 (A1) (B2) (B1) (A2) (A1) (B2) (B1) (A2) (A1) (A1)
                 (B2) (A1) (A1) (B2) (B1) (A2) (B2) (A1) (B2) (A1)
                 (B1) (A1) (B1) (B2) (A2) (B2) (A1) (B2) (B1) (A1)
                 (A2) (B2) (B1) (A1) (A1) (B2) (B1) (A1) (A2) (A1)
                 (B2) (A2) (B1) (B1) (A1) (B1) (B2) (A2) (A1) (B2)
                 (A1) (B1) (A2) (A1) (B2) (A1) (B2) (A1)
 The electronic state is 1-A1.
 Alpha  occ. eigenvalues --  -20.56513  -1.35063  -0.71317  -0.58565  -0.51032
 Alpha virt. eigenvalues --    0.08729   0.09565   0.10332   0.11365   0.19607
 Alpha virt. eigenvalues --    0.24557   0.40603   0.43182   0.48191   0.51188
 Alpha virt. eigenvalues --    0.51301   0.58634   0.65125   0.71060   0.82377
 Alpha virt. eigenvalues --    0.89737   0.97619   1.00883   1.09744   1.12816
 Alpha virt. eigenvalues --    1.23340   1.23412   1.33792   1.41569   1.43966
 Alpha virt. eigenvalues --    1.67839   1.93046   2.02708   2.03993   2.10827
 Alpha virt. eigenvalues --    2.21175   2.33447   2.39289   2.44692   2.45913
 Alpha virt. eigenvalues --    2.52428   2.58035   2.60150   2.62614   2.75309
 Alpha virt. eigenvalues --    2.76919   2.82500   2.98408   3.01315   3.03041
 Alpha virt. eigenvalues --    3.05545   3.15228   3.16447   3.24447   3.35150
 Alpha virt. eigenvalues --    3.44172   3.66176   3.91272   4.16555   4.17614
 Alpha virt. eigenvalues --    4.23921   4.27627   4.60425   4.64969   5.09163
 Alpha virt. eigenvalues --    6.10717   6.13925   6.20713   6.37299   6.38268
 Alpha virt. eigenvalues --    6.55442   6.62862   6.69250   6.75809   6.85745
 Alpha virt. eigenvalues --    7.09350   7.12313   7.21416   7.22826   7.33639
 Alpha virt. eigenvalues --    7.38617   7.52434   7.63007   8.15119   8.19789
 Alpha virt. eigenvalues --    8.30108   8.37171   8.48447   8.55497   8.58771
 Alpha virt. eigenvalues --    8.65176   8.68156   8.85029   8.85925   9.11435
 Alpha virt. eigenvalues --    9.31406   9.58528   9.94701  10.14894  10.17868
 Alpha virt. eigenvalues --   10.29845  10.47268  10.80474  10.83341  11.62900
 Alpha virt. eigenvalues --   14.25757  14.30957  14.47670  14.57237  14.61719
 Alpha virt. eigenvalues --   14.94845  15.33100  15.50382  15.52811  15.62294
 Alpha virt. eigenvalues --   15.68830  16.12805  16.21582  16.40516  17.80913
 Alpha virt. eigenvalues --   18.43672  18.58117  18.63037  18.73421  18.81813
 Alpha virt. eigenvalues --   19.04781  19.10417  19.16313  19.22864  19.31382
 Alpha virt. eigenvalues --   19.51091  19.58833  19.61620  19.66561  19.88087
 Alpha virt. eigenvalues --   22.18355  22.25647  22.42074  22.50333  22.56945
 Alpha virt. eigenvalues --   23.39923  23.88528  62.04829
          Condensed to atoms (all electrons):
               1          2          3
     1  O    8.117928   0.288387   0.288387
     2  H    0.288387   0.361090   0.003172
     3  H    0.288387   0.003172   0.361090
 Mulliken charges:
               1
     1  O   -0.694702
     2  H    0.347351
     3  H    0.347351
 Sum of Mulliken charges =   0.00000
 Mulliken charges with hydrogens summed into heavy atoms:
               1
     1  O    0.000000
 Electronic spatial extent (au):  <R**2>=             19.5157
 Charge=              0.0000 electrons
 Dipole moment (field-independent basis, Debye):
    X=             -0.0000    Y=              0.0000    Z=             -2.0300  Tot=              2.0300
 Quadrupole moment (field-independent basis, Debye-Ang):
   XX=             -7.5506   YY=             -4.2702   ZZ=             -6.2140
   XY=              0.0000   XZ=              0.0000   YZ=             -0.0000
 Traceless Quadrupole moment (field-independent basis, Debye-Ang):
   XX=             -1.5390   YY=              1.7414   ZZ=             -0.2024
   XY=              0.0000   XZ=              0.0000   YZ=             -0.0000
 Octapole moment (field-independent basis, Debye-Ang**2):
  XXX=              0.0000  YYY=             -0.0000  ZZZ=             -1.2528  XYY=             -0.0000
  XXY=              0.0000  XXZ=             -0.3056  XZZ=             -0.0000  YZZ=              0.0000
  YYZ=             -1.4211  XYZ=             -0.0000
 Hexadecapole moment (field-independent basis, Debye-Ang**3):
 XXXX=             -6.7077 YYYY=             -5.9993 ZZZZ=             -7.2593 XXXY=             -0.0000
 XXXZ=             -0.0000 YYYX=              0.0000 YYYZ=              0.0000 ZZZX=             -0.0000
 ZZZY=              0.0000 XXYY=             -2.4422 XXZZ=             -2.3859 YYZZ=             -1.8384
 XXYZ=              0.0000 YYXZ=              0.0000 ZZXY=              0.0000
 N-N= 9.148879036944D+00 E-N=-1.989627453780D+02  KE= 7.598148263853D+01
 Symmetry A1   KE= 6.792300798726D+01
 Symmetry A2   KE=-5.666390577485D-20
 Symmetry B1   KE= 4.481748136979D+00
 Symmetry B2   KE= 3.576726514291D+00
 No NMR shielding tensors so no spin-rotation constants.
 Leave Link  601 at Sun Sep 24 18:47:02 2023, MaxMem=  1342177280 cpu:               1.5 elap:               0.4
 (Enter /gpfs1/apps/software/Gaussian16/AVX/g16/l9999.exe)
 Unable to Open any file for archive entry.
 1\1\GINC-KENNEDY53\SP\RHF\GFHFB2\H2O1\OSL\24-Sep-2023\0\\#P Geom=AllCh
 eck Guess=TCheck SCRF=Check HF/GFHFB2 SCF=Tight\\water_Gaussian4\\0,1\
 O,0,0.,-0.1186594123,0.\H,0,-0.7562033882,0.4763897062,0.\H,0,0.756203
 3882,0.4763897062,0.\\Version=ES64L-G16RevC.01\State=1-A1\HF=-76.06665
 15\RMSD=3.506e-09\Dipole=0.,0.798652,0.\Quadrupole=1.2946892,-0.150480
 7,-1.1442085,0.,0.,0.\PG=C02V [C2(O1),SGV(H2)]\\@
 The archive entry for this job was punched.


 Time has a wonderful way of weeding out the trivial.
                                -- Richard Ben Sapir
 Diagonal vibrational polarizability:
        0.0000000       0.0000000       0.0000000
 
 Temperature=              298.150000 Pressure=                      1.000000
 E(ZPE)=                     0.021059 E(Thermal)=                    0.023894
 E(CCSD(T))=               -76.207702 E(Empiric)=                   -0.027788
 DE(Plus)=                  -0.012883 DE(2DF)=                      -0.074802
 E(Delta-G3XP)=             -0.085401 DE(HF)=                       -0.009735
 G4(0 K)=                  -76.397252 G4 Energy=                   -76.394417
 G4 Enthalpy=              -76.393473 G4 Free Energy=              -76.414901
 Unable to Open any file for archive entry.
 1\1\GINC-KENNEDY53\Mixed\G4\G4\H2O1\OSL\24-Sep-2023\0\\#p SCF=(DIIS) S
 ymmetry=(Tight) G4\\water_Gaussian4\\0,1\O,0,0.,-0.1186594123,0.\H,0,-
 0.7562033882,0.4763897062,0.\H,0,0.7562033882,0.4763897062,0.\\Version
 =ES64L-G16RevC.01\State=1-A1\MP2/GTBas1=-76.1967602\MP4/GTBas1=-76.207
 2032\CCSD(T)/G3Bas1=-76.2077024\MP2/GTBas2=-76.2095141\MP4/GTBas2=-76.
 2200862\MP2/GTBas3=-76.2672998\MP4/GTBas3=-76.2820048\HF/GTLargeXP=-76
 .0573501\MP2/GTLargeXP=-76.3654547\HF/GFHFB1=-76.0648719\HF/GFHFB2=-76
 .0666515\G4=-76.3972521\FreqCoord=0.,-0.2242337914,0.,-1.4290172982,0.
 9002460732,0.,1.4290172982,0.9002460732,0.\PG=C02V [C2(O1),SGV(H2)]\NI
 mag=0\\0.66688162,0.,0.45900712,0.,0.,0.00036812,-0.33344081,0.1986840
 9,0.,0.36659722,0.26224004,-0.22950356,0.,-0.23046206,0.21791744,0.,0.
 ,-0.00018406,0.,0.,0.00008522,-0.33344081,-0.19868409,0.,-0.03315641,-
 0.03177797,0.,0.36659722,-0.26224004,-0.22950356,0.,0.03177797,0.01158
 612,0.,0.23046206,0.21791744,0.,0.,-0.00018406,0.,0.,0.00009884,0.,0.,
 0.00008522\\0.,-0.00037482,0.,0.00004487,0.00018741,0.,-0.00004487,0.0
 0018741,0.\\\@
 The archive entry for this job was punched.
 Job cpu time:       0 days  0 hours  0 minutes 24.0 seconds.
 Elapsed time:       0 days  0 hours  0 minutes  6.0 seconds.
 File lengths (MBytes):  RWF=     29 Int=      0 D2E=      0 Chk=      3 Scr=      2
 Normal termination of Gaussian 16 at Sun Sep 24 18:47:02 2023.
