 operating system is UNIX !
 hostname is         wooki

 force(wooki) : TURBOMOLE V5-9-0 29 Nov 2006 at 22:06:41
 Copyright (C) 2006 University of Karlsruhe


    2007-07-30 18:22:47.813 



                             T U R B O M O L E   

                          a o f o r c e - program

                        using direct algorithms for

                       SCF level calculations of
                         * harmonic force constants
                         * hyperpolarizabilities
                         * IR and RAMAN intensities

                       DFT level calculations of
                         * harmonic force constants
                         * IR intensities
                                                   
       Stephan Boecker, Peter Deglmann, Filipp Furche and Marco Haeser
                          Quantum Chemistry Group
                          Universitaet  Karlsruhe
                                   Germany





     References :

       RI-J implementation:
         Peter Deglmann, Klaus May, Filipp Furche, Reinhart Ahlrichs
                 Chem. Phys. Lett. 384:103 (2004)

       Efficiency, technical details:
         Peter Deglmann, Filipp Furche, Reinhart Ahlrichs
                 Chem. Phys. Lett. 362:511 (2002)

       Search of lowest eigenvalues by iterative diagonalization:
         Peter Deglmann, Filipp Furche
                 J. Chem. Phys. 117:9535 (2002)




              +--------------------------------------------------+
              | Atomic coordinate, charge and isotop information |
              +--------------------------------------------------+


              atomic coordinates              atom shells charge pseudo isotop
    -2.69176330   -0.00007129   -0.44712612    c      3    6.000    0     0
    -1.69851645   -0.00007332    2.06488947    c      3    6.000    0     0
     0.92683848   -0.00007460    2.49592179    c      3    6.000    0     0
     2.69176331   -0.00007127    0.44712612    c      3    6.000    0     0
     1.69851645   -0.00007331   -2.06488947    c      3    6.000    0     0
    -3.00422546   -0.00010960    3.69235578    h      1    1.000    0     0
     1.65164862   -0.00009936    4.45456855    h      1    1.000    0     0
     3.00422542   -0.00010956   -3.69235581    h      1    1.000    0     0
     5.46170421   -0.00013117    1.01478225    c      3    6.000    0     0
     7.37290032    0.00033137   -0.68855681    c      3    6.000    0     0
     7.04373608    0.00092237   -2.74543891    h      1    1.000    0     0
     5.92883353   -0.00065938    3.05381618    h      1    1.000    0     0
     9.36352819    0.00017228   -0.07445320    h      1    1.000    0     0
    -5.46170422   -0.00013118   -1.01478225    c      3    6.000    0     0
    -5.92883353   -0.00065944   -3.05381619    h      1    1.000    0     0
    -7.37290032    0.00033139    0.68855681    c      3    6.000    0     0
    -7.04373606    0.00092244    2.74543891    h      1    1.000    0     0
    -9.36352819    0.00017229    0.07445322    h      1    1.000    0     0
    -0.92683849   -0.00007461   -2.49592179    c      3    6.000    0     0
    -1.65164853   -0.00009927   -4.45456858    h      1    1.000    0     0


     center of nuclear mass  :    0.00000000    0.00000000    0.00000000

     center of nuclear charge:    0.00000000    0.00000321    0.00000000


              +--------------------------------------------------+
              |               basis set information              |
              +--------------------------------------------------+


              we will work with the  1s 3p 5d  7f  9g ... basis set
              ...i.e. with spherical basis functions...


   type   atoms  prim   cont   basis
   ---------------------------------------------------------------------------
    c       10     15      5   sto-3g hondo   [2s1p|6s3p]
    h       10      3      1   sto-3g hondo   [1s|3s]
   ---------------------------------------------------------------------------
   total:   20    180     60
   ---------------------------------------------------------------------------

   total number of primitive shells          :   12
   total number of contracted shells         :   40
   total number of cartesian basis functions :   60
   total number of SCF-basis functions       :   60


 symmetry group of the molecule :   c1 

 the group has the following generators :
   c1(z)

    1 symmetry operations found

 there are 1 real representations :   a   

 determining totally symmetric integral contributions 
    - equivalent to irreducible tensor elements - 
 which can be formed within each triple of representations :

             representation triple      contributions

              a     a     a               1

 maximum number of shells which are related by symmetry :  1


    mo occupation :
   irrep   mo's   occupied
    a       60       35

 number of basis functions   :            60
 number of occupied orbitals :            35


 reading orbital data $scfmo  from file mos . 

 orbital characterization : scfconv=6


         --------------------------------------------------------------
                   checking mo's by calculating trace(D*S)

              number of electrons : 
                 from trace(D*S)         :   70.000000000879
                 from occupation numbers :   70.000000000000

              molecular charge           :    0.000000000000
         --------------------------------------------------------------

 time elapsed for calculating density matrices :   0.001 sec

 number of non-frozen orbitals          :    60
 number of non-frozen occupied orbitals :    35
 Blocking parameters 
 shells:
    index      start shell   last shell  start bf    last bf    #bf 
       1             1          40             1         60     60
  
           ------------------
           density functional
           ------------------
 B-P86 functional
 exchange:    LDA + Becke (B88)
 correlation: LDA (VWN) + Perdew (P86)
 iterations will be done with small grid
  
 spherical integration : Lebedev's spherical grid
 spherical gridsize    :            3
    i.e. gridpoints    :          302
 value for diffuse not defined
 radial integration    : Chebyshev 2nd kind (scaling 3)
 radial gridsize       :            3
 integration cells     :           20
 partition function    : becke
 partition sharpness   :            3
  

 Derivatives of quadrature weights will be included

          Overall gridpoints after grid construction =         96318
 Ordering of quadrature gridpoints disabled.




 OCCUPIED-OCCUPIED TENSOR SPACES :

          IRREP   tensor space dimension   number of roots

           a              1225                  54

 OCCUPIED-VIRTUAL TENSOR SPACES :

          IRREP   tensor space dimension   number of roots

           a               875                  54




 CONSTRUCTING integral bounds

 setting up bound for integral derivative estimation

 increment for numerical differentiation : 0.00050000

 machine precision:    2.2204460492503131E-016

 integral neglect threshold       :  0.10E-09
 integral storage threshold THIZE :  0.10E-04
 integral storage threshold THIME :         5


   disc space (kbyte) allocation for  1 2e-integral file(s) :
   --------------------------------------------------------
   twoint                                                 0
   --------------------------------------------------------

 maximum number of buffers which may be written onto 2e-file(s) =         0




 PREPARING NUMERICAL INTEGRATION

 Remaining core memory for DFT =          196 MB

 Memory needed per atom    =           42 KiB

     i. e.           20 atoms per loop

 Calculating ground state density on molecular grid

 Integral of ground state density: N =   69.99981336994806    




 CONSTRUCTING first deriv. of <mu|x,y,z|nu> -> Dip. deriv.
  dipole integral derivatives will be neglected if
  expon. factor <0.833333E-10
      ...terminated. cpu:       0.01       wall:       0.01




 CONSTRUCTING first deriv. of  <mu|nu>
                               <mu|h|nu>    -> RHS
              second deriv. of <mu|nu>      -> Hessian
                               <mu|h|nu>    -> Hessian
                               nucl. rep.   -> Hessian
     integrals are neglected if expon. factor <   9.9999999999999982E-013
      ...terminated. cpu:       0.37       wall:       0.37




 CONSTRUCTING second deriv. of 2e energy    -> Hessian
   treating Coulomb (and exchange) contribution
     integrals will be neglected if total contribution < 
   8.3333333333333321E-008
      ...terminated. cpu:      11.58       wall:      11.58
   treating exchange-correlation contribution
      ...terminated. cpu:      55.42       wall:      55.42




 CONSTRUCTING S(i,j)xi
      ...terminated. cpu:       0.01       wall:       0.01




 CONSTRUCTING <i|x,y,z|j>*S(i,j)xi          -> Dip. deriv.
      ...terminated. cpu:       0.00       wall:       0.01




 CONSTRUCTING epsilon(i)*S(i,j)xi*S(i,j)chi -> Hessian
      ...terminated. cpu:       0.01       wall:       0.01




 CONSTRUCTING G(a,i)[S(k,l)xi]              -> RHS
              G(i,j)[S(k,l)xi]*S(i,j)chi    -> Hessian

         Maximum core memory set to           200 MB
         This corresponds to         7046 vectors in CAO basis
      ...terminated. cpu:      24.06       wall:      24.06




 CONSTRUCTING G(mu,nu)[D(kap,lam)]xi

          Maximum core memory set to           200 MB
          Atoms treated simultaneously :           20
      ...terminated. cpu:      34.41       wall:      34.41




 CONSTRUCTING F(a,i)xi                      -> RHS
              F(i,j)xi*S(i,j)chi            -> Hessian

        Maximum core memory set to          200 MB
        This corresponds to         8580 vectors in CAO basis
      ...terminated. cpu:       0.05       wall:       0.05




 CONSTRUCTING epsilon(i)*S(a,i)xi           -> RHS
      ...terminated. cpu:       0.01       wall:       0.01




 SOLVING CPHF equations

 Residuum convergence criterium   :   1.0000000000000000E-005

 Maximum number of Davidson iterations set to           25
  Switching to small grid
        preparing numerical integration ....
          Overall gridpoints after grid construction =         25920

 Calculating ground state density on molecular grid

 Integral of ground state density: N =   69.99749472218292    




                       Block Davidson iteration


 total number of roots to be determined:  54


 maximum core memory set to   200 MB,
 corresponding to     7046 vectors in CAO basis


 maximum number of simultaneously treated vectors (including degeneracy):  54


 Iteration IRREP Converged      Max. Euclidean
                 roots          residual norm


         0 2 e - integrals written in         0 blocks requiring       0 k-byte

    1       a        0        3.800421690689601D-02

    2       a        0        7.094325831887149D-04

    3       a       54        7.653833738086329D-06


 converged!

  Switching to fine grid
        preparing numerical integration ....
          Overall gridpoints after grid construction =         96318

 Calculating ground state density on molecular grid

 Integral of ground state density: N =   69.99981336994837    



 Iteration IRREP Converged      Max. Euclidean
                 roots          residual norm

    4       a       54        8.184215189065130D-06


 converged!

      ...terminated. cpu:      47.90       wall:      47.90




 CONSTRUCTING <a|x,y,z|i>*U(a,i)xi          -> Dip. deriv.
      ...terminated. cpu:       0.00       wall:       0.01




 CONSTRUCTING RHS(a,i)xi*U(a,i)chi          -> Hessian
      ...terminated. cpu:       0.01       wall:       0.00





            -----------------------
            permanent dipole moment
            -----------------------

                                   x                y                z
    electronic part       :   -0.0000000341    -0.0002485490     0.0000000227
     nuclear   part       :    0.0000000331     0.0002247896    -0.0000000272
     total                :   -0.0000000010    -0.0000237594    -0.0000000045

 with reference to the point :   0.0000000        0.0000000        0.0000000
 (given in atomic units)
    | dipole |       :    0.0000603908  debye

 dipole moment written onto $dipole

             -----------------------------------
             rotational and vibrational analysis
             -----------------------------------


            ==============================================================
            ATOMIC WEIGHTS (average over the natural occurance of isotops)
            ==============================================================
            ('*' denotes special isotop !)
              1     c                12.01115
              2     c                12.01115
              3     c                12.01115
              4     c                12.01115
              5     c                12.01115
              6     h                 1.00797
              7     h                 1.00797
              8     h                 1.00797
              9     c                12.01115
             10     c                12.01115
             11     h                 1.00797
             12     h                 1.00797
             13     h                 1.00797
             14     c                12.01115
             15     h                 1.00797
             16     c                12.01115
             17     h                 1.00797
             18     h                 1.00797
             19     c                12.01115
             20     h                 1.00797

          -------------------------------------------------
          CARTESIAN FORCE CONSTANT MATRIX (hartree/bohr**2)
         (translational & rotational space projected out)
          -------------------------------------------------

   ATOM              1 c                           2 c 
                  dx        dy        dz        dx        dy        dz
   1 c     dx  0.6711059
           dy  0.0000006 0.1465945
           dz  0.0029804 0.0000104 0.6963247
   2 c     dx -0.1418861 0.0000014-0.0242263 0.7667795
           dy  0.0000039-0.0618208 0.0000028 0.0000029 0.1295383
           dz -0.0891605 0.0000003-0.3074049-0.0590268-0.0000072 0.7477776
   3 c     dx -0.0191058-0.0000014-0.0921610-0.3711863 0.0000011 0.0059200
           dy  0.0000012 0.0058412-0.0000008 0.0000016-0.0564924 0.0000013
           dz -0.0345090 0.0000007 0.0153942-0.0815263 0.0000004-0.1421136
   4 c     dx  0.0116618 0.0000000 0.0129868-0.0517587-0.0000009 0.0108471
           dy -0.0000001-0.0082451 0.0000005-0.0000007 0.0059344-0.0000007
           dz  0.0129868-0.0000005-0.0675778 0.0667095 0.0000010 0.0499934
   5 c     dx -0.0517587 0.0000007 0.0667096-0.0400453-0.0000003-0.0340803
           dy  0.0000009 0.0059344-0.0000010 0.0000003-0.0056093 0.0000003
           dz  0.0108472 0.0000007 0.0499934-0.0340804-0.0000003-0.0247723
   6 h     dx  0.0120510 0.0000005-0.0133019-0.1896435-0.0000045 0.1593090
           dy -0.0000014 0.0022528-0.0000006-0.0000045-0.0370386 0.0000057
           dz  0.0213470 0.0000003-0.0143321 0.1606770 0.0000046-0.2622081
   7 h     dx -0.0050080 0.0000002 0.0015739-0.0059203 0.0000003-0.0316275
           dy -0.0000002 0.0084398-0.0000001-0.0000002 0.0027684 0.0000002
           dz  0.0001191 0.0000001 0.0013554 0.0060331-0.0000001 0.0013241
   8 h     dx -0.0037387 0.0000000-0.0033734-0.0000104 0.0000000-0.0008869
           dy -0.0000001 0.0084701 0.0000001 0.0000000-0.0009439 0.0000000
           dz -0.0018267-0.0000002 0.0002632-0.0009562 0.0000000 0.0003552
   9 c     dx -0.0069918-0.0000003-0.0002775 0.0073579 0.0000006 0.0062757
           dy -0.0000004-0.0009912-0.0000002 0.0000000 0.0070080-0.0000001
           dz  0.0017463-0.0000002-0.0003218 0.0007985 0.0000017-0.0049870
  10 c     dx  0.0022505 0.0000003 0.0009252-0.0033989 0.0000000-0.0009913
           dy -0.0000004-0.0000509 0.0000000-0.0000001-0.0000451-0.0000003
           dz -0.0022562 0.0000003 0.0001844 0.0015657-0.0000011 0.0020757
  11 h     dx -0.0000333 0.0000000 0.0000132 0.0000364 0.0000003-0.0001364
           dy  0.0000000-0.0000825 0.0000002-0.0000004 0.0002317-0.0000003
           dz -0.0001112 0.0000001-0.0000693 0.0000301-0.0000004-0.0001774
  12 h     dx  0.0001808 0.0000001 0.0000554 0.0001751-0.0000002 0.0002131
           dy  0.0000005 0.0001010-0.0000001-0.0000002-0.0000264-0.0000002
           dz  0.0000866-0.0000001 0.0001971-0.0000489 0.0000001-0.0000903
  13 h     dx  0.0001190 0.0000001 0.0001572-0.0001952 0.0000001 0.0004417
           dy  0.0000001 0.0001614-0.0000002 0.0000002-0.0008994 0.0000006
           dz -0.0000727 0.0000000 0.0000560 0.0000585-0.0000004-0.0002729
  14 c     dx -0.2276340 0.0000013-0.0259299-0.0261853-0.0000041-0.0225396
           dy -0.0000066-0.0585626-0.0000089-0.0000012 0.0021749 0.0000002
           dz -0.0567000-0.0000132-0.1178068-0.0316994 0.0000015 0.0010963
  15 h     dx -0.0067338-0.0000077-0.0307235-0.0051124-0.0000008 0.0018106
           dy  0.0000060 0.0018781 0.0000014-0.0000006 0.0026395-0.0000008
           dz  0.0033860-0.0000011-0.0028741 0.0001276-0.0000005 0.0007998
  16 c     dx -0.0492545 0.0000056 0.0197695 0.0043973 0.0000014 0.0068698
           dy  0.0000000 0.0045151 0.0000011 0.0000004 0.0004513 0.0000003
           dz  0.0144242 0.0000075 0.0167213-0.0055550-0.0000026-0.0052665
  17 h     dx  0.0016115-0.0000005-0.0013956-0.0012643 0.0000005 0.0013867
           dy  0.0000002-0.0076207 0.0000032 0.0000006 0.0001684-0.0000004
           dz -0.0014860 0.0000021 0.0004447-0.0009677-0.0000001 0.0005743
  18 h     dx  0.0001355 0.0000008 0.0027517 0.0004346-0.0000001 0.0002229
           dy -0.0000002 0.0122273-0.0000053-0.0000007-0.0004301 0.0000000
           dz  0.0012885-0.0000049-0.0032237-0.0001426 0.0000002-0.0005583
  19 c     dx -0.1962084-0.0000018 0.0611500 0.0609412 0.0000000 0.0427551
           dy -0.0000034-0.0609738-0.0000031 0.0000013 0.0055213 0.0000010
           dz  0.1298080-0.0000020-0.2530385-0.0017621 0.0000004-0.0547901
  20 h     dx  0.0092370 0.0000002 0.0223160-0.0035152-0.0000001 0.0023976
           dy -0.0000006 0.0019320 0.0000004-0.0000001 0.0068698 0.0000001
           dz -0.0128978-0.0000004-0.0142855 0.0039917-0.0000001-0.0013548

   ATOM              3 c                           4 c 
                  dx        dy        dz        dx        dy        dz
   3 c     dx  0.7329571
           dy -0.0000031 0.1295556
           dz  0.0520768-0.0000061 0.7815411
   4 c     dx -0.1962086 0.0000034 0.1298081 0.6711059
           dy  0.0000018-0.0609739 0.0000020-0.0000006 0.1465945
           dz  0.0611501 0.0000031-0.2530386 0.0029806-0.0000104 0.6963245
   5 c     dx  0.0609412-0.0000013-0.0017621-0.1418860-0.0000014-0.0242263
           dy  0.0000000 0.0055213-0.0000004-0.0000039-0.0618208-0.0000028
           dz  0.0427552-0.0000010-0.0547899-0.0891606-0.0000003-0.3074048
   6 h     dx -0.0132941-0.0000001 0.0272180-0.0037387 0.0000000-0.0033734
           dy  0.0000003 0.0031007 0.0000000 0.0000001 0.0084701-0.0000001
           dz -0.0107357-0.0000001 0.0082241-0.0018268 0.0000002 0.0002633
   7 h     dx -0.1009546 0.0000015-0.1058777 0.0092370-0.0000002 0.0223161
           dy  0.0000015-0.0365485 0.0000046 0.0000006 0.0019321-0.0000004
           dz -0.1059947 0.0000042-0.3495027-0.0128977 0.0000004-0.0142857
   8 h     dx -0.0014468 0.0000001-0.0025267 0.0120510-0.0000005-0.0133019
           dy -0.0000002 0.0072272 0.0000002 0.0000014 0.0022528 0.0000006
           dz -0.0040845 0.0000000-0.0034425 0.0213470-0.0000003-0.0143321
   9 c     dx -0.0448397-0.0000026 0.0078154-0.2276340-0.0000013-0.0259299
           dy -0.0000005 0.0033985 0.0000000 0.0000066-0.0585626 0.0000089
           dz  0.0304443 0.0000019 0.0057860-0.0567001 0.0000132-0.1178068
  10 c     dx  0.0036015 0.0000008-0.0072949-0.0492545-0.0000056 0.0197694
           dy  0.0000011 0.0015981 0.0000003 0.0000000 0.0045151-0.0000011
           dz -0.0073259-0.0000025 0.0013037 0.0144241-0.0000075 0.0167214
  11 h     dx  0.0000023 0.0000004-0.0000730 0.0016115 0.0000005-0.0013955
           dy  0.0000008-0.0000204 0.0000000-0.0000002-0.0076207-0.0000032
           dz -0.0000983-0.0000004-0.0001258-0.0014860-0.0000021 0.0004447
  12 h     dx  0.0015663-0.0000005-0.0023882-0.0067338 0.0000077-0.0307234
           dy  0.0000003-0.0009610-0.0000007-0.0000060 0.0018781-0.0000014
           dz  0.0024801-0.0000002 0.0015036 0.0033859 0.0000011-0.0028740
  13 h     dx -0.0004302-0.0000003-0.0005125 0.0001355-0.0000008 0.0027517
           dy -0.0000015 0.0000885-0.0000005 0.0000002 0.0122273 0.0000053
           dz  0.0008799 0.0000000 0.0008002 0.0012885 0.0000049-0.0032237
  14 c     dx  0.0113219-0.0000011-0.0017863-0.0069918 0.0000003-0.0002775
           dy -0.0000004 0.0064323-0.0000005 0.0000004-0.0009912 0.0000002
           dz -0.0010984 0.0000028-0.0060574 0.0017463 0.0000002-0.0003218
  15 h     dx  0.0002419 0.0000003-0.0017111 0.0001808-0.0000001 0.0000554
           dy  0.0000011 0.0000541-0.0000003-0.0000005 0.0001010 0.0000001
           dz  0.0001587 0.0000005-0.0002052 0.0000866 0.0000001 0.0001971
  16 c     dx -0.0021807-0.0000008 0.0015111 0.0022505-0.0000003 0.0009252
           dy -0.0000006-0.0004329-0.0000002 0.0000004-0.0000509 0.0000000
           dz  0.0034212-0.0000024-0.0007866-0.0022561-0.0000003 0.0001844
  17 h     dx  0.0001919 0.0000002-0.0002777-0.0000334 0.0000000 0.0000131
           dy -0.0000004 0.0001423 0.0000005 0.0000000-0.0000825-0.0000002
           dz -0.0000316-0.0000006 0.0003822-0.0001112-0.0000001-0.0000693
  18 h     dx  0.0000099 0.0000000-0.0002354 0.0001190-0.0000001 0.0001572
           dy  0.0000003-0.0003206-0.0000001-0.0000001 0.0001614 0.0000002
           dz  0.0000008 0.0000002 0.0002155-0.0000727 0.0000000 0.0000560
  19 c     dx -0.0606660 0.0000004 0.0214940-0.0191057 0.0000014-0.0921610
           dy -0.0000004-0.0063040-0.0000001-0.0000012 0.0058411 0.0000008
           dz  0.0214940 0.0000001-0.0059990-0.0345090-0.0000007 0.0153943
  20 h     dx -0.0005211 0.0000000 0.0005577-0.0050079-0.0000002 0.0015739
           dy  0.0000000-0.0009061 0.0000001 0.0000002 0.0084398 0.0000001
           dz  0.0007490 0.0000001 0.0009109 0.0001191-0.0000001 0.0013554

   ATOM              5 c                           6 h 
                  dx        dy        dz        dx        dy        dz
   5 c     dx  0.7667788
           dy -0.0000028 0.1295383
           dz -0.0590267 0.0000072 0.7477771
   6 h     dx -0.0000103 0.0000000-0.0008870 0.1964652
           dy  0.0000000-0.0009438 0.0000001 0.0000036 0.0257596
           dz -0.0009562 0.0000000 0.0003552-0.1666264-0.0000050 0.2681454
   7 h     dx -0.0035151 0.0000001 0.0023976 0.0017536 0.0000000-0.0000657
           dy  0.0000001 0.0068697-0.0000001 0.0000000-0.0048218-0.0000001
           dz  0.0039917 0.0000001-0.0013548 0.0002212-0.0000001 0.0011596
   8 h     dx -0.1896435 0.0000045 0.1593089-0.0000026 0.0000000 0.0002372
           dy  0.0000045-0.0370385-0.0000057 0.0000000-0.0011528 0.0000000
           dz  0.1606770-0.0000046-0.2622080 0.0002372 0.0000000-0.0000446
   9 c     dx -0.0261853 0.0000041-0.0225397-0.0003246 0.0000001-0.0002168
           dy  0.0000012 0.0021749-0.0000002-0.0000001 0.0000724 0.0000000
           dz -0.0316995-0.0000015 0.0010963 0.0013700 0.0000002 0.0004779
  10 c     dx  0.0043972-0.0000014 0.0068697-0.0003533-0.0000001-0.0001305
           dy -0.0000004 0.0004513-0.0000003 0.0000001-0.0001250 0.0000000
           dz -0.0055550 0.0000026-0.0052666-0.0003140-0.0000002-0.0000730
  11 h     dx -0.0012642-0.0000005 0.0013867 0.0000012 0.0000000 0.0000026
           dy -0.0000006 0.0001684 0.0000004 0.0000000 0.0000006 0.0000000
           dz -0.0009677 0.0000001 0.0005743-0.0000022-0.0000001-0.0000038
  12 h     dx -0.0051124 0.0000008 0.0018106-0.0000021 0.0000000 0.0000132
           dy  0.0000006 0.0026395 0.0000008 0.0000000 0.0000176 0.0000000
           dz  0.0001276 0.0000005 0.0007998 0.0000252 0.0000001 0.0000071
  13 h     dx  0.0004346 0.0000001 0.0002229-0.0000714 0.0000000-0.0000364
           dy  0.0000007-0.0004301 0.0000000-0.0000001 0.0000080 0.0000000
           dz -0.0001426-0.0000002-0.0005583 0.0001163 0.0000000 0.0000380
  14 c     dx  0.0073580-0.0000006 0.0062757-0.0000554 0.0000010 0.0017499
           dy  0.0000000 0.0070080 0.0000001 0.0000002-0.0035963 0.0000000
           dz  0.0007984-0.0000017-0.0049870 0.0010344-0.0000003 0.0011944
  15 h     dx  0.0001750 0.0000002 0.0002131-0.0000080-0.0000002-0.0000200
           dy  0.0000002-0.0000264 0.0000002 0.0000000-0.0000974 0.0000000
           dz -0.0000489-0.0000001-0.0000903 0.0000459 0.0000001 0.0001088
  16 c     dx -0.0033989 0.0000000-0.0009914-0.0008927 0.0000003 0.0004225
           dy  0.0000001-0.0000451 0.0000003-0.0000002 0.0002052-0.0000002
           dz  0.0015657 0.0000011 0.0020757-0.0020479 0.0000006 0.0000698
  17 h     dx  0.0000365-0.0000003-0.0001364-0.0011424 0.0000005-0.0009095
           dy  0.0000004 0.0002317 0.0000003 0.0000006 0.0003063 0.0000003
           dz  0.0000301 0.0000004-0.0001774-0.0000884-0.0000001 0.0005545
  18 h     dx -0.0001952-0.0000001 0.0004418 0.0001224 0.0000000 0.0000328
           dy -0.0000002-0.0008994-0.0000006-0.0000001 0.0001327 0.0000001
           dz  0.0000585 0.0000004-0.0002729 0.0002693-0.0000002 0.0003375
  19 c     dx -0.3711862-0.0000011 0.0059201-0.0014468 0.0000002-0.0040846
           dy -0.0000016-0.0564924-0.0000013-0.0000001 0.0072273 0.0000000
           dz -0.0815264-0.0000004-0.1421136-0.0025268-0.0000002-0.0034425
  20 h     dx -0.0059202-0.0000003-0.0316274 0.0005925 0.0000000 0.0011265
           dy  0.0000002 0.0027683-0.0000002 0.0000001 0.0002222 0.0000000
           dz  0.0060332 0.0000001 0.0013240-0.0006783 0.0000000-0.0008315

   ATOM              7 h                           8 h 
                  dx        dy        dz        dx        dy        dz
   7 h     dx  0.1029601
           dy -0.0000015 0.0263600
           dz  0.1101463-0.0000043 0.3596078
   8 h     dx  0.0005925-0.0000001-0.0006783 0.1964652
           dy  0.0000000 0.0002222 0.0000000-0.0000036 0.0257595
           dz  0.0011265 0.0000000-0.0008314-0.1666266 0.0000050 0.2681455
   9 c     dx  0.0015208-0.0000004-0.0021090-0.0000554-0.0000010 0.0017500
           dy -0.0000004-0.0035718 0.0000000-0.0000002-0.0035962 0.0000000
           dz  0.0021454 0.0000001 0.0014693 0.0010344 0.0000003 0.0011944
  10 c     dx -0.0000567-0.0000002-0.0000578-0.0008927-0.0000003 0.0004225
           dy  0.0000001 0.0000772-0.0000001 0.0000002 0.0002053 0.0000002
           dz -0.0003180-0.0000003 0.0001936-0.0020479-0.0000006 0.0000698
  11 h     dx  0.0000905 0.0000000-0.0000795-0.0011424-0.0000005-0.0009095
           dy  0.0000001-0.0000705 0.0000000-0.0000006 0.0003063-0.0000003
           dz -0.0000259-0.0000001-0.0000262-0.0000883 0.0000001 0.0005545
  12 h     dx -0.0000213 0.0000000 0.0005785-0.0000080 0.0000002-0.0000200
           dy  0.0000000-0.0000482-0.0000001 0.0000000-0.0000974 0.0000000
           dz -0.0005477 0.0000003 0.0000657 0.0000459-0.0000001 0.0001088
  13 h     dx -0.0000233 0.0000000 0.0000867 0.0001225 0.0000000 0.0000328
           dy  0.0000000 0.0003149 0.0000000 0.0000001 0.0001327-0.0000001
           dz  0.0000022 0.0000001 0.0000325 0.0002693 0.0000002 0.0003375
  14 c     dx  0.0002293 0.0000003 0.0000764-0.0003246-0.0000001-0.0002168
           dy -0.0000001 0.0002225 0.0000000 0.0000001 0.0000724 0.0000000
           dz -0.0015699 0.0000002 0.0000345 0.0013700-0.0000002 0.0004779
  15 h     dx -0.0004844 0.0000000 0.0000113-0.0000021 0.0000000 0.0000132
           dy  0.0000000-0.0002539 0.0000000 0.0000000 0.0000176 0.0000000
           dz -0.0000581 0.0000001 0.0000314 0.0000252-0.0000001 0.0000071
  16 c     dx  0.0000546-0.0000001-0.0000048-0.0003533 0.0000001-0.0001305
           dy -0.0000001 0.0000311 0.0000000-0.0000001-0.0001250 0.0000000
           dz -0.0000269-0.0000002-0.0000071-0.0003140 0.0000002-0.0000730
  17 h     dx -0.0000348 0.0000001-0.0000218 0.0000012 0.0000000 0.0000026
           dy  0.0000000 0.0000124 0.0000000 0.0000000 0.0000006 0.0000000
           dz -0.0000204-0.0000001 0.0000045-0.0000022 0.0000001-0.0000038
  18 h     dx -0.0000234 0.0000000 0.0000048-0.0000714 0.0000000-0.0000364
           dy  0.0000000 0.0000010 0.0000000 0.0000001 0.0000080 0.0000000
           dz  0.0000463 0.0000000 0.0000020 0.0001163 0.0000000 0.0000380
  19 c     dx -0.0005211 0.0000000 0.0007490-0.0132940-0.0000003-0.0107358
           dy  0.0000000-0.0009062-0.0000001 0.0000001 0.0031007 0.0000001
           dz  0.0005578-0.0000001 0.0009110 0.0272180 0.0000000 0.0082240
  20 h     dx  0.0001247 0.0000000-0.0001745 0.0017536 0.0000000-0.0000656
           dy  0.0000000-0.0010304 0.0000000 0.0000000-0.0048218 0.0000001
           dz -0.0001745 0.0000000-0.0001834 0.0002212 0.0000001 0.0011595

   ATOM              9 c                          10 c 
                  dx        dy        dz        dx        dy        dz
   9 c     dx  0.7303526
           dy  0.0000537 0.1271985
           dz -0.1273784-0.0001901 0.8334195
  10 c     dx -0.3656326-0.0000749 0.2374285 0.8443883
           dy -0.0000722-0.0464111 0.0000913 0.0000387 0.1018914
           dz  0.2144576 0.0000890-0.3440803-0.0932779-0.0002179 0.8252441
  11 h     dx  0.0107201-0.0000096 0.0284979-0.0756716 0.0000172-0.0568735
           dy  0.0000080 0.0038903 0.0000074 0.0000121-0.0348920 0.0001039
           dz -0.0076039 0.0000049-0.0132058-0.0557879 0.0001034-0.3837750
  12 h     dx -0.0771715 0.0000213-0.0724377 0.0075219-0.0000096 0.0306483
           dy  0.0000217-0.0408116 0.0000861 0.0000038 0.0046371 0.0000096
           dz -0.0700781 0.0000870-0.3661963-0.0090716 0.0000058-0.0151717
  13 h     dx -0.0153451 0.0000024-0.0120275-0.3637623 0.0000246-0.0973997
           dy -0.0000097 0.0043822-0.0000069 0.0000250-0.0315284 0.0000218
           dz  0.0271534 0.0000000 0.0092169-0.1001535 0.0000183-0.0968873
  14 c     dx  0.0040785 0.0000010-0.0010808-0.0013831 0.0000007 0.0014588
           dy -0.0000010-0.0010037-0.0000009 0.0000005 0.0001112 0.0000008
           dz -0.0010808 0.0000009-0.0000969 0.0005217-0.0000005-0.0000996
  15 h     dx  0.0000160 0.0000000 0.0001420-0.0000546 0.0000002-0.0000023
           dy  0.0000002-0.0000034-0.0000004-0.0000001-0.0000050 0.0000000
           dz -0.0000055 0.0000001 0.0000332-0.0000100-0.0000001-0.0000028
  16 c     dx -0.0013831-0.0000005 0.0005217 0.0003762-0.0000004-0.0006187
           dy -0.0000007 0.0001112 0.0000005 0.0000004-0.0000018-0.0000004
           dz  0.0014588-0.0000008-0.0000996-0.0006187 0.0000004 0.0003894
  17 h     dx  0.0000103 0.0000000-0.0000310 0.0000084-0.0000002-0.0000023
           dy  0.0000000 0.0000684 0.0000004 0.0000000-0.0000070 0.0000000
           dz  0.0000594-0.0000003 0.0001887-0.0000911 0.0000002-0.0000668
  18 h     dx -0.0000440-0.0000001-0.0001058 0.0000426-0.0000001 0.0000425
           dy  0.0000000-0.0000077-0.0000001 0.0000000-0.0000185-0.0000002
           dz -0.0000407 0.0000002-0.0000643 0.0000420 0.0000002 0.0000349
  19 c     dx  0.0113218 0.0000004-0.0010984-0.0021807 0.0000006 0.0034213
           dy  0.0000011 0.0064324-0.0000028 0.0000008-0.0004329 0.0000024
           dz -0.0017864 0.0000005-0.0060575 0.0015111 0.0000002-0.0007866
  20 h     dx  0.0002293 0.0000001-0.0015699 0.0000546 0.0000001-0.0000270
           dy -0.0000003 0.0002225-0.0000002 0.0000001 0.0000310 0.0000002
           dz  0.0000764 0.0000000 0.0000344-0.0000048 0.0000000-0.0000071

   ATOM             11 h                          12 h 
                  dx        dy        dz        dx        dy        dz
  11 h     dx  0.0673013
           dy -0.0000156 0.0229434
           dz  0.0563821-0.0001105 0.3970444
  12 h     dx -0.0035988-0.0000015 0.0022227 0.0819058
           dy -0.0000012 0.0132034 0.0000033-0.0000182 0.0281980
           dz  0.0020639 0.0000027-0.0003737 0.0716059-0.0000945 0.3802993
  13 h     dx  0.0017702-0.0000025 0.0076066 0.0015711 0.0000001-0.0001638
           dy  0.0000090 0.0017252 0.0000011 0.0000006-0.0085276-0.0000022
           dz -0.0285419 0.0000005-0.0013423-0.0000241-0.0000034 0.0018740
  14 c     dx  0.0000103 0.0000000 0.0000595 0.0000160-0.0000002-0.0000055
           dy  0.0000000 0.0000684 0.0000003 0.0000000-0.0000034-0.0000001
           dz -0.0000310-0.0000004 0.0001887 0.0001420 0.0000004 0.0000332
  15 h     dx -0.0000038 0.0000000-0.0000174 0.0000045 0.0000000 0.0000040
           dy  0.0000000 0.0000042 0.0000000 0.0000000-0.0000006-0.0000001
           dz  0.0000017-0.0000001-0.0000018 0.0000040 0.0000001-0.0000078
  16 c     dx  0.0000084 0.0000000-0.0000911-0.0000546 0.0000001-0.0000100
           dy  0.0000002-0.0000070-0.0000002-0.0000002-0.0000050 0.0000001
           dz -0.0000023 0.0000000-0.0000668-0.0000023 0.0000000-0.0000028
  17 h     dx -0.0000020 0.0000000-0.0000045-0.0000038 0.0000000 0.0000017
           dy  0.0000000 0.0000207-0.0000001 0.0000000 0.0000041 0.0000001
           dz -0.0000045 0.0000001-0.0000599-0.0000174 0.0000000-0.0000018
  18 h     dx  0.0000069 0.0000000 0.0000356 0.0000073 0.0000000-0.0000019
           dy  0.0000000-0.0000241 0.0000000 0.0000000 0.0000019 0.0000000
           dz -0.0000014 0.0000000 0.0000345 0.0000194 0.0000000 0.0000035
  19 c     dx  0.0001920 0.0000004-0.0000316 0.0002420-0.0000011 0.0001587
           dy -0.0000002 0.0001423 0.0000006-0.0000003 0.0000541-0.0000005
           dz -0.0002778-0.0000005 0.0003822-0.0017111 0.0000003-0.0002052
  20 h     dx -0.0000348 0.0000000-0.0000204-0.0004845 0.0000000-0.0000581
           dy -0.0000001 0.0000124 0.0000001 0.0000000-0.0002539-0.0000001
           dz -0.0000218 0.0000000 0.0000045 0.0000113 0.0000000 0.0000314

   ATOM             13 h                          14 c 
                  dx        dy        dz        dx        dy        dz
  13 h     dx  0.3757025
           dy -0.0000242 0.0226794
           dz  0.0991204-0.0000193 0.0897184
  14 c     dx -0.0000440 0.0000000-0.0000407 0.7303523
           dy  0.0000001-0.0000077-0.0000002-0.0000537 0.1271986
           dz -0.0001058 0.0000001-0.0000643-0.1273783 0.0001901 0.8334195
  15 h     dx  0.0000073 0.0000000 0.0000194-0.0771715-0.0000213-0.0724377
           dy  0.0000000 0.0000019 0.0000000-0.0000217-0.0408116-0.0000861
           dz -0.0000019 0.0000000 0.0000035-0.0700781-0.0000870-0.3661964
  16 c     dx  0.0000426 0.0000000 0.0000420-0.3656326 0.0000749 0.2374285
           dy  0.0000001-0.0000185-0.0000002 0.0000722-0.0464111-0.0000913
           dz  0.0000425 0.0000002 0.0000349 0.2144575-0.0000890-0.3440803
  17 h     dx  0.0000069 0.0000000-0.0000014 0.0107202 0.0000096 0.0284979
           dy  0.0000000-0.0000241 0.0000000-0.0000080 0.0038902-0.0000074
           dz  0.0000356 0.0000000 0.0000345-0.0076039-0.0000049-0.0132058
  18 h     dx -0.0000271 0.0000000-0.0000200-0.0153451-0.0000024-0.0120275
           dy  0.0000000 0.0000339 0.0000000 0.0000097 0.0043822 0.0000069
           dz -0.0000200 0.0000000-0.0000148 0.0271533 0.0000000 0.0092169
  19 c     dx  0.0000099-0.0000003 0.0000008-0.0448398 0.0000005 0.0304441
           dy  0.0000000-0.0003206-0.0000002 0.0000026 0.0033985-0.0000019
           dz -0.0002354 0.0000001 0.0002155 0.0078153 0.0000000 0.0057860
  20 h     dx -0.0000234 0.0000000 0.0000463 0.0015207 0.0000004 0.0021454
           dy  0.0000000 0.0000010 0.0000000 0.0000004-0.0035719-0.0000001
           dz  0.0000048 0.0000000 0.0000020-0.0021090 0.0000000 0.0014692

   ATOM             15 h                          16 c 
                  dx        dy        dz        dx        dy        dz
  15 h     dx  0.0819059
           dy  0.0000182 0.0281980
           dz  0.0716059 0.0000945 0.3802994
  16 c     dx  0.0075219-0.0000038-0.0090716 0.8443879
           dy  0.0000096 0.0046371-0.0000058-0.0000387 0.1018914
           dz  0.0306483-0.0000096-0.0151717-0.0932779 0.0002179 0.8252441
  17 h     dx -0.0035987 0.0000012 0.0020639-0.0756716-0.0000172-0.0568734
           dy  0.0000015 0.0132034-0.0000027-0.0000121-0.0348920-0.0001039
           dz  0.0022226-0.0000033-0.0003737-0.0557879-0.0001034-0.3837750
  18 h     dx  0.0015711-0.0000001-0.0001638-0.3637623-0.0000246-0.0973996
           dy -0.0000006-0.0085276 0.0000022-0.0000250-0.0315283-0.0000218
           dz -0.0000241 0.0000034 0.0018741-0.1001535-0.0000183-0.0968873
  19 c     dx  0.0015663-0.0000003 0.0024801 0.0036016-0.0000011-0.0073260
           dy  0.0000005-0.0009609 0.0000002-0.0000008 0.0015981 0.0000025
           dz -0.0023882 0.0000007 0.0015037-0.0072948-0.0000003 0.0013037
  20 h     dx -0.0000214 0.0000000-0.0005476-0.0000567-0.0000001-0.0003180
           dy  0.0000000-0.0000482-0.0000003 0.0000002 0.0000772 0.0000003
           dz  0.0005785 0.0000001 0.0000657-0.0000578 0.0000001 0.0001936

   ATOM             17 h                          18 h 
                  dx        dy        dz        dx        dy        dz
  17 h     dx  0.0673013
           dy  0.0000156 0.0229434
           dz  0.0563822 0.0001105 0.3970444
  18 h     dx  0.0017702 0.0000025 0.0076067 0.3757025
           dy -0.0000090 0.0017252-0.0000011 0.0000242 0.0226794
           dz -0.0285419-0.0000005-0.0013423 0.0991204 0.0000193 0.0897184
  19 c     dx  0.0000023-0.0000008-0.0000983-0.0004301 0.0000015 0.0008799
           dy -0.0000004-0.0000204 0.0000004 0.0000003 0.0000885 0.0000000
           dz -0.0000730 0.0000000-0.0001258-0.0005125 0.0000005 0.0008001
  20 h     dx  0.0000905-0.0000001-0.0000259-0.0000233 0.0000000 0.0000022
           dy  0.0000000-0.0000704 0.0000001 0.0000000 0.0003149-0.0000001
           dz -0.0000795 0.0000000-0.0000262 0.0000867 0.0000000 0.0000325

   ATOM             19 c                          20 h 
                  dx        dy        dz        dx        dy        dz
  19 c     dx  0.7329560
           dy  0.0000031 0.1295554
           dz  0.0520769 0.0000061 0.7815406
  20 h     dx -0.1009546-0.0000015-0.1058777 0.1029603
           dy -0.0000015-0.0365485-0.0000046 0.0000015 0.0263602
           dz -0.1059946-0.0000041-0.3495025 0.1101463 0.0000043 0.3596079


 keyword $hessian missing in file <control>


   *** projected hessian written onto $hessian (projected), file=<control> ***

 dipole moment in principle axis system (a.u.) :
    -0.0000000010    -0.0000237594    -0.0000000045
 norm :   2.3759392671246893E-005

 rotational constants b for rotations around axis of inertia
 and optical intensities for (1 <-- 0) transition

   b   :     0.1525980373     0.0197230371     0.0226505869   (cm**(-1))
  int. :     0.0000000000     0.0000000006     0.0000000000     (a.u.)


 keyword $vibrational normal modes missing in file <control>


   ***  normal modes written onto $vibrational normal modes, file=<control>  ***

 keyword $vibrational spectrum missing in file <control>


   ***  vibrational spectroscopic data written onto$vibrational spectrum   
        file=<control>  ***

          ---------------------------------------------------
          NORMAL MODES and VIBRATIONAL FREQUENCIES (cm**(-1))
          ---------------------------------------------------

 imaginary wave numbers indicate a negative curvature of the energy surface.
 zero frequency modes have no physical meaning except being generators of
 translations and rotations. each vibrational normal mode - given in terms of
 cartesian displacement vectors of all atoms - has been normalized to unity.
 to obtain mass-weigthed normal coordinates in a.u. divide the tabulated
 modes by sqrt(reduced mass * 1822.88853).
 band intensities or cross sections refer to independent non-degenerate normal
 modes, that is, the intensities of degenerate modes have yet to be added.
 dDIP/dQ is the normal mode derivative of the dipole moment.


       mode               1        2        3        4        5        6

     frequency           0.00     0.00     0.00     0.00     0.00     0.00

     symmetry                                                             

        IR                -        -        -        -        -        - 
|dDIP/dQ|   (a.u.)     0.0000   0.0000   0.0000   0.0000   0.0000   0.0000
intensity (km/mol)       0.00     0.00     0.00     0.00     0.00     0.00
intensity (  %   )       0.00     0.00     0.00     0.00     0.00     0.00

       RAMAN              -        -        -        -        -        - 

  1   c           x  -0.01201  0.00079  0.01032  0.01229 -0.22313 -0.00142
                  y  -0.01509  0.01867  0.13033 -0.19760 -0.00424 -0.00015
                  z   0.00702 -0.01044 -0.02986 -0.02282  0.00916 -0.24580
  2   c           x   0.00495 -0.02442 -0.06178 -0.04283 -0.22174 -0.03799
                  y   0.17095  0.17406  0.06178 -0.13761 -0.01834 -0.00067
                  z   0.00031 -0.00047 -0.00134 -0.00103  0.00861 -0.23134
  3   c           x   0.00786 -0.02874 -0.07416 -0.05229 -0.22151 -0.04426
                  y   0.26448  0.14682  0.05297 -0.07194 -0.02217 -0.00081
                  z  -0.01741  0.02587  0.07402  0.05658  0.00717 -0.19313
  4   c           x  -0.00597 -0.00818 -0.01535 -0.00733 -0.22264 -0.01444
                  y   0.17737 -0.03644  0.11197 -0.06279 -0.01214 -0.00044
                  z  -0.02932  0.04359  0.12468  0.09531  0.00619 -0.16744
  5   c           x  -0.02293  0.01703  0.05676  0.04779 -0.22402  0.02212
                  y  -0.00867 -0.19182  0.18052 -0.12279  0.00196  0.00008
                  z  -0.02262  0.03362  0.09617  0.07352  0.00674 -0.18190
  6   h           x   0.01594 -0.04075 -0.10850 -0.07854 -0.22085 -0.06168
                  y   0.24256  0.31752  0.01503 -0.14271 -0.02635 -0.00096
                  z   0.00913 -0.01357 -0.03883 -0.02968  0.00933 -0.25035
  7   h           x   0.02108 -0.04840 -0.13038 -0.09527 -0.22043 -0.07277
                  y   0.40830  0.26906 -0.00054 -0.02628 -0.03313 -0.00121
                  z  -0.02230  0.03315  0.09482  0.07249  0.00677 -0.18258
  8   h           x  -0.03392  0.03336  0.10348  0.08351 -0.22491  0.04581
                  y  -0.08028 -0.33528  0.22727 -0.11769  0.00997  0.00038
                  z  -0.03143  0.04672  0.13364  0.10217  0.00602 -0.16289
  9   c           x  -0.00214 -0.01388 -0.03164 -0.01979 -0.22232 -0.02270
                  y   0.28329 -0.05721  0.09953  0.00818 -0.01679 -0.00060
                  z  -0.04802  0.07139  0.20419  0.15610  0.00467 -0.12712
 10   c           x  -0.01365  0.00322  0.01725  0.01758 -0.22326  0.00209
                  y   0.22201 -0.21932  0.14912  0.02580 -0.00871 -0.00031
                  z  -0.06095  0.09054  0.25906  0.19803  0.00362 -0.09930
 11   h           x  -0.02755  0.02388  0.07629  0.06271 -0.22439  0.03203
                  y   0.08183 -0.35717  0.20583 -0.01240  0.00255  0.00011
                  z  -0.05877  0.08719  0.24963  0.19080  0.00380 -0.10409
 12   h           x   0.01164 -0.03436 -0.09017 -0.06452 -0.22120 -0.05238
                  y   0.42580  0.07636  0.04348  0.04923 -0.02804 -0.00102
                  z  -0.05114  0.07611  0.21758  0.16636  0.00441 -0.12032
 13   h           x  -0.00950 -0.00294 -0.00037  0.00411 -0.22292 -0.00685
                  y   0.31135 -0.21970  0.13446  0.07989 -0.01317 -0.00047
                  z  -0.07438  0.11052  0.31619  0.24171  0.00252 -0.07033
 14   c           x  -0.01584  0.00649  0.02662  0.02475 -0.22344  0.00684
                  y  -0.12101  0.03945  0.14277 -0.26858  0.00041  0.00002
                  z   0.02572 -0.03823 -0.10937 -0.08361  0.01068 -0.28612
 15   h           x  -0.02959  0.02694  0.08515  0.06951 -0.22456  0.03652
                  y  -0.26351 -0.09412  0.19882 -0.30963  0.01166  0.00044
                  z   0.02891 -0.04288 -0.12279 -0.09385  0.01094 -0.29292
 16   c           x  -0.00435 -0.01060 -0.02228 -0.01264 -0.22250 -0.01796
                  y  -0.05973  0.20155  0.09318 -0.28620 -0.00767 -0.00028
                  z   0.03860 -0.05745 -0.16421 -0.12555  0.01174 -0.31394
 17   h           x   0.00952 -0.03123 -0.08132 -0.05779 -0.22137 -0.04790
                  y   0.08046  0.33941  0.03647 -0.24799 -0.01893 -0.00069
                  z   0.03634 -0.05418 -0.15475 -0.11834  0.01156 -0.30915
 18   h           x  -0.00849 -0.00444 -0.00465  0.00084 -0.22284 -0.00902
                  y  -0.14907  0.20194  0.10784 -0.34029 -0.00321 -0.00011
                  z   0.05204 -0.07741 -0.22136 -0.16923  0.01283 -0.34292
 19   c           x  -0.02584  0.02135  0.06913  0.05725 -0.22426  0.02840
                  y  -0.10220 -0.16459  0.18933 -0.18845  0.00579  0.00022
                  z  -0.00489  0.00727  0.02081  0.01590  0.00819 -0.22011
 20   h           x  -0.03906  0.04101  0.12536  0.10023 -0.22533  0.05691
                  y  -0.24601 -0.28683  0.24284 -0.23411  0.01675  0.00063
                  z   0.00000  0.00000  0.00000  0.00000  0.00859 -0.23066

reduced mass(g/mol)     4.320    3.599    5.027    5.289    6.497    6.213


       mode               7        8        9       10       11       12

     frequency          53.33    88.32   146.85   171.70   251.75   289.44

     symmetry            a        a        a        a        a        a   

        IR               YES      YES      YES      YES      YES      YES
|dDIP/dQ|   (a.u.)     0.0002   0.0000   0.0005   0.0004   0.0000   0.0000
intensity (km/mol)       0.05     0.00     0.39     0.28     0.00     0.00
intensity (  %   )       0.05     0.00     0.40     0.28     0.00     0.00

       RAMAN             YES      YES      YES      YES      YES      YES

  1   c           x   0.00000  0.00001  0.00000 -0.01968 -0.04257  0.00001
                  y  -0.08246 -0.08792  0.02675 -0.00010  0.00000  0.17930
                  z   0.00001  0.00003  0.00004 -0.10350  0.11992 -0.00003
  2   c           x   0.00001  0.00000  0.00002 -0.01275  0.06719  0.00001
                  y  -0.10126 -0.13392  0.09210 -0.00007 -0.00004  0.09675
                  z   0.00001  0.00003  0.00002 -0.11094  0.08035 -0.00004
  3   c           x   0.00001  0.00000  0.00003 -0.02546  0.09840  0.00001
                  y  -0.10925 -0.04020  0.07652  0.00004 -0.00006 -0.11955
                  z   0.00000  0.00003 -0.00001 -0.11264 -0.06330 -0.00004
  4   c           x   0.00000  0.00001  0.00000 -0.01968  0.04257  0.00001
                  y  -0.08246  0.08792  0.02675  0.00010  0.00000 -0.17930
                  z  -0.00001  0.00003 -0.00004 -0.10350 -0.11992 -0.00003
  5   c           x  -0.00001  0.00000 -0.00002 -0.01275 -0.06719  0.00001
                  y  -0.10127  0.13392  0.09211  0.00007 -0.00004 -0.09674
                  z  -0.00001  0.00003 -0.00002 -0.11094 -0.08035 -0.00004
  6   h           x   0.00001 -0.00001  0.00004 -0.00741  0.14796  0.00001
                  y  -0.10846 -0.25234  0.08065 -0.00012 -0.00002  0.12219
                  z   0.00001  0.00003  0.00004 -0.10916  0.14829 -0.00005
  7   h           x   0.00002  0.00000  0.00006 -0.02520  0.18562  0.00001
                  y  -0.11769 -0.08239  0.05685  0.00005 -0.00006 -0.18301
                  z  -0.00001  0.00003 -0.00002 -0.11358 -0.09526 -0.00004
  8   h           x  -0.00001 -0.00001 -0.00004 -0.00741 -0.14796  0.00001
                  y  -0.10846  0.25233  0.08066  0.00012 -0.00002 -0.12219
                  z  -0.00001  0.00003 -0.00004 -0.10916 -0.14829 -0.00005
  9   c           x   0.00001  0.00001  0.00001 -0.05251  0.04068 -0.00001
                  y  -0.01480  0.13941 -0.18103  0.00006  0.00010  0.05526
                  z  -0.00002  0.00001 -0.00005  0.05386 -0.05553  0.00006
 10   c           x  -0.00002 -0.00001  0.00006  0.10276  0.19851 -0.00002
                  y   0.27501 -0.14795  0.00337 -0.00007 -0.00001  0.03026
                  z   0.00003 -0.00010  0.00006  0.23168  0.11918  0.00004
 11   h           x  -0.00008 -0.00002  0.00011  0.29777  0.41189 -0.00003
                  y   0.48178 -0.44556  0.36776 -0.00009 -0.00016 -0.32354
                  z   0.00010 -0.00018  0.00016  0.19969  0.08340 -0.00006
 12   h           x   0.00004  0.00002 -0.00003 -0.21703 -0.08802 -0.00003
                  y  -0.18591  0.38987 -0.51724  0.00005  0.00024  0.39721
                  z  -0.00008  0.00007 -0.00013  0.09176 -0.02495  0.00016
 13   h           x  -0.00001 -0.00001  0.00004  0.04305  0.13401 -0.00002
                  y   0.32073 -0.10211 -0.19906 -0.00017  0.00003  0.35966
                  z   0.00001 -0.00011  0.00006  0.42636  0.33234  0.00013
 14   c           x  -0.00001  0.00001 -0.00001 -0.05251 -0.04068 -0.00001
                  y  -0.01480 -0.13940 -0.18104 -0.00006  0.00010 -0.05526
                  z   0.00002  0.00001  0.00005  0.05386  0.05553  0.00006
 15   h           x  -0.00004  0.00002  0.00003 -0.21703  0.08803 -0.00003
                  y  -0.18591 -0.38986 -0.51725 -0.00005  0.00024 -0.39721
                  z   0.00008  0.00007  0.00013  0.09176  0.02495  0.00016
 16   c           x   0.00002 -0.00001 -0.00006  0.10276 -0.19851 -0.00002
                  y   0.27501  0.14795  0.00337  0.00007 -0.00001 -0.03026
                  z  -0.00003 -0.00010 -0.00006  0.23167 -0.11918  0.00004
 17   h           x   0.00008 -0.00002 -0.00011  0.29777 -0.41189 -0.00003
                  y   0.48178  0.44554  0.36777  0.00009 -0.00016  0.32354
                  z  -0.00010 -0.00018 -0.00016  0.19969 -0.08340 -0.00006
 18   h           x   0.00001 -0.00001 -0.00004  0.04305 -0.13401 -0.00002
                  y   0.32073  0.10212 -0.19906  0.00017  0.00003 -0.35966
                  z  -0.00001 -0.00011 -0.00006  0.42635 -0.33234  0.00013
 19   c           x  -0.00001  0.00000 -0.00003 -0.02546 -0.09840  0.00001
                  y  -0.10925  0.04020  0.07652 -0.00004 -0.00006  0.11954
                  z   0.00000  0.00003  0.00001 -0.11264  0.06330 -0.00004
 20   h           x  -0.00002  0.00000 -0.00006 -0.02520 -0.18562  0.00001
                  y  -0.11769  0.08238  0.05685 -0.00005 -0.00006  0.18300
                  z   0.00001  0.00003  0.00002 -0.11358  0.09526 -0.00004

reduced mass(g/mol)     3.315    2.518    2.061    3.358    3.191    2.323


       mode              13       14       15       16       17       18

     frequency         396.93   409.13   450.64   472.11   561.47   633.09

     symmetry            a        a        a        a        a        a   

        IR               YES      YES      YES      YES      YES      YES
|dDIP/dQ|   (a.u.)     0.0000   0.0003   0.0019   0.0010   0.0000   0.0000
intensity (km/mol)       0.00     0.13     6.66     1.76     0.00     0.00
intensity (  %   )       0.00     0.13     6.77     1.79     0.00     0.00

       RAMAN             YES      YES      YES      YES      YES      YES

  1   c           x  -0.13509 -0.00002  0.00005  0.05857  0.11663 -0.00001
                  y   0.00004 -0.02039  0.19747 -0.00006 -0.00010  0.03905
                  z  -0.13639 -0.00003 -0.00001 -0.04304 -0.06468  0.00000
  2   c           x  -0.06267 -0.00001 -0.00001  0.10165 -0.02025 -0.00003
                  y  -0.00008  0.21933 -0.05913 -0.00006  0.00000 -0.11570
                  z  -0.15508 -0.00003  0.00001 -0.07731 -0.02424  0.00001
  3   c           x  -0.05113 -0.00001 -0.00002  0.08369 -0.06298 -0.00002
                  y   0.00003 -0.21190 -0.09404  0.00006  0.00002  0.12077
                  z   0.00509  0.00000  0.00003 -0.07593  0.13491  0.00001
  4   c           x   0.13509  0.00002 -0.00005  0.05857 -0.11663 -0.00001
                  y   0.00004 -0.02039  0.19747  0.00006 -0.00010 -0.03905
                  z   0.13639  0.00003  0.00001 -0.04304  0.06468  0.00000
  5   c           x   0.06267  0.00001  0.00001  0.10165  0.02025 -0.00003
                  y  -0.00008  0.21933 -0.05913  0.00006  0.00000  0.11570
                  z   0.15508  0.00003 -0.00001 -0.07731  0.02424  0.00001
  6   h           x  -0.07021 -0.00002 -0.00006  0.10082 -0.18470 -0.00004
                  y  -0.00018  0.49020 -0.28295 -0.00006  0.00017 -0.18772
                  z  -0.15901 -0.00003 -0.00004 -0.07916 -0.15841  0.00000
  7   h           x  -0.25380 -0.00006 -0.00001  0.09608 -0.08543 -0.00002
                  y   0.00004 -0.39983 -0.34169  0.00008  0.00020  0.15454
                  z   0.08337  0.00002  0.00002 -0.08357  0.14421  0.00001
  8   h           x   0.07021  0.00002  0.00006  0.10082  0.18470 -0.00004
                  y  -0.00018  0.49021 -0.28295  0.00006  0.00017  0.18773
                  z   0.15901  0.00003  0.00004 -0.07915  0.15841  0.00000
  9   c           x   0.24090  0.00004 -0.00006 -0.02430 -0.09350  0.00003
                  y   0.00001  0.00589  0.06484 -0.00006  0.00003 -0.14042
                  z  -0.00633  0.00000 -0.00004  0.17534 -0.17049 -0.00004
 10   c           x   0.19946  0.00002 -0.00001 -0.18163  0.05642  0.00002
                  y   0.00001 -0.00216 -0.02812 -0.00002  0.00001  0.02389
                  z  -0.08526 -0.00002  0.00000  0.03407 -0.02259  0.00000
 11   h           x   0.15020  0.00001  0.00008 -0.49758  0.42734  0.00003
                  y   0.00015 -0.05686  0.24431 -0.00002  0.00000 -0.30220
                  z  -0.07930 -0.00004  0.00006  0.08746 -0.08305 -0.00010
 12   h           x   0.35581  0.00006 -0.00008 -0.05734 -0.04515  0.00003
                  y  -0.00012  0.02791 -0.20313 -0.00008  0.00009  0.18674
                  z  -0.02844  0.00000 -0.00011  0.17935 -0.18112  0.00005
 13   h           x   0.22060  0.00003 -0.00003 -0.09455 -0.04772  0.00001
                  y  -0.00012  0.04857 -0.38199  0.00006 -0.00003  0.51467
                  z  -0.14459 -0.00002 -0.00003 -0.26054  0.32188  0.00016
 14   c           x  -0.24090 -0.00004  0.00006 -0.02430  0.09350  0.00003
                  y   0.00001  0.00589  0.06484  0.00006  0.00003  0.14042
                  z   0.00633  0.00000  0.00004  0.17534  0.17049 -0.00004
 15   h           x  -0.35580 -0.00006  0.00008 -0.05734  0.04515  0.00003
                  y  -0.00012  0.02792 -0.20313  0.00008  0.00009 -0.18674
                  z   0.02844  0.00000  0.00011  0.17935  0.18112  0.00005
 16   c           x  -0.19946 -0.00002  0.00001 -0.18164 -0.05642  0.00002
                  y   0.00001 -0.00216 -0.02812  0.00002  0.00001 -0.02389
                  z   0.08526  0.00002  0.00000  0.03407  0.02259  0.00000
 17   h           x  -0.15020 -0.00001 -0.00008 -0.49758 -0.42734  0.00003
                  y   0.00015 -0.05686  0.24431  0.00002  0.00000  0.30221
                  z   0.07930  0.00004 -0.00006  0.08746  0.08305 -0.00010
 18   h           x  -0.22060 -0.00003  0.00003 -0.09455  0.04772  0.00001
                  y  -0.00012  0.04857 -0.38198 -0.00006 -0.00003 -0.51468
                  z   0.14459  0.00002  0.00003 -0.26054 -0.32188  0.00016
 19   c           x   0.05113  0.00001  0.00002  0.08370  0.06298 -0.00002
                  y   0.00003 -0.21190 -0.09404 -0.00006  0.00002 -0.12077
                  z  -0.00509  0.00000 -0.00003 -0.07593 -0.13491  0.00001
 20   h           x   0.25380  0.00006  0.00001  0.09608  0.08543 -0.00002
                  y   0.00004 -0.39983 -0.34169 -0.00008  0.00020 -0.15454
                  z  -0.08337 -0.00002 -0.00002 -0.08357 -0.14421  0.00001

reduced mass(g/mol)     4.806    3.065    2.248    3.205    2.822    2.104


       mode              19       20       21       22       23       24

     frequency         654.41   681.46   719.56   780.18   841.47   859.88

     symmetry            a        a        a        a        a        a   

        IR               YES      YES      YES      YES      YES      YES
|dDIP/dQ|   (a.u.)     0.0000   0.0006   0.0015   0.0000   0.0000   0.0000
intensity (km/mol)       0.00     0.58     3.75     0.00     0.00     0.00
intensity (  %   )       0.00     0.59     3.81     0.00     0.00     0.00

       RAMAN             YES      YES      YES      YES      YES      YES

  1   c           x   0.00166  0.00001  0.02046  0.00000 -0.07215  0.00000
                  y  -0.00007  0.08492  0.00000  0.26860  0.00002  0.00026
                  z   0.10407  0.00000  0.00259  0.00000 -0.01495  0.00000
  2   c           x  -0.32279 -0.00004 -0.13233  0.00001  0.07161  0.00000
                  y  -0.00001  0.02061  0.00000 -0.11120 -0.00002 -0.07758
                  z   0.16267  0.00001 -0.02343 -0.00001 -0.24611  0.00000
  3   c           x  -0.25988 -0.00004 -0.13567  0.00001 -0.00502  0.00000
                  y   0.00000  0.01591  0.00000  0.11122 -0.00002 -0.07281
                  z  -0.23033 -0.00001 -0.06800  0.00000 -0.24494  0.00000
  4   c           x  -0.00166 -0.00001  0.02046  0.00000  0.07215  0.00000
                  y  -0.00007  0.08492  0.00000 -0.26859  0.00002 -0.00024
                  z  -0.10407  0.00000  0.00259  0.00000  0.01495  0.00000
  5   c           x   0.32279  0.00004 -0.13233  0.00001 -0.07161  0.00000
                  y  -0.00001  0.02061  0.00000  0.11120 -0.00002  0.07757
                  z  -0.16267 -0.00001 -0.02343 -0.00001  0.24611  0.00000
  6   h           x  -0.25207 -0.00006 -0.20277  0.00002  0.21209  0.00000
                  y   0.00017 -0.30645 -0.00001 -0.25493  0.00011  0.50099
                  z   0.22010 -0.00001 -0.08532 -0.00001 -0.15279  0.00001
  7   h           x  -0.14900 -0.00004 -0.22708  0.00001 -0.20583 -0.00001
                  y   0.00019 -0.31293  0.00000  0.27444  0.00013  0.48672
                  z  -0.27246 -0.00001 -0.03362  0.00000 -0.18604  0.00001
  8   h           x   0.25207  0.00006 -0.20277  0.00002 -0.21209  0.00000
                  y   0.00017 -0.30645  0.00001  0.25493  0.00011 -0.50093
                  z  -0.22010  0.00001 -0.08532 -0.00001  0.15279  0.00001
  9   c           x  -0.01143  0.00000  0.18111 -0.00002 -0.10810  0.00000
                  y   0.00006 -0.11687  0.00000  0.12859 -0.00001  0.00011
                  z  -0.05693 -0.00005  0.12613  0.00003 -0.07618  0.00000
 10   c           x   0.02396  0.00001  0.09222 -0.00001 -0.07729  0.00000
                  y   0.00000  0.01735  0.00000 -0.01301  0.00000 -0.00193
                  z  -0.04076  0.00000 -0.01126 -0.00001  0.00164  0.00000
 11   h           x   0.12435  0.00006 -0.26447  0.00005  0.21388  0.00000
                  y   0.00016 -0.25660  0.00001  0.21932  0.00002 -0.01648
                  z  -0.05682 -0.00009  0.04316  0.00005 -0.04319  0.00000
 12   h           x   0.00103 -0.00001  0.18171  0.00003 -0.10862  0.00000
                  y  -0.00009  0.18161 -0.00009 -0.16777  0.00004 -0.00096
                  z  -0.05977  0.00003  0.13346 -0.00006 -0.08358  0.00000
 13   h           x  -0.00019 -0.00001  0.20517 -0.00002 -0.17793  0.00000
                  y  -0.00022  0.43301  0.00000 -0.41214 -0.00005  0.02427
                  z   0.04037  0.00017 -0.36787 -0.00008  0.31943  0.00001
 14   c           x   0.01143  0.00000  0.18111 -0.00002  0.10810  0.00000
                  y   0.00006 -0.11687  0.00000 -0.12860 -0.00001 -0.00012
                  z   0.05693  0.00005  0.12613  0.00003  0.07618  0.00000
 15   h           x  -0.00103  0.00001  0.18171  0.00003  0.10862  0.00000
                  y  -0.00009  0.18161  0.00009  0.16777  0.00004  0.00097
                  z   0.05977 -0.00003  0.13346 -0.00006  0.08358  0.00000
 16   c           x  -0.02396 -0.00001  0.09222 -0.00001  0.07729  0.00000
                  y   0.00000  0.01735  0.00000  0.01301  0.00000  0.00193
                  z   0.04076  0.00000 -0.01126 -0.00001 -0.00164  0.00000
 17   h           x  -0.12434 -0.00006 -0.26447  0.00005 -0.21388  0.00000
                  y   0.00016 -0.25660 -0.00001 -0.21932  0.00002  0.01646
                  z   0.05682  0.00009  0.04316  0.00005  0.04319  0.00000
 18   h           x   0.00019  0.00001  0.20517 -0.00002  0.17793  0.00000
                  y  -0.00022  0.43300  0.00000  0.41214 -0.00005 -0.02424
                  z  -0.04037 -0.00017 -0.36787 -0.00008 -0.31943  0.00001
 19   c           x   0.25988  0.00004 -0.13567  0.00001  0.00502  0.00000
                  y   0.00000  0.01591  0.00000 -0.11123 -0.00002  0.07279
                  z   0.23033  0.00001 -0.06800  0.00000  0.24494  0.00000
 20   h           x   0.14900  0.00004 -0.22707  0.00001  0.20583 -0.00001
                  y   0.00019 -0.31292  0.00000 -0.27444  0.00013 -0.48664
                  z   0.27246  0.00001 -0.03362  0.00000  0.18604  0.00001

reduced mass(g/mol)     6.899    1.489    3.183    3.508    4.410    1.257


       mode              25       26       27       28       29       30

     frequency         862.54   927.69   927.81   979.25   995.71  1044.13

     symmetry            a        a        a        a        a        a   

        IR               YES      YES      YES      YES      YES      YES
|dDIP/dQ|   (a.u.)     0.0039   0.0000   0.0046   0.0000   0.0001   0.0005
intensity (km/mol)      27.70     0.00    37.96     0.00     0.01     0.46
intensity (  %   )      28.14     0.00    38.57     0.00     0.01     0.47

       RAMAN             YES      YES      YES      YES      YES      YES

  1   c           x  -0.00001  0.00000  0.00000  0.00000  0.00000 -0.04224
                  y  -0.12541 -0.00294  0.00336 -0.01487 -0.00051  0.00000
                  z   0.00000  0.00000  0.00000  0.00000  0.00000 -0.01515
  2   c           x   0.00001  0.00000  0.00000  0.00000  0.00000  0.05807
                  y   0.08083 -0.00072 -0.00255  0.06921 -0.08425  0.00000
                  z  -0.00002  0.00000  0.00000  0.00000  0.00000 -0.18654
  3   c           x   0.00000  0.00000  0.00000  0.00000  0.00000  0.00171
                  y   0.07385 -0.00056  0.00080 -0.07044  0.08576  0.00000
                  z  -0.00002  0.00000  0.00000  0.00000  0.00000  0.21162
  4   c           x   0.00001  0.00000  0.00000  0.00000  0.00000 -0.04224
                  y  -0.12542  0.00294  0.00336  0.01487 -0.00051  0.00000
                  z   0.00000  0.00000  0.00000  0.00000  0.00000 -0.01515
  5   c           x  -0.00001  0.00000  0.00000  0.00000  0.00000  0.05807
                  y   0.08084  0.00073 -0.00255 -0.06921 -0.08425  0.00000
                  z   0.00002  0.00000  0.00000  0.00000  0.00000 -0.18655
  6   h           x   0.00003  0.00000  0.00000  0.00001  0.00000 -0.20372
                  y  -0.46744  0.00683  0.01516 -0.48488  0.48373 -0.00001
                  z  -0.00002  0.00000  0.00000  0.00000  0.00001 -0.40739
  7   h           x  -0.00001  0.00001  0.00000  0.00001  0.00000 -0.26135
                  y  -0.45903  0.00492 -0.00979  0.50280 -0.50100  0.00001
                  z  -0.00002  0.00000  0.00000  0.00000 -0.00001  0.31910
  8   h           x  -0.00003  0.00000  0.00000  0.00001  0.00000 -0.20373
                  y  -0.46755 -0.00684  0.01516  0.48487  0.48373  0.00001
                  z   0.00002  0.00000  0.00000  0.00000 -0.00001 -0.40740
  9   c           x  -0.00001  0.00000  0.00000  0.00000  0.00000 -0.00354
                  y   0.06395 -0.04249 -0.04263 -0.00980  0.00010  0.00000
                  z   0.00001 -0.00002 -0.00001  0.00000  0.00000 -0.00667
 10   c           x  -0.00001 -0.00001  0.00000  0.00000  0.00000  0.03100
                  y  -0.00394  0.12000  0.12012  0.00066 -0.00232  0.00000
                  z  -0.00001  0.00004  0.00004  0.00000  0.00000  0.01194
 11   h           x   0.00006  0.00001  0.00001 -0.00001  0.00000 -0.10509
                  y   0.07972 -0.48401 -0.48375 -0.02239  0.02202 -0.00004
                  z   0.00001 -0.00014 -0.00014  0.00000  0.00001  0.03288
 12   h           x   0.00002  0.00000  0.00001 -0.00001  0.00000 -0.04197
                  y  -0.04172  0.03408  0.03444 -0.02348  0.00616 -0.00003
                  z  -0.00003  0.00000  0.00000  0.00000  0.00000  0.00321
 13   h           x  -0.00002  0.00000  0.00001  0.00000  0.00000  0.07593
                  y  -0.17544 -0.49780 -0.49869  0.03113  0.00359  0.00005
                  z   0.00001 -0.00015 -0.00015  0.00000  0.00000 -0.12885
 14   c           x   0.00001  0.00000  0.00000  0.00000  0.00000 -0.00354
                  y   0.06395  0.04253 -0.04259  0.00980  0.00010  0.00000
                  z  -0.00001 -0.00002  0.00001  0.00000  0.00000 -0.00667
 15   h           x  -0.00002  0.00000 -0.00001 -0.00001  0.00000 -0.04197
                  y  -0.04172 -0.03411  0.03441  0.02348  0.00616  0.00003
                  z   0.00003  0.00000  0.00000  0.00000  0.00000  0.00321
 16   c           x   0.00001 -0.00001  0.00000  0.00000  0.00000  0.03101
                  y  -0.00393 -0.12012  0.12001 -0.00066 -0.00232  0.00000
                  z   0.00001  0.00004 -0.00004  0.00000  0.00000  0.01194
 17   h           x  -0.00006  0.00001 -0.00001 -0.00001  0.00000 -0.10509
                  y   0.07972  0.48448 -0.48328  0.02239  0.02202  0.00004
                  z  -0.00001 -0.00014  0.00014  0.00000 -0.00001  0.03288
 18   h           x   0.00002  0.00000 -0.00001  0.00000  0.00000  0.07593
                  y  -0.17545  0.49828 -0.49821 -0.03113  0.00359 -0.00005
                  z  -0.00001 -0.00015  0.00015  0.00000  0.00000 -0.12886
 19   c           x   0.00000  0.00000  0.00000  0.00000  0.00000  0.00171
                  y   0.07386  0.00056  0.00080  0.07044  0.08576  0.00000
                  z   0.00002  0.00000  0.00000  0.00000  0.00000  0.21162
 20   h           x   0.00001  0.00001  0.00000  0.00001  0.00000 -0.26135
                  y  -0.45912 -0.00492 -0.00979 -0.50279 -0.50102 -0.00001
                  z   0.00002  0.00000  0.00000  0.00000  0.00001  0.31910

reduced mass(g/mol)     1.708    1.365    1.366    1.230    1.326    2.903


       mode              31       32       33       34       35       36

     frequency        1067.83  1067.94  1072.20  1079.74  1173.62  1229.47

     symmetry            a        a        a        a        a        a   

        IR               YES      YES      YES      YES      YES      YES
|dDIP/dQ|   (a.u.)     0.0029   0.0000   0.0024   0.0000   0.0010   0.0000
intensity (km/mol)      15.24     0.00     9.89     0.00     1.75     0.00
intensity (  %   )      15.48     0.00    10.05     0.00     1.78     0.00

       RAMAN             YES      YES      YES      YES      YES      YES

  1   c           x   0.00003  0.00002  0.03228 -0.06444 -0.05605 -0.07003
                  y   0.00200  0.00301 -0.00002  0.00002  0.00000  0.00000
                  z   0.00001  0.00002  0.05197 -0.02336  0.04314 -0.00362
  2   c           x   0.00001  0.00000  0.01014 -0.02116  0.07605  0.01075
                  y  -0.00439 -0.00334  0.00001 -0.00001  0.00000  0.00000
                  z  -0.00002 -0.00003 -0.05774  0.05023 -0.02721  0.03381
  3   c           x  -0.00001 -0.00001 -0.02703  0.03288 -0.04545 -0.02803
                  y   0.00325 -0.00286  0.00000  0.00000  0.00000  0.00000
                  z  -0.00001 -0.00001 -0.02204  0.02461 -0.03309  0.03981
  4   c           x  -0.00003  0.00002  0.03228  0.06444 -0.05605  0.07003
                  y   0.00201 -0.00301  0.00002  0.00002  0.00000  0.00000
                  z  -0.00001  0.00002  0.05197  0.02336  0.04314  0.00362
  5   c           x  -0.00001  0.00000  0.01014  0.02116  0.07605 -0.01075
                  y  -0.00439  0.00333 -0.00001 -0.00001  0.00000  0.00000
                  z   0.00002 -0.00003 -0.05774 -0.05023 -0.02721 -0.03381
  6   h           x  -0.00001 -0.00001 -0.00085  0.03877  0.47749  0.33657
                  y   0.00041 -0.01562 -0.00001  0.00002 -0.00001  0.00000
                  z  -0.00003 -0.00004 -0.07463  0.10709  0.28650  0.30039
  7   h           x  -0.00001 -0.00011 -0.21828  0.06670 -0.38049 -0.47354
                  y  -0.00431  0.02858  0.00000  0.00001  0.00000  0.00000
                  z  -0.00001  0.00003  0.04533  0.01732  0.08059  0.20919
  8   h           x   0.00001 -0.00001 -0.00085 -0.03877  0.47749 -0.33657
                  y   0.00041  0.01562  0.00001  0.00002  0.00001  0.00000
                  z   0.00003 -0.00004 -0.07463 -0.10709  0.28651 -0.30039
  9   c           x   0.00000  0.00001  0.03341  0.02978 -0.01000 -0.02450
                  y   0.05892 -0.05961  0.00001  0.00000  0.00000  0.00001
                  z   0.00001  0.00001  0.05645  0.05549 -0.00934 -0.02691
 10   c           x   0.00002 -0.00002 -0.07219 -0.08814  0.02751 -0.00106
                  y  -0.00158  0.00168  0.00001  0.00001  0.00000  0.00000
                  z   0.00001 -0.00002 -0.04606 -0.04339  0.00515  0.00852
 11   h           x  -0.00006  0.00012  0.34927  0.35330 -0.04830 -0.05972
                  y  -0.33854  0.33753 -0.00013 -0.00005 -0.00003 -0.00002
                  z  -0.00008  0.00006 -0.11073 -0.11000  0.01525  0.01941
 12   h           x  -0.00005  0.00012  0.34694  0.33380 -0.02288 -0.12030
                  y  -0.57577  0.57568 -0.00029 -0.00017  0.00000 -0.00003
                  z  -0.00015  0.00015 -0.01374 -0.01393 -0.00496 -0.00964
 13   h           x   0.00004 -0.00007 -0.19840 -0.22676  0.06882 -0.00198
                  y   0.22468 -0.22337  0.00000 -0.00006  0.00005  0.00001
                  z  -0.00001  0.00006  0.36128  0.39919 -0.12308  0.00585
 14   c           x   0.00000  0.00001  0.03341 -0.02978 -0.01000  0.02450
                  y   0.05890  0.05963 -0.00001  0.00000  0.00000  0.00001
                  z  -0.00001  0.00001  0.05645 -0.05549 -0.00934  0.02691
 15   h           x   0.00005  0.00012  0.34694 -0.33380 -0.02288  0.12030
                  y  -0.57563 -0.57583  0.00029 -0.00017  0.00000 -0.00003
                  z   0.00015  0.00015 -0.01374  0.01393 -0.00496  0.00964
 16   c           x  -0.00002 -0.00002 -0.07219  0.08814  0.02751  0.00106
                  y  -0.00158 -0.00168 -0.00001  0.00001  0.00000  0.00000
                  z  -0.00001 -0.00002 -0.04606  0.04339  0.00515 -0.00852
 17   h           x   0.00006  0.00012  0.34928 -0.35330 -0.04830  0.05972
                  y  -0.33845 -0.33761  0.00013 -0.00005  0.00003 -0.00002
                  z   0.00008  0.00006 -0.11073  0.11000  0.01525 -0.01941
 18   h           x  -0.00004 -0.00007 -0.19840  0.22676  0.06882  0.00198
                  y   0.22462  0.22343  0.00000 -0.00006 -0.00005  0.00001
                  z   0.00001  0.00006  0.36128 -0.39918 -0.12308 -0.00585
 19   c           x   0.00001 -0.00001 -0.02703 -0.03288 -0.04545  0.02803
                  y   0.00325  0.00286  0.00000  0.00000  0.00000  0.00000
                  z   0.00001 -0.00001 -0.02204 -0.02461 -0.03309 -0.03981
 20   h           x   0.00001 -0.00011 -0.21827 -0.06670 -0.38049  0.47353
                  y  -0.00430 -0.02858  0.00000  0.00001  0.00000  0.00000
                  z   0.00001  0.00003  0.04533 -0.01732  0.08059 -0.20919

reduced mass(g/mol)     1.085    1.087    1.449    1.513    1.353    1.227


       mode              37       38       39       40       41       42

     frequency        1261.63  1268.21  1355.12  1360.19  1387.27  1390.29

     symmetry            a        a        a        a        a        a   

        IR               YES      YES      YES      YES      YES      YES
|dDIP/dQ|   (a.u.)     0.0007   0.0000   0.0028   0.0000   0.0000   0.0012
intensity (km/mol)       0.80     0.00    14.02     0.00     0.00     2.74
intensity (  %   )       0.81     0.00    14.24     0.00     0.00     2.79

       RAMAN             YES      YES      YES      YES      YES      YES

  1   c           x  -0.18516  0.21988  0.02952  0.01685 -0.00068  0.01145
                  y  -0.00001  0.00001  0.00000  0.00000  0.00000  0.00000
                  z   0.02215 -0.00801  0.22515  0.09276 -0.05134 -0.09333
  2   c           x  -0.00703  0.11456 -0.09785  0.04187 -0.01680  0.05183
                  y   0.00000  0.00000  0.00000  0.00000  0.00000  0.00000
                  z  -0.06280  0.00509 -0.08513  0.01350 -0.01473  0.04620
  3   c           x   0.04039 -0.09386  0.13198  0.01263 -0.02050 -0.07150
                  y   0.00000  0.00000  0.00000  0.00000  0.00000  0.00000
                  z   0.01475 -0.06394 -0.09837 -0.00820  0.01246  0.02803
  4   c           x  -0.18516 -0.21988  0.02952 -0.01685  0.00069  0.01145
                  y   0.00001  0.00001  0.00000  0.00000  0.00000  0.00000
                  z   0.02215  0.00801  0.22515 -0.09276  0.05134 -0.09333
  5   c           x  -0.00703 -0.11456 -0.09785 -0.04187  0.01680  0.05183
                  y   0.00000  0.00000  0.00000  0.00000  0.00000  0.00000
                  z  -0.06280 -0.00509 -0.08513 -0.01350  0.01473  0.04620
  6   h           x   0.15600  0.40209 -0.14053 -0.29964  0.19891  0.01243
                  y   0.00001 -0.00001  0.00000  0.00000  0.00000  0.00000
                  z   0.07029  0.21626 -0.12613 -0.26803  0.16061  0.01494
  7   h           x   0.51865 -0.16313 -0.12285 -0.39810  0.25878  0.01924
                  y   0.00000  0.00000 -0.00001  0.00000  0.00000  0.00000
                  z  -0.16675 -0.06170 -0.00981  0.14364 -0.08996 -0.00598
  8   h           x   0.15600 -0.40209 -0.14053  0.29964 -0.19891  0.01244
                  y  -0.00001 -0.00001  0.00000  0.00000  0.00000  0.00000
                  z   0.07029 -0.21626 -0.12613  0.26803 -0.16061  0.01495
  9   c           x   0.03262  0.04972 -0.06201  0.03323 -0.00227  0.00579
                  y  -0.00001 -0.00002  0.00003 -0.00002 -0.00002  0.00002
                  z   0.05359  0.07712 -0.11165  0.06537  0.05072 -0.05787
 10   c           x   0.02249  0.02856  0.01681 -0.00801  0.01759 -0.02190
                  y   0.00000  0.00001 -0.00003  0.00002  0.00002 -0.00002
                  z  -0.01169 -0.02769  0.09109 -0.05317 -0.06826  0.07488
 11   h           x   0.09755  0.15244 -0.35858  0.21888  0.23637 -0.27871
                  y   0.00002  0.00005 -0.00008  0.00004  0.00004 -0.00004
                  z  -0.02747 -0.05291  0.16165 -0.09612 -0.11390  0.12879
 12   h           x   0.33545  0.38499  0.34689 -0.25166 -0.49691  0.57304
                  y   0.00004  0.00005  0.00005 -0.00004 -0.00006  0.00007
                  z  -0.00388  0.01498 -0.21696  0.13701  0.17269 -0.19764
 13   h           x   0.04446  0.03751  0.05516 -0.02322  0.02059 -0.03611
                  y   0.00001 -0.00001  0.00005 -0.00002  0.00001 -0.00002
                  z  -0.06275 -0.02819 -0.06021  0.01225 -0.04787  0.08483
 14   c           x   0.03262 -0.04972 -0.06201 -0.03323  0.00227  0.00579
                  y   0.00001 -0.00002 -0.00003 -0.00002 -0.00002 -0.00002
                  z   0.05359 -0.07712 -0.11165 -0.06537 -0.05072 -0.05787
 15   h           x   0.33545 -0.38499  0.34688  0.25166  0.49693  0.57302
                  y  -0.00004  0.00005 -0.00005 -0.00004 -0.00006 -0.00007
                  z  -0.00388 -0.01498 -0.21696 -0.13701 -0.17270 -0.19763
 16   c           x   0.02249 -0.02856  0.01681  0.00801 -0.01759 -0.02190
                  y   0.00000  0.00001  0.00003  0.00002  0.00002  0.00002
                  z  -0.01169  0.02769  0.09109  0.05317  0.06827  0.07488
 17   h           x   0.09755 -0.15244 -0.35858 -0.21889 -0.23638 -0.27870
                  y  -0.00002  0.00005  0.00008  0.00004  0.00004  0.00004
                  z  -0.02747  0.05291  0.16165  0.09612  0.11390  0.12879
 18   h           x   0.04446 -0.03751  0.05516  0.02322 -0.02060 -0.03611
                  y  -0.00001 -0.00001 -0.00005 -0.00002  0.00001  0.00002
                  z  -0.06275  0.02819 -0.06022 -0.01224  0.04787  0.08483
 19   c           x   0.04039  0.09387  0.13198 -0.01263  0.02050 -0.07150
                  y   0.00000  0.00000  0.00000  0.00000  0.00000  0.00000
                  z   0.01475  0.06394 -0.09837  0.00820 -0.01246  0.02803
 20   h           x   0.51865  0.16313 -0.12286  0.39810 -0.25878  0.01925
                  y   0.00000  0.00000  0.00001  0.00000  0.00000  0.00000
                  z  -0.16675  0.06170 -0.00980 -0.14364  0.08996 -0.00599

reduced mass(g/mol)     2.003    2.867    3.657    1.433    1.256    1.647


       mode              43       44       45       46       47       48

     frequency        1478.36  1523.24  1532.72  1595.21  1641.01  1688.67

     symmetry            a        a        a        a        a        a   

        IR               YES      YES      YES      YES      YES      YES
|dDIP/dQ|   (a.u.)     0.0032   0.0000   0.0005   0.0027   0.0000   0.0000
intensity (km/mol)      18.07     0.00     0.46    12.92     0.00     0.00
intensity (  %   )      18.36     0.00     0.47    13.13     0.00     0.00

       RAMAN             YES      YES      YES      YES      YES      YES

  1   c           x  -0.00406  0.03417 -0.02137  0.16267 -0.02998  0.18638
                  y   0.00000  0.00000  0.00000  0.00000  0.00000  0.00000
                  z   0.11564  0.02247  0.04486  0.04224  0.29958  0.00566
  2   c           x   0.17676  0.00364  0.02615 -0.06622 -0.06252 -0.25721
                  y   0.00000  0.00000  0.00000  0.00000  0.00000  0.00000
                  z   0.03044 -0.01750 -0.02414 -0.11425 -0.20116 -0.09992
  3   c           x  -0.14458 -0.02764 -0.04105 -0.11786 -0.12006  0.29046
                  y   0.00000  0.00000  0.00000  0.00000  0.00000  0.00000
                  z  -0.06493  0.01259  0.00011  0.07722  0.16556 -0.03578
  4   c           x  -0.00406 -0.03417 -0.02137  0.16267  0.02999 -0.18638
                  y   0.00000  0.00000  0.00000  0.00000  0.00000  0.00000
                  z   0.11564 -0.02247  0.04486  0.04224 -0.29957 -0.00566
  5   c           x   0.17676 -0.00364  0.02615 -0.06622  0.06252  0.25721
                  y   0.00000  0.00000  0.00000  0.00000  0.00000  0.00000
                  z   0.03044  0.01750 -0.02414 -0.11425  0.20116  0.09992
  6   h           x  -0.31362  0.03810  0.03979  0.37181  0.32078  0.20533
                  y   0.00000  0.00000  0.00000 -0.00001  0.00000 -0.00001
                  z  -0.39195  0.00657 -0.02356  0.21996  0.07974  0.29436
  7   h           x   0.21474  0.04472  0.13746  0.44994  0.29128 -0.31480
                  y   0.00000  0.00000  0.00000  0.00000  0.00000  0.00000
                  z  -0.22431 -0.01445 -0.07047 -0.12045  0.03489  0.20294
  8   h           x  -0.31361 -0.03810  0.03979  0.37180 -0.32077 -0.20533
                  y   0.00000  0.00000  0.00000  0.00001  0.00000 -0.00001
                  z  -0.39195 -0.00657 -0.02356  0.21996 -0.07974 -0.29436
  9   c           x  -0.07038  0.10013  0.07873 -0.03741  0.03526  0.07090
                  y  -0.00001  0.00001  0.00001  0.00000  0.00000  0.00001
                  z  -0.00028 -0.02690 -0.03136 -0.02076  0.00681 -0.02397
 10   c           x   0.03249 -0.00132  0.00997 -0.01759 -0.05909 -0.03939
                  y   0.00000  0.00001  0.00001 -0.00001 -0.00001 -0.00001
                  z  -0.00807 -0.02331 -0.02759  0.02034  0.04213  0.02940
 11   h           x   0.13242 -0.40555 -0.40256  0.09165  0.23774  0.11001
                  y   0.00000 -0.00001 -0.00002 -0.00001  0.00003  0.00002
                  z  -0.03195  0.05401  0.04932  0.00300 -0.00228  0.01161
 12   h           x  -0.02158 -0.20901 -0.24926 -0.03039  0.16996 -0.08597
                  y   0.00000 -0.00001 -0.00001 -0.00001  0.00002  0.00003
                  z  -0.00746  0.04034  0.04104 -0.02738 -0.02990  0.00768
 13   h           x   0.10439 -0.17194 -0.15027  0.02752  0.00705 -0.01033
                  y   0.00008 -0.00016 -0.00015  0.00005  0.00004  0.00002
                  z  -0.21181  0.48971  0.45789 -0.13225 -0.18689 -0.08084
 14   c           x  -0.07038 -0.10013  0.07873 -0.03741 -0.03526 -0.07090
                  y   0.00001  0.00001 -0.00001  0.00000  0.00000  0.00001
                  z  -0.00028  0.02690 -0.03136 -0.02076 -0.00681  0.02397
 15   h           x  -0.02158  0.20901 -0.24925 -0.03039 -0.16996  0.08597
                  y   0.00000 -0.00001  0.00001  0.00001  0.00002  0.00003
                  z  -0.00746 -0.04034  0.04104 -0.02738  0.02990 -0.00768
 16   c           x   0.03249  0.00132  0.00997 -0.01759  0.05909  0.03939
                  y   0.00000  0.00001 -0.00001  0.00001 -0.00001 -0.00001
                  z  -0.00807  0.02331 -0.02759  0.02034 -0.04213 -0.02940
 17   h           x   0.13242  0.40555 -0.40255  0.09165 -0.23774 -0.11001
                  y   0.00000 -0.00001  0.00002  0.00001  0.00003  0.00002
                  z  -0.03195 -0.05401  0.04932  0.00300  0.00228 -0.01161
 18   h           x   0.10439  0.17194 -0.15027  0.02752 -0.00705  0.01033
                  y  -0.00008 -0.00016  0.00015 -0.00005  0.00004  0.00002
                  z  -0.21181 -0.48972  0.45788 -0.13225  0.18689  0.08085
 19   c           x  -0.14458  0.02764 -0.04105 -0.11786  0.12006 -0.29046
                  y   0.00000  0.00000  0.00000  0.00000  0.00000  0.00000
                  z  -0.06493 -0.01259  0.00011  0.07722 -0.16556  0.03578
 20   h           x   0.21475 -0.04472  0.13746  0.44995 -0.29128  0.31480
                  y   0.00000  0.00000  0.00000  0.00000  0.00000  0.00000
                  z  -0.22431  0.01445 -0.07047 -0.12045 -0.03489 -0.20294

reduced mass(g/mol)     2.697    1.321    1.304    2.506    5.044    5.510


       mode              49       50       51       52       53       54

     frequency        1756.71  1756.96  3322.41  3323.14  3360.77  3360.82

     symmetry            a        a        a        a        a        a   

        IR               YES      YES      YES      YES      YES      YES
|dDIP/dQ|   (a.u.)     0.0000   0.0010   0.0074   0.0000   0.0012   0.0000
intensity (km/mol)       0.00     1.83    98.43     0.00     2.43     0.00
intensity (  %   )       0.00     1.86   100.00     0.00     2.47     0.00

       RAMAN             YES      YES      YES      YES      YES      YES

  1   c           x   0.00804 -0.04878  0.00015  0.00020 -0.00161 -0.00162
                  y  -0.00001  0.00001  0.00000  0.00000  0.00000  0.00000
                  z  -0.06559  0.03005  0.00020  0.00019 -0.00033 -0.00030
  2   c           x   0.06094  0.01959  0.00059  0.00034  0.00023 -0.00084
                  y   0.00000  0.00000  0.00000  0.00000  0.00000  0.00000
                  z   0.05391 -0.00184 -0.00093 -0.00083 -0.00108  0.00082
  3   c           x  -0.05362 -0.01142  0.00006  0.00015  0.00111 -0.00127
                  y   0.00000  0.00000  0.00000  0.00000  0.00000  0.00000
                  z  -0.02008 -0.00878  0.00074 -0.00037  0.00318 -0.00345
  4   c           x  -0.00802 -0.04878  0.00015 -0.00020 -0.00162  0.00161
                  y  -0.00001 -0.00001  0.00000  0.00000  0.00000  0.00000
                  z   0.06558  0.03008  0.00020 -0.00019 -0.00033  0.00030
  5   c           x  -0.06095  0.01956  0.00059 -0.00034  0.00022  0.00084
                  y   0.00000  0.00000  0.00000  0.00000  0.00000  0.00000
                  z  -0.05391 -0.00186 -0.00093  0.00083 -0.00108 -0.00083
  6   h           x  -0.04615 -0.03650 -0.00605 -0.00378 -0.00736  0.00754
                  y  -0.00001  0.00001  0.00000  0.00000  0.00000  0.00000
                  z  -0.03115 -0.05364  0.00788  0.00512  0.00970 -0.00963
  7   h           x   0.02097  0.01562 -0.00271  0.00081 -0.01196  0.01367
                  y   0.00000  0.00000  0.00000  0.00000  0.00000  0.00000
                  z  -0.05573 -0.02300 -0.00841  0.00281 -0.03651  0.04047
  8   h           x   0.04617 -0.03648 -0.00605  0.00378 -0.00733 -0.00757
                  y  -0.00001 -0.00001  0.00000  0.00000  0.00000  0.00000
                  z   0.03117 -0.05362  0.00788 -0.00512  0.00966  0.00967
  9   c           x   0.21138  0.22338  0.00758 -0.00752  0.01015 -0.01012
                  y   0.00004  0.00004  0.00000  0.00000 -0.00002  0.00002
                  z  -0.13987 -0.13865  0.00950 -0.00948  0.06064 -0.06038
 10   c           x  -0.18083 -0.18485 -0.03661  0.03662  0.00903 -0.00886
                  y  -0.00005 -0.00005 -0.00001  0.00001  0.00000  0.00000
                  z   0.14956  0.15138  0.03133 -0.03128 -0.01384  0.01371
 11   h           x   0.38021  0.39058 -0.08250  0.08254  0.02663 -0.02635
                  y   0.00000  0.00000  0.00014 -0.00014 -0.00004  0.00004
                  z   0.09362  0.09402 -0.47681  0.47719  0.14147 -0.13966
 12   h           x  -0.28308 -0.27679 -0.03536  0.03516 -0.15258  0.15191
                  y   0.00002  0.00002  0.00004 -0.00004  0.00018 -0.00018
                  z  -0.05779 -0.05521 -0.15872  0.15750 -0.66747  0.66461
 13   h           x  -0.06446 -0.06806  0.46307 -0.46321 -0.07987  0.07815
                  y   0.00012  0.00012 -0.00004  0.00004  0.00000  0.00000
                  z  -0.34437 -0.34567  0.14937 -0.14954 -0.02592  0.02536
 14   c           x  -0.21149  0.22328  0.00758  0.00752  0.01011  0.01017
                  y   0.00004 -0.00004  0.00000  0.00000  0.00002  0.00002
                  z   0.13993 -0.13858  0.00950  0.00948  0.06036  0.06065
 15   h           x   0.28321 -0.27665 -0.03536 -0.03516 -0.15189 -0.15260
                  y   0.00002 -0.00002 -0.00004 -0.00004 -0.00018 -0.00018
                  z   0.05782 -0.05518 -0.15872 -0.15750 -0.66445 -0.66762
 16   c           x   0.18092 -0.18476 -0.03662 -0.03662  0.00899  0.00890
                  y  -0.00005  0.00005  0.00001  0.00001  0.00000  0.00000
                  z  -0.14963  0.15131  0.03133  0.03128 -0.01377 -0.01377
 17   h           x  -0.38040  0.39039 -0.08250 -0.08254  0.02651  0.02647
                  y   0.00000  0.00000 -0.00014 -0.00014  0.00004  0.00004
                  z  -0.09366  0.09398 -0.47682 -0.47718  0.14084  0.14030
 18   h           x   0.06449 -0.06802  0.46307  0.46320 -0.07952 -0.07851
                  y   0.00012 -0.00012  0.00004  0.00004  0.00000  0.00000
                  z   0.34454 -0.34550  0.14937  0.14953 -0.02581 -0.02548
 19   c           x   0.05363 -0.01139  0.00006 -0.00015  0.00111  0.00128
                  y   0.00000  0.00000  0.00000  0.00000  0.00000  0.00000
                  z   0.02008 -0.00877  0.00074  0.00037  0.00316  0.00346
 20   h           x  -0.02098  0.01561 -0.00271 -0.00081 -0.01190 -0.01372
                  y   0.00000  0.00000  0.00000  0.00000  0.00000  0.00000
                  z   0.05574 -0.02297 -0.00841 -0.00281 -0.03633 -0.04063

reduced mass(g/mol)     3.949    3.869    1.062    1.062    1.097    1.097


       mode              55       56       57       58       59       60

     frequency        3370.96  3374.04  3389.97  3392.90  3474.66  3474.67

     symmetry            a        a        a        a        a        a   

        IR               YES      YES      YES      YES      YES      YES
|dDIP/dQ|   (a.u.)     0.0006   0.0000   0.0017   0.0000   0.0001   0.0000
intensity (km/mol)       0.65     0.00     5.15     0.00     0.01     0.00
intensity (  %   )       0.66     0.00     5.23     0.00     0.01     0.00

       RAMAN             YES      YES      YES      YES      YES      YES

  1   c           x   0.00227 -0.00138 -0.00027  0.00243 -0.00036 -0.00036
                  y   0.00000  0.00000  0.00000  0.00000  0.00000  0.00000
                  z  -0.00066  0.00266  0.00396  0.00118  0.00016  0.00016
  2   c           x   0.01694  0.01734  0.03586  0.03576 -0.00006 -0.00015
                  y   0.00000  0.00000  0.00000  0.00000  0.00000  0.00000
                  z  -0.02530 -0.02494 -0.04162 -0.04190  0.00007  0.00015
  3   c           x   0.01717  0.01753 -0.01414 -0.01381  0.00000  0.00005
                  y   0.00000  0.00000  0.00000  0.00000  0.00000  0.00000
                  z   0.05049  0.05018 -0.02984 -0.03052 -0.00006  0.00006
  4   c           x   0.00227  0.00138 -0.00027 -0.00243 -0.00036  0.00036
                  y   0.00000  0.00000  0.00000  0.00000  0.00000  0.00000
                  z  -0.00066 -0.00266  0.00396 -0.00118  0.00016 -0.00016
  5   c           x   0.01694 -0.01734  0.03585 -0.03577 -0.00006  0.00015
                  y   0.00000  0.00000  0.00000  0.00000  0.00000  0.00000
                  z  -0.02530  0.02494 -0.04161  0.04191  0.00007 -0.00015
  6   h           x  -0.22213 -0.22421 -0.38270 -0.38164  0.00102  0.00183
                  y  -0.00001 -0.00001 -0.00001 -0.00001  0.00000  0.00000
                  z   0.27770  0.27872  0.47311  0.47246 -0.00229 -0.00324
  7   h           x  -0.20991 -0.20996  0.12423  0.12408  0.00021 -0.00015
                  y   0.00001  0.00001  0.00000  0.00000  0.00000  0.00000
                  z  -0.56927 -0.56771  0.33184  0.33362  0.00017 -0.00031
  8   h           x  -0.22210  0.22423 -0.38265  0.38171  0.00102 -0.00183
                  y   0.00001 -0.00001  0.00001 -0.00001  0.00000  0.00000
                  z   0.27766 -0.27874  0.47304 -0.47254 -0.00229  0.00324
  9   c           x  -0.00050 -0.00068  0.00025  0.00010  0.00074 -0.00074
                  y   0.00000  0.00000  0.00000  0.00000  0.00000  0.00000
                  z  -0.00373 -0.00359  0.00039  0.00131  0.00376 -0.00378
 10   c           x   0.00020 -0.00080  0.00056 -0.00047  0.04701 -0.04701
                  y   0.00000  0.00000  0.00000  0.00000 -0.00002  0.00002
                  z   0.00042  0.00061  0.00001 -0.00031  0.05284 -0.05283
 11   h           x  -0.00018 -0.00128  0.00029  0.00021 -0.07755  0.07753
                  y   0.00000  0.00000  0.00000  0.00000  0.00014 -0.00014
                  z   0.00025 -0.00835  0.00395 -0.00094 -0.48489  0.48478
 12   h           x   0.00750  0.00856 -0.00210 -0.00109 -0.00775  0.00777
                  y  -0.00001 -0.00001  0.00000  0.00000  0.00001 -0.00001
                  z   0.03989  0.04071 -0.00776 -0.01192 -0.04226  0.04236
 13   h           x  -0.00526  0.00615 -0.00508  0.00596 -0.48002  0.47996
                  y   0.00000  0.00000  0.00000  0.00000  0.00004 -0.00004
                  z  -0.00137  0.00203 -0.00159  0.00155 -0.14716  0.14714
 14   c           x  -0.00050  0.00068  0.00025 -0.00010  0.00074  0.00074
                  y   0.00000  0.00000  0.00000  0.00000  0.00000  0.00000
                  z  -0.00373  0.00359  0.00039 -0.00131  0.00376  0.00378
 15   h           x   0.00750 -0.00857 -0.00210  0.00110 -0.00775 -0.00777
                  y   0.00001 -0.00001  0.00000  0.00000 -0.00001 -0.00001
                  z   0.03989 -0.04072 -0.00776  0.01192 -0.04225 -0.04237
 16   c           x   0.00020  0.00080  0.00056  0.00047  0.04701  0.04702
                  y   0.00000  0.00000  0.00000  0.00000  0.00002  0.00002
                  z   0.00042 -0.00061  0.00001  0.00031  0.05284  0.05284
 17   h           x  -0.00018  0.00128  0.00029 -0.00021 -0.07754 -0.07754
                  y   0.00000  0.00000  0.00000  0.00000 -0.00014 -0.00014
                  z   0.00026  0.00835  0.00395  0.00094 -0.48482 -0.48486
 18   h           x  -0.00526 -0.00615 -0.00508 -0.00595 -0.47994 -0.48004
                  y   0.00000  0.00000  0.00000  0.00000 -0.00004 -0.00004
                  z  -0.00137 -0.00203 -0.00159 -0.00155 -0.14714 -0.14716
 19   c           x   0.01717 -0.01754 -0.01413  0.01381  0.00000 -0.00005
                  y   0.00000  0.00000  0.00000  0.00000  0.00000  0.00000
                  z   0.05048 -0.05019 -0.02984  0.03052 -0.00006 -0.00006
 20   h           x  -0.20989  0.20999  0.12421 -0.12410  0.00021  0.00015
                  y  -0.00001  0.00001  0.00000  0.00000  0.00000  0.00000
                  z  -0.56921  0.56777  0.33177 -0.33367  0.00017  0.00031

reduced mass(g/mol)     1.091    1.091    1.099    1.100    1.118    1.118


 <geterg> : there is no data group $energy 


         **************************************************************
         *                                                            *
         *  zero point VIBRATIONAL energy  :      0.1725247  Hartree  *
         *                                                            *
         **************************************************************




 time elapsed for vibrational analysis     0.16 sec


    ------------------------------------------------------------------------
         total  cpu-time :  2 minutes and 57 seconds
         total wall-time :  2 minutes and 57 seconds
    ------------------------------------------------------------------------


   ****  force : all done  ****


    2007-07-30 18:25:45.041 

