Job dvb_gopt_b started on a-gle at Sun Aug  6 09:15:28 2006
jobid: a-gle-0-44d5a51f

  +--------------------------------------------------------------------+
  |  Jaguar version 6.5, release 112                                   |
  |                                                                    |
  |  Copyright (c) 2005 Schrodinger,  LLC.                             |
  |  All Rights Reserved.                                              |
  |                                                                    |
  |  Use of this program should be acknowledged in publications as:    |
  |  Jaguar, version 6.5, Schrodinger, LLC, New York, NY, 2005.        |
  +--------------------------------------------------------------------+
   
  start of program pre
  Job name: dvb_gopt_b
  Executables used: /usr/glea/schrodinger_new/jaguar-v65112/bin/Linux-x86
  Temporary files : /var/tmp/no228/dvb_gopt_b
  
  Input file comments:
   ../../Gaussian/basicGaussian03/dvb_sp.out
   
   entry_name: dvb_sp
  
  basis set:             sto-3g          
  net molecular charge:    0
  multiplicity:            1
  
  number of basis functions....           60
  no dealiasing set available for atom            1
  switch to all-analytic calculation
  
 Input geometry:
                                   angstroms
  atom               x                 y                 z
  C1            0.0000000000      0.0000000000      0.0000000000 
  C2            0.0000000000      0.0000000000      1.3915580000 
  C3            1.1999120000      0.0000000000      2.0916230000 
  C4            2.3814270000      0.0000000000      1.4057220000 
  C5            2.3814270000      0.0000000000      0.0141650000 
  H6           -0.9491870000      0.0000000000      1.9373490000 
  H7            1.1938610000      0.0000000000      3.1875920000 
  H8            3.3306140000      0.0000000000     -0.5316260000 
  C9            3.6696320000      0.0000000000      2.1461850000 
  C10           4.8713800000      0.0000000000      1.5468080000 
  H11           4.9303050000      0.0000000000      0.4448340000 
  H12           3.5858030000      0.0000000000      3.2412790000 
  H13           5.7870990000      0.0000000000      2.1003050000 
  C14          -1.2882050000      0.0000000000     -0.7404630000 
  H15          -1.2043770000      0.0000000000     -1.8355570000 
  C16          -2.4899530000      0.0000000000     -0.1410860000 
  H17          -2.5488780000      0.0000000000      0.9608880000 
  H18          -3.4056720000      0.0000000000     -0.6945830000 
  C19           1.1815150000      0.0000000000     -0.6859010000 
  H20           1.1875660000      0.0000000000     -1.7818700000 
   
  principal moments of inertia:
        amu*angstrom^2:      108.01708      693.41270      801.42979
                g*cm^2: 1.79366712E-38 1.15143967E-37 1.33080638E-37
   
  rotational constants:
               cm^(-1):     0.15606449     0.02431111     0.02103445
                   GHz:     4.67869572     0.72882869     0.63059682
   
  Molecular weight:     130.08 amu
   
  Stoichiometry: C10H10
  Molecular Point Group: C2h     
	Molecule translated to center of mass 
	Molecule reoriented along symmetry axes
  Point Group used: C2h
  
 
Number of optimization coordinates:    60
Number of independent coordinates:     60
Number of non-redundant coordinates:   54
Number of constrained coordinates:      0
 
Number of geometric degrees of freedom:    54
Maximum geometric degrees of freedom:      54
 " " " " " excluding dummy atoms:          54
 
  
 Symmetrized geometry:
                                   angstroms
  atom               x                 y                 z
  C1            1.1907135000      0.7028610000      0.0000000000 
  C2            1.1907135000     -0.6886965000      0.0000000000 
  C3           -0.0091985000     -1.3887620000      0.0000000000 
  C4           -1.1907135000     -0.7028610000      0.0000000000 
  C5           -1.1907135000      0.6886965000      0.0000000000 
  H6            2.1399005000     -1.2344875000      0.0000000000 
  H7           -0.0031475000     -2.4847310000      0.0000000000 
  H8           -2.1399005000      1.2344875000      0.0000000000 
  C9           -2.4789185000     -1.4433240000      0.0000000000 
  C10          -3.6806665000     -0.8439470000      0.0000000000 
  H11          -3.7395915000      0.2580270000      0.0000000000 
  H12          -2.3950900000     -2.5384180000      0.0000000000 
  H13          -4.5963855000     -1.3974440000      0.0000000000 
  C14           2.4789185000      1.4433240000      0.0000000000 
  H15           2.3950900000      2.5384180000      0.0000000000 
  C16           3.6806665000      0.8439470000      0.0000000000 
  H17           3.7395915000     -0.2580270000      0.0000000000 
  H18           4.5963855000      1.3974440000      0.0000000000 
  C19           0.0091985000      1.3887620000      0.0000000000 
  H20           0.0031475000      2.4847310000      0.0000000000 
   
 
  bond lengths (angstroms):
 
 C1      -C2      :   1.391557      C1      -C14     :   1.485852
 C1      -C19     :   1.366176      C2      -C3      :   1.389201
 C2      -H6      :   1.094917      C3      -C4      :   1.366176
 C3      -H7      :   1.095986      C4      -C5      :   1.391557
 C4      -C9      :   1.485852      C5      -H8      :   1.094917
 C5      -C19     :   1.389201      C9      -C10     :   1.342926
 C9      -H12     :   1.098298      C10     -H11     :   1.103548
 C10     -H13     :   1.070000      C14     -H15     :   1.098298
 C14     -C16     :   1.342926      C16     -H17     :   1.103548
 C16     -H18     :   1.070000      C19     -H20     :   1.095986
 
  bond angles:
 
 C14     -C1      -C2      : 119.890382  C19     -C1      -C2      : 120.136309
 C19     -C1      -C14     : 119.973309  C3      -C2      -C1      : 120.260599
 H6      -C2      -C1      : 119.899286  H6      -C2      -C3      : 119.840114
 C4      -C3      -C2      : 119.603091  H7      -C3      -C2      : 119.944265
 H7      -C3      -C4      : 120.452644  C5      -C4      -C3      : 120.136309
 C9      -C4      -C3      : 119.973309  C9      -C4      -C5      : 119.890382
 H8      -C5      -C4      : 119.899286  C19     -C5      -C4      : 120.260599
 C19     -C5      -H8      : 119.840114  C10     -C9      -C4      : 123.601694
 H12     -C9      -C4      : 115.512976  H12     -C9      -C10     : 120.885330
 H11     -C10     -C9      : 119.568742  H13     -C10     -C9      : 122.341640
 H13     -C10     -H11     : 118.089618  H15     -C14     -C1      : 115.512976
 C16     -C14     -C1      : 123.601694  C16     -C14     -H15     : 120.885330
 H17     -C16     -C14     : 119.568742  H18     -C16     -C14     : 122.341640
 H18     -C16     -H17     : 118.089618  C5      -C19     -C1      : 119.603091
 H20     -C19     -C1      : 120.452644  H20     -C19     -C5      : 119.944265
 
  torsional angles:
 
 C1      -C2      -C3      -C4      :   0.000000
 C1      -C2      -C3      -H7      : 180.000000
 C1      -C14     -C16     -H17     :   0.000000
 C1      -C14     -C16     -H18     : 180.000000
 C1      -C19     -C5      -C4      :   0.000000
 C1      -C19     -C5      -H8      : 179.999999
 C2      -C1      -C14     -H15     : 180.000000
 C2      -C1      -C14     -C16     :   0.000000
 C2      -C1      -C19     -C5      :   0.000000
 C2      -C1      -C19     -H20     : 180.000000
 C2      -C3      -C4      -C5      :   0.000000
 C2      -C3      -C4      -C9      : 180.000000
 C3      -C2      -C1      -C14     : 180.000000
 C3      -C2      -C1      -C19     :   0.000000
 C3      -C4      -C5      -H8      : 179.999999
 C3      -C4      -C5      -C19     :   0.000000
 C3      -C4      -C9      -C10     : 180.000000
 C3      -C4      -C9      -H12     :   0.000000
 C4      -C3      -C2      -H6      : 179.999999
 C4      -C5      -C19     -H20     : 180.000000
 C4      -C9      -C10     -H11     :   0.000000
 C4      -C9      -C10     -H13     : 180.000000
 C5      -C4      -C3      -H7      : 180.000000
 C5      -C4      -C9      -C10     :   0.000000
 C5      -C4      -C9      -H12     : 180.000000
 C5      -C19     -C1      -C14     : 180.000000
 H6      -C2      -C1      -C14     :   0.000001
 H6      -C2      -C1      -C19     : 179.999999
 H6      -C2      -C3      -H7      :   0.000000
 H7      -C3      -C4      -C9      :   0.000000
 H8      -C5      -C4      -C9      :   0.000001
 H8      -C5      -C19     -H20     :   0.000000
 C9      -C4      -C5      -C19     : 180.000000
 H11     -C10     -C9      -H12     : 180.000000
 H12     -C9      -C10     -H13     :   0.000000
 C14     -C1      -C19     -H20     :   0.000000
 H15     -C14     -C1      -C19     :   0.000000
 H15     -C14     -C16     -H17     : 180.000000
 H15     -C14     -C16     -H18     :   0.000000
 C16     -C14     -C1      -C19     : 180.000000
 
  nuclear repulsion energy.......     455.307328569 hartrees
 
 Non-default options chosen:
   SCF calculation type: DFT             
   DFT=Becke_3_Parameter/HF+Slater+Becke88+VWN+LYP (B3LYP)
   Geometry will be optimized in redundant internal coordinates
   Include all virtuals in output
  
 Non-default print settings:
     11=  2
  
  end of program pre
   
   
  start of program onee
  smallest eigenvalue of S:    1.640E-01
  number of canonical orbitals.....           60
  end of program onee
   
   
  start of program hfig
  initial wavefunction generated automatically from atomic wavefunctions
 
  Irreducible     Total no   No of occupied orbitals 
  representation  orbitals   Shell_1  Shell_2    ...
  Ag                25         15
  Bg                 5          3
  Au                 5          2
  Bu                25         15
  ------------------------
  Orbital occupation/shell    1.000
 
  end of program hfig
   
   
  start of program probe
  end of program probe
   
   
  start of program grid
   
  number of gridpoints: 
     atom         C1        C2        C3        C4        C5        H6        H7        H8
  grid # 1      2430      2430         0         0         0      2430         0         0
  grid # 2       756       756         0         0         0       756         0         0
  grid # 3      3001      3001         0         0         0      3001         0         0
  grid # 4      3756      3756         0         0         0      3033         0         0
  grid # 5       426       426         0         0         0       464         0         0
   
  number of gridpoints: 
     atom         C9       C10       H11       H12       H13       C14       H15       C16
  grid # 1         0         0         0         0         0      2430      2430      2430
  grid # 2         0         0         0         0         0       756       756       756
  grid # 3         0         0         0         0         0      3001      3001      3001
  grid # 4         0         0         0         0         0      3756      3033      3756
  grid # 5         0         0         0         0         0       426       464       426
   
  number of gridpoints: 
     atom        H17       H18       C19       H20     total
  grid # 1      2430      2430      2430      2430     24300
  grid # 2       756       756       756       756      7560
  grid # 3      3001      3001      3001      3001     30010
  grid # 4      3033      3033      3756      3033     33945
  grid # 5       464       464       426       464      4450
   
  end of program grid
   
   
  start of program scf 
 number of electrons..........         70
 number of alpha electrons....         35
 number of beta electrons.....         35
 number of orbitals, total....         60
 number of doubly-occ'd orbs..         35
 number of open shell orbs....          0
 number of occupied orbitals..         35
 number of virtual orbitals...         25
 number of hamiltonians.......          1
 number of shells.............          1
 SCF type: DFT=Becke_3_Parameter/HF+Slater+Becke88+VWN+LYP (B3LYP)
  
       i  u  d  i  g                   
       t  p  i  c  r                                 RMS    maximum
       e  d  i  u  i                       energy  density   DIIS  
       r  t  s  t  d       total energy    change  change    error 
  
etot   1  N  N  0  N    -382.08056301531           2.3E-03  1.4E-01
etot   2  Y  Y  0  N    -382.26317199037  1.8E-01  1.4E-03  5.6E-02
etot   3  N  Y  0  N    -382.28905837278  2.6E-02  5.5E-04  1.5E-02
etot   4  Y  Y  0  N    -382.29381601819  4.8E-03  1.4E-04  5.3E-03
etot   5  Y  Y  0  N    -382.29432041869  5.0E-04  1.6E-05  4.8E-04
etot   6  N  Y  0  N    -382.29428751914 -3.3E-05  4.7E-06  1.4E-04
etot   7  Y  N  0  N    -382.29428781417  3.0E-07  0.0E+00  0.0E+00
  
  
 Energy components, in hartrees:
   (A)  Nuclear repulsion............     455.30732856880
   (E)  Total one-electron terms.....   -1419.05788008326
   (I)  Total two-electron terms.....     581.45626370029
   (J)    Coulomb....................     639.42044243484
   (K)    Exchange+Correlation.......     -57.96417873455
   (L)  Electronic energy............    -837.60161638297  (E+I)
   (N)  Total energy.................    -382.29428781417  (A+L)
  
 SCFE: SCF energy: DFT      -382.29428781417 hartrees   iterations:   7
  
 
 HOMO energy:    -0.15689
 LUMO energy:     0.04399
 
  Orbital energies/symmetry label: 
  -10.01928 Bu       -10.01921 Ag       -10.00739 Bu       -10.00734 Ag     
  -10.00565 Ag       -10.00564 Bu       -10.00555 Bu       -10.00544 Ag     
   -9.98951 Bu        -9.98950 Ag        -0.82800 Ag        -0.76367 Bu     
   -0.72059 Ag        -0.70927 Bu        -0.67032 Bu        -0.59494 Ag     
   -0.56530 Ag        -0.53402 Bu        -0.51555 Ag        -0.46364 Ag     
   -0.44625 Bu        -0.41367 Bu        -0.40272 Bu        -0.39708 Ag     
   -0.37824 Bu        -0.35388 Bu        -0.34849 Ag        -0.33892 Au     
   -0.31250 Bu        -0.29782 Ag        -0.28754 Ag        -0.27006 Bg     
   -0.21229 Au        -0.20001 Bg        -0.15689 Bg         0.04399 Au     
    0.09116 Au         0.11239 Bg         0.18907 Au         0.29005 Bg     
    0.33875 Ag         0.33891 Bu         0.37886 Ag         0.38930 Bu     
    0.41781 Bu         0.42010 Ag         0.43100 Bu         0.46745 Ag     
    0.48493 Bu         0.50818 Ag         0.55383 Ag         0.57756 Bu     
    0.59383 Ag         0.62061 Bu         0.64332 Bu         0.66846 Ag     
    0.68505 Ag         0.73979 Bu         0.82241 Ag         0.84191 Bu     
 
  end of program scf 
   
   
  start of program cutabab2
  end of program cutabab2
   
   
  start of program der1a
  end of program der1a
   
   
  start of program der1b
   
  forces (hartrees/bohr) : total     
   
 atom  label           x              y              z
 ---- --------   -------------  -------------  -------------
    1 C1          5.049340E-02  -5.134358E-04   0.000000E+00
    2 C2          7.422157E-03  -2.398013E-02   0.000000E+00
    3 C3          3.866746E-02  -2.987572E-02   0.000000E+00
    4 C4         -5.049340E-02   5.134358E-04   0.000000E+00
    5 C5         -7.422157E-03   2.398013E-02   0.000000E+00
    6 H6         -1.074763E-03  -1.452497E-03   0.000000E+00
    7 H7         -6.619636E-04  -1.369292E-03   0.000000E+00
    8 H8          1.074763E-03   1.452497E-03   0.000000E+00
    9 C9         -1.048663E-02  -3.128722E-03   0.000000E+00
   10 C10         1.912575E-02   1.367616E-02   0.000000E+00
   11 H11        -6.388687E-03  -8.394177E-03   0.000000E+00
   12 H12        -1.252604E-03  -1.267327E-03   0.000000E+00
   13 H13        -1.952873E-02  -1.038794E-02   0.000000E+00
   14 C14         1.048663E-02   3.128722E-03   0.000000E+00
   15 H15         1.252604E-03   1.267327E-03   0.000000E+00
   16 C16        -1.912575E-02  -1.367616E-02   0.000000E+00
   17 H17         6.388687E-03   8.394177E-03   0.000000E+00
   18 H18         1.952873E-02   1.038794E-02   0.000000E+00
   19 C19        -3.866746E-02   2.987572E-02   0.000000E+00
   20 H20         6.619636E-04   1.369292E-03   0.000000E+00
 -------------   -------------  -------------  -------------
     total        0.000000E+00   0.000000E+00   0.000000E+00
   
  end of program der1b
   
   
  start of program geopt   1
  
  geometry optimization step  1
  energy:            -382.29428781417 hartrees
  
  gradient maximum:        6.3309E-02 .  (  4.5000E-04 )
  gradient rms:            1.6992E-02 .  (  3.0000E-04 )
  step size:   0.24949  trust radius:   0.30000
  displacement maximum:    1.0736E-01 .  (  1.8000E-03 )
  displacement rms:        3.2210E-02 .  (  1.2000E-03 )
  predicted energy change:    -1.6805E-02    geom step:   2.4949E-01    full step:   2.4949E-01
  molecular structure not yet converged...
  
  center of mass moved by:
     x:     1.4360E-16     y:     1.8436E-16     z:     0.0000E+00
  
  new geometry: 
                                   angstroms
  atom               x                 y                 z
  C1            1.2680103933      0.6737898708      0.0000000000 
  C2            1.1981008044     -0.7488798601      0.0000000000 
  C3           -0.0480312416     -1.4062805359      0.0000000000 
  C4           -1.2680103933     -0.6737898708      0.0000000000 
  C5           -1.1981008044      0.7488798601      0.0000000000 
  H6            2.1163107025     -1.3448958961      0.0000000000 
  H7           -0.0769544000     -2.5034321085      0.0000000000 
  H8           -2.1163107025      1.3448958961      0.0000000000 
  C9           -2.5774109102     -1.4323148727      0.0000000000 
  C10          -3.8179189996     -0.9099962909      0.0000000000 
  H11          -3.9858940509      0.1712589682      0.0000000000 
  H12          -2.4657020224     -2.5262528505      0.0000000000 
  H13          -4.7080359238     -1.5445105527      0.0000000000 
  C14           2.5774109102      1.4323148727      0.0000000000 
  H15           2.4657020224      2.5262528505      0.0000000000 
  C16           3.8179189996      0.9099962909      0.0000000000 
  H17           3.9858940509     -0.1712589682      0.0000000000 
  H18           4.7080359238      1.5445105527      0.0000000000 
  C19           0.0480312416      1.4062805359      0.0000000000 
  H20           0.0769544000      2.5034321085      0.0000000000 
   
 
  bond lengths (angstroms):
 
 C1      -C2      :   1.424386      C1      -C14     :   1.513238
 C1      -C19     :   1.422987      C2      -C3      :   1.408908
 C2      -H6      :   1.094689      C3      -C4      :   1.422987
 C3      -H7      :   1.097533      C4      -C5      :   1.424386
 C4      -C9      :   1.513238      C5      -H8      :   1.094689
 C5      -C19     :   1.408908      C9      -C10     :   1.345986
 C9      -H12     :   1.099627      C10     -H11     :   1.094225
 C10     -H13     :   1.093122      C14     -H15     :   1.099627
 C14     -C16     :   1.345986      C16     -H17     :   1.094225
 C16     -H18     :   1.093122      C19     -H20     :   1.097533
 
  bond angles:
 
 C14     -C1      -C2      : 122.896597  C19     -C1      -C2      : 118.167894
 C19     -C1      -C14     : 118.935509  C3      -C2      -C1      : 120.627257
 H6      -C2      -C1      : 120.174630  H6      -C2      -C3      : 119.198113
 C4      -C3      -C2      : 121.204849  H7      -C3      -C2      : 119.324106
 H7      -C3      -C4      : 119.471045  C5      -C4      -C3      : 118.167894
 C9      -C4      -C3      : 118.935509  C9      -C4      -C5      : 122.896597
 H8      -C5      -C4      : 120.174630  C19     -C5      -C4      : 120.627257
 C19     -C5      -H8      : 119.198113  C10     -C9      -C4      : 127.083008
 H12     -C9      -C4      : 114.252740  H12     -C9      -C10     : 118.664252
 H11     -C10     -C9      : 121.664051  H13     -C10     -C9      : 121.683437
 H13     -C10     -H11     : 116.652512  H15     -C14     -C1      : 114.252740
 C16     -C14     -C1      : 127.083008  C16     -C14     -H15     : 118.664252
 H17     -C16     -C14     : 121.664051  H18     -C16     -C14     : 121.683437
 H18     -C16     -H17     : 116.652512  C5      -C19     -C1      : 121.204849
 H20     -C19     -C1      : 119.471045  H20     -C19     -C5      : 119.324106
 
  torsional angles:
 
 C1      -C2      -C3      -C4      :   0.000000
 C1      -C2      -C3      -H7      : 180.000000
 C1      -C14     -C16     -H17     :   0.000000
 C1      -C14     -C16     -H18     : 180.000000
 C1      -C19     -C5      -C4      :   0.000000
 C1      -C19     -C5      -H8      : 180.000000
 C2      -C1      -C14     -H15     : 180.000000
 C2      -C1      -C14     -C16     :   0.000000
 C2      -C1      -C19     -C5      :   0.000000
 C2      -C1      -C19     -H20     : 180.000000
 C2      -C3      -C4      -C5      :   0.000000
 C2      -C3      -C4      -C9      : 180.000000
 C3      -C2      -C1      -C14     : 180.000000
 C3      -C2      -C1      -C19     :   0.000000
 C3      -C4      -C5      -H8      : 180.000000
 C3      -C4      -C5      -C19     :   0.000000
 C3      -C4      -C9      -C10     : 180.000000
 C3      -C4      -C9      -H12     :   0.000000
 C4      -C3      -C2      -H6      : 180.000000
 C4      -C5      -C19     -H20     : 180.000000
 C4      -C9      -C10     -H11     :   0.000000
 C4      -C9      -C10     -H13     : 180.000000
 C5      -C4      -C3      -H7      : 180.000000
 C5      -C4      -C9      -C10     :   0.000000
 C5      -C4      -C9      -H12     : 180.000000
 C5      -C19     -C1      -C14     : 180.000000
 H6      -C2      -C1      -C14     :   0.000000
 H6      -C2      -C1      -C19     : 180.000000
 H6      -C2      -C3      -H7      :   0.000000
 H7      -C3      -C4      -C9      :   0.000000
 H8      -C5      -C4      -C9      :   0.000000
 H8      -C5      -C19     -H20     :   0.000000
 C9      -C4      -C5      -C19     : 180.000000
 H11     -C10     -C9      -H12     : 180.000000
 H12     -C9      -C10     -H13     :   0.000000
 C14     -C1      -C19     -H20     :   0.000000
 H15     -C14     -C1      -C19     :   0.000000
 H15     -C14     -C16     -H17     : 180.000000
 H15     -C14     -C16     -H18     :   0.000000
 C16     -C14     -C1      -C19     : 180.000000
 
  nuclear repulsion energy.......     444.299686119 hartrees
  -------------------------------------------------
 /  end of geometry optimization iteration   1   /
 -------------------------------------------------
   
  end of program geopt
   
   
  start of program onee
  smallest eigenvalue of S:    1.834E-01
  number of canonical orbitals.....           60
  end of program onee
   
   
  start of program probe
  end of program probe
   
   
  start of program grid
   
  number of gridpoints: 
     atom         C1        C2        C3        C4        C5        H6        H7        H8
  grid # 1      2430      2430         0         0         0      2430         0         0
  grid # 2       756       756         0         0         0       756         0         0
  grid # 3      3001      3001         0         0         0      3001         0         0
  grid # 4      3756      3756         0         0         0      3033         0         0
  grid # 5       426       426         0         0         0       464         0         0
   
  number of gridpoints: 
     atom         C9       C10       H11       H12       H13       C14       H15       C16
  grid # 1         0         0         0         0         0      2430      2430      2430
  grid # 2         0         0         0         0         0       756       756       756
  grid # 3         0         0         0         0         0      3001      3001      3001
  grid # 4         0         0         0         0         0      3756      3033      3756
  grid # 5         0         0         0         0         0       426       464       426
   
  number of gridpoints: 
     atom        H17       H18       C19       H20     total
  grid # 1      2430      2430      2430      2430     24300
  grid # 2       756       756       756       756      7560
  grid # 3      3001      3001      3001      3001     30010
  grid # 4      3033      3033      3756      3033     33945
  grid # 5       464       464       426       464      4450
   
  end of program grid
   
   
  start of program scf 
  
       i  u  d  i  g                   
       t  p  i  c  r                                 RMS    maximum
       e  d  i  u  i                       energy  density   DIIS  
       r  t  s  t  d       total energy    change  change    error 
  
etot   1  N  N  0  N    -382.30091207939           5.8E-04  1.3E-02
etot   2  Y  Y  0  N    -382.30722375090  6.3E-03  2.0E-04  3.1E-03
etot   3  N  Y  0  N    -382.30759513869  3.7E-04  5.7E-05  1.9E-03
etot   4  Y  Y  0  N    -382.30768002128  8.5E-05  1.1E-05  2.6E-04
etot   5  Y  Y  0  N    -382.30768135194  1.3E-06  4.3E-06  1.7E-04
etot   6  Y  N  0  N    -382.30768171597  3.6E-07  0.0E+00  0.0E+00
  
  
 Energy components, in hartrees:
   (A)  Nuclear repulsion............     444.29968611853
   (E)  Total one-electron terms.....   -1397.40276028853
   (I)  Total two-electron terms.....     570.79539245403
   (J)    Coulomb....................     628.62173969869
   (K)    Exchange+Correlation.......     -57.82634724466
   (L)  Electronic energy............    -826.60736783450  (E+I)
   (N)  Total energy.................    -382.30768171597  (A+L)
  
 SCFE: SCF energy: DFT      -382.30768171597 hartrees   iterations:   6
  
 
 HOMO energy:    -0.15420
 LUMO energy:     0.03865
 
  Orbital energies/symmetry label: 
  -10.02085 Bu       -10.02080 Ag       -10.00770 Bu       -10.00770 Ag     
  -10.00733 Bu       -10.00733 Ag       -10.00659 Bu       -10.00646 Ag     
   -9.99201 Bu        -9.99201 Ag        -0.80738 Ag        -0.75125 Bu     
   -0.71679 Ag        -0.69905 Bu        -0.66771 Bu        -0.58708 Ag     
   -0.55850 Ag        -0.53098 Bu        -0.51072 Ag        -0.45643 Ag     
   -0.43823 Bu        -0.41181 Bu        -0.39704 Ag        -0.39690 Bu     
   -0.37443 Bu        -0.35125 Bu        -0.34652 Ag        -0.32258 Au     
   -0.31056 Bu        -0.29293 Ag        -0.28734 Ag        -0.26116 Bg     
   -0.21177 Au        -0.19415 Bg        -0.15420 Bg         0.03865 Au     
    0.08817 Au         0.11030 Bg         0.17948 Au         0.26907 Bg     
    0.32848 Ag         0.34145 Bu         0.37317 Bu         0.38411 Ag     
    0.41013 Ag         0.41122 Bu         0.42619 Bu         0.43503 Ag     
    0.45325 Bu         0.47589 Ag         0.52427 Ag         0.54575 Bu     
    0.57550 Ag         0.59330 Bu         0.62176 Bu         0.63677 Ag     
    0.67717 Ag         0.71350 Bu         0.77339 Ag         0.78768 Bu     
 
  end of program scf 
   
   
  start of program cutabab2
  end of program cutabab2
   
   
  start of program der1a
  end of program der1a
   
   
  start of program der1b
   
  forces (hartrees/bohr) : total     
   
 atom  label           x              y              z
 ---- --------   -------------  -------------  -------------
    1 C1          8.688360E-03   2.087238E-03   0.000000E+00
    2 C2         -7.776423E-03   2.236969E-03   0.000000E+00
    3 C3          4.833100E-03   5.025767E-03   0.000000E+00
    4 C4         -8.688360E-03  -2.087238E-03   0.000000E+00
    5 C5          7.776423E-03  -2.236969E-03   0.000000E+00
    6 H6          2.454925E-03  -7.610437E-04   0.000000E+00
    7 H7         -7.350627E-04  -8.911868E-04   0.000000E+00
    8 H8         -2.454925E-03   7.610437E-04   0.000000E+00
    9 C9          4.324971E-03   3.133109E-03   0.000000E+00
   10 C10         7.655867E-03   2.167658E-03   0.000000E+00
   11 H11        -1.891329E-03   1.376887E-03   0.000000E+00
   12 H12         7.766121E-04  -8.466415E-04   0.000000E+00
   13 H13        -1.748477E-03  -1.506530E-03   0.000000E+00
   14 C14        -4.324971E-03  -3.133109E-03   0.000000E+00
   15 H15        -7.766121E-04   8.466415E-04   0.000000E+00
   16 C16        -7.655867E-03  -2.167658E-03   0.000000E+00
   17 H17         1.891329E-03  -1.376887E-03   0.000000E+00
   18 H18         1.748477E-03   1.506530E-03   0.000000E+00
   19 C19        -4.833100E-03  -5.025767E-03   0.000000E+00
   20 H20         7.350627E-04   8.911868E-04   0.000000E+00
 -------------   -------------  -------------  -------------
     total        0.000000E+00   0.000000E+00   0.000000E+00
   
  end of program der1b
   
   
  start of program geopt   2
  
  geometry optimization step  2
  energy:            -382.30768171597 hartrees
  
  energy change:          -1.3394E-02 .  (  5.0000E-05 )
  gradient maximum:        1.0065E-02 .  (  4.5000E-04 )
  gradient rms:            2.7016E-03 .  (  3.0000E-04 )
  step size:   0.04895  trust radius:   0.30000
  displacement maximum:    2.6058E-02 .  (  1.8000E-03 )
  displacement rms:        6.3201E-03 .  (  1.2000E-03 )
  predicted energy change:    -4.7987E-04    geom step:   4.8955E-02    full step:   4.8955E-02
  molecular structure not yet converged...
  
  center of mass moved by:
     x:    -2.1615E-16     y:     1.5022E-16     z:     0.0000E+00
  
  new geometry: 
                                   angstroms
  atom               x                 y                 z
  C1            1.2662091417      0.6742735190      0.0000000000 
  C2            1.1972940193     -0.7453353999      0.0000000000 
  C3           -0.0429557848     -1.4028186896      0.0000000000 
  C4           -1.2662091417     -0.6742735190      0.0000000000 
  C5           -1.1972940193      0.7453353999      0.0000000000 
  H6            2.1203450698     -1.3389644460      0.0000000000 
  H7           -0.0725771823     -2.5010293450      0.0000000000 
  H8           -2.1203450698      1.3389644460      0.0000000000 
  C9           -2.5626579200     -1.4276438888      0.0000000000 
  C10          -3.7979593881     -0.8991160784      0.0000000000 
  H11          -3.9729170368      0.1826655053      0.0000000000 
  H12          -2.4498865640     -2.5225625037      0.0000000000 
  H13          -4.6901450084     -1.5365125790      0.0000000000 
  C14           2.5626579200      1.4276438888      0.0000000000 
  H15           2.4498865640      2.5225625037      0.0000000000 
  C16           3.7979593881      0.8991160784      0.0000000000 
  H17           3.9729170368     -0.1826655053      0.0000000000 
  H18           4.6901450084      1.5365125790      0.0000000000 
  C19           0.0429557848      1.4028186896      0.0000000000 
  H20           0.0725771823      2.5010293450      0.0000000000 
   
 
  bond lengths (angstroms):
 
 C1      -C2      :   1.421281      C1      -C14     :   1.499449
 C1      -C19     :   1.423772      C2      -C3      :   1.403746
 C2      -H6      :   1.097460      C3      -C4      :   1.423772
 C3      -H7      :   1.098610      C4      -C5      :   1.421281
 C4      -C9      :   1.499449      C5      -H8      :   1.097460
 C5      -C19     :   1.403746      C9      -C10     :   1.343619
 C9      -H12     :   1.100711      C10     -H11     :   1.095838
 C10     -H13     :   1.096480      C14     -H15     :   1.100711
 C14     -C16     :   1.343619      C16     -H17     :   1.095838
 C16     -H18     :   1.096480      C19     -H20     :   1.098610
 
  bond angles:
 
 C14     -C1      -C2      : 122.940253  C19     -C1      -C2      : 117.997930
 C19     -C1      -C14     : 119.061817  C3      -C2      -C1      : 120.708282
 H6      -C2      -C1      : 119.966476  H6      -C2      -C3      : 119.325243
 C4      -C3      -C2      : 121.293789  H7      -C3      -C2      : 119.474063
 H7      -C3      -C4      : 119.232149  C5      -C4      -C3      : 117.997930
 C9      -C4      -C3      : 119.061817  C9      -C4      -C5      : 122.940253
 H8      -C5      -C4      : 119.966476  C19     -C5      -C4      : 120.708282
 C19     -C5      -H8      : 119.325243  C10     -C9      -C4      : 126.675177
 H12     -C9      -C4      : 114.280548  H12     -C9      -C10     : 119.044276
 H11     -C10     -C9      : 122.350776  H13     -C10     -C9      : 121.293354
 H13     -C10     -H11     : 116.355870  H15     -C14     -C1      : 114.280548
 C16     -C14     -C1      : 126.675177  C16     -C14     -H15     : 119.044276
 H17     -C16     -C14     : 122.350776  H18     -C16     -C14     : 121.293354
 H18     -C16     -H17     : 116.355870  C5      -C19     -C1      : 121.293789
 H20     -C19     -C1      : 119.232149  H20     -C19     -C5      : 119.474063
 
  torsional angles:
 
 C1      -C2      -C3      -C4      :   0.000000
 C1      -C2      -C3      -H7      : 180.000000
 C1      -C14     -C16     -H17     :   0.000001
 C1      -C14     -C16     -H18     : 180.000000
 C1      -C19     -C5      -C4      :   0.000000
 C1      -C19     -C5      -H8      : 180.000000
 C2      -C1      -C14     -H15     : 180.000000
 C2      -C1      -C14     -C16     :   0.000001
 C2      -C1      -C19     -C5      :   0.000000
 C2      -C1      -C19     -H20     : 180.000000
 C2      -C3      -C4      -C5      :   0.000001
 C2      -C3      -C4      -C9      : 180.000000
 C3      -C2      -C1      -C14     : 180.000000
 C3      -C2      -C1      -C19     :   0.000000
 C3      -C4      -C5      -H8      : 180.000000
 C3      -C4      -C5      -C19     :   0.000000
 C3      -C4      -C9      -C10     : 179.999999
 C3      -C4      -C9      -H12     :   0.000000
 C4      -C3      -C2      -H6      : 180.000000
 C4      -C5      -C19     -H20     : 179.999999
 C4      -C9      -C10     -H11     :   0.000000
 C4      -C9      -C10     -H13     : 180.000000
 C5      -C4      -C3      -H7      : 180.000000
 C5      -C4      -C9      -C10     :   0.000000
 C5      -C4      -C9      -H12     : 180.000000
 C5      -C19     -C1      -C14     : 180.000000
 H6      -C2      -C1      -C14     :   0.000001
 H6      -C2      -C1      -C19     : 180.000000
 H6      -C2      -C3      -H7      :   0.000000
 H7      -C3      -C4      -C9      :   0.000000
 H8      -C5      -C4      -C9      :   0.000000
 H8      -C5      -C19     -H20     :   0.000000
 C9      -C4      -C5      -C19     : 180.000000
 H11     -C10     -C9      -H12     : 180.000000
 H12     -C9      -C10     -H13     :   0.000000
 C14     -C1      -C19     -H20     :   0.000000
 H15     -C14     -C1      -C19     :   0.000000
 H15     -C14     -C16     -H17     : 180.000000
 H15     -C14     -C16     -H18     :   0.000000
 C16     -C14     -C1      -C19     : 179.999999
 
  nuclear repulsion energy.......     445.698827801 hartrees
  -------------------------------------------------
 /  end of geometry optimization iteration   2   /
 -------------------------------------------------
   
  end of program geopt
   
   
  start of program onee
  smallest eigenvalue of S:    1.819E-01
  number of canonical orbitals.....           60
  end of program onee
   
   
  start of program probe
  end of program probe
   
   
  start of program grid
   
  number of gridpoints: 
     atom         C1        C2        C3        C4        C5        H6        H7        H8
  grid # 1      2430      2430         0         0         0      2430         0         0
  grid # 2       756       756         0         0         0       756         0         0
  grid # 3      3001      3001         0         0         0      3001         0         0
  grid # 4      3756      3756         0         0         0      3033         0         0
  grid # 5       426       426         0         0         0       464         0         0
   
  number of gridpoints: 
     atom         C9       C10       H11       H12       H13       C14       H15       C16
  grid # 1         0         0         0         0         0      2430      2430      2430
  grid # 2         0         0         0         0         0       756       756       756
  grid # 3         0         0         0         0         0      3001      3001      3001
  grid # 4         0         0         0         0         0      3756      3033      3756
  grid # 5         0         0         0         0         0       426       464       426
   
  number of gridpoints: 
     atom        H17       H18       C19       H20     total
  grid # 1      2430      2430      2430      2430     24300
  grid # 2       756       756       756       756      7560
  grid # 3      3001      3001      3001      3001     30010
  grid # 4      3033      3033      3756      3033     33945
  grid # 5       464       464       426       464      4450
   
  end of program grid
   
   
  start of program scf 
  
       i  u  d  i  g                   
       t  p  i  c  r                                 RMS    maximum
       e  d  i  u  i                       energy  density   DIIS  
       r  t  s  t  d       total energy    change  change    error 
  
etot   1  N  N  0  N    -382.30815573636           6.8E-05  1.3E-03
etot   2  Y  Y  0  N    -382.30821745449  6.2E-05  3.2E-05  7.7E-04
etot   3  Y  Y  0  N    -382.30821968316  2.2E-06  1.3E-05  7.3E-04
etot   4  Y  Y  0  N    -382.30822556608  5.9E-06  3.2E-06  1.4E-04
etot   5  Y  N  0  N    -382.30822565070  8.5E-08  0.0E+00  0.0E+00
  
  
 Energy components, in hartrees:
   (A)  Nuclear repulsion............     445.69882780141
   (E)  Total one-electron terms.....   -1400.17579781696
   (I)  Total two-electron terms.....     572.16874436485
   (J)    Coulomb....................     630.00916816561
   (K)    Exchange+Correlation.......     -57.84042380076
   (L)  Electronic energy............    -828.00705345211  (E+I)
   (N)  Total energy.................    -382.30822565070  (A+L)
  
 SCFE: SCF energy: DFT      -382.30822565070 hartrees   iterations:   5
  
 
 HOMO energy:    -0.15317
 LUMO energy:     0.03772
 
  Orbital energies/symmetry label: 
  -10.02022 Bu       -10.02018 Ag       -10.00791 Bu       -10.00791 Ag     
  -10.00688 Bu       -10.00688 Ag       -10.00618 Bu       -10.00604 Ag     
   -9.99222 Bu        -9.99222 Ag        -0.80901 Ag        -0.75365 Bu     
   -0.71784 Ag        -0.69966 Bu        -0.66738 Bu        -0.58834 Ag     
   -0.55889 Ag        -0.53125 Bu        -0.51009 Ag        -0.45707 Ag     
   -0.43914 Bu        -0.41089 Bu        -0.39785 Bu        -0.39620 Ag     
   -0.37413 Bu        -0.35103 Bu        -0.34706 Ag        -0.32410 Au     
   -0.31084 Bu        -0.29261 Ag        -0.28765 Ag        -0.26326 Bg     
   -0.21241 Au        -0.19488 Bg        -0.15317 Bg         0.03772 Au     
    0.08980 Au         0.11085 Bg         0.18207 Au         0.27183 Bg     
    0.33180 Ag         0.34081 Bu         0.37860 Bu         0.38140 Ag     
    0.41090 Ag         0.41139 Bu         0.42626 Bu         0.43834 Ag     
    0.45245 Bu         0.47739 Ag         0.52570 Ag         0.54561 Bu     
    0.57592 Ag         0.59802 Bu         0.62447 Bu         0.63938 Ag     
    0.68210 Ag         0.71754 Bu         0.77868 Ag         0.79313 Bu     
 
  end of program scf 
   
   
  start of program cutabab2
  end of program cutabab2
   
   
  start of program der1a
  end of program der1a
   
   
  start of program der1b
   
  forces (hartrees/bohr) : total     
   
 atom  label           x              y              z
 ---- --------   -------------  -------------  -------------
    1 C1          9.143397E-04   1.357958E-03   0.000000E+00
    2 C2         -2.048592E-03  -2.034084E-04   0.000000E+00
    3 C3          6.614068E-04   1.540866E-03   0.000000E+00
    4 C4         -9.143397E-04  -1.357958E-03   0.000000E+00
    5 C5          2.048592E-03   2.034084E-04   0.000000E+00
    6 H6          2.651896E-04   1.638497E-04   0.000000E+00
    7 H7         -4.549036E-04  -2.520448E-05   0.000000E+00
    8 H8         -2.651896E-04  -1.638497E-04   0.000000E+00
    9 C9          1.599293E-03  -8.617988E-04   0.000000E+00
   10 C10        -1.040762E-04   4.815637E-04   0.000000E+00
   11 H11        -6.419186E-04   2.740313E-05   0.000000E+00
   12 H12        -2.524951E-04   1.309702E-04   0.000000E+00
   13 H13         1.020495E-04   2.828131E-04   0.000000E+00
   14 C14        -1.599293E-03   8.617988E-04   0.000000E+00
   15 H15         2.524951E-04  -1.309702E-04   0.000000E+00
   16 C16         1.040762E-04  -4.815637E-04   0.000000E+00
   17 H17         6.419186E-04  -2.740313E-05   0.000000E+00
   18 H18        -1.020495E-04  -2.828131E-04   0.000000E+00
   19 C19        -6.614068E-04  -1.540866E-03   0.000000E+00
   20 H20         4.549036E-04   2.520448E-05   0.000000E+00
 -------------   -------------  -------------  -------------
     total        0.000000E+00   0.000000E+00   0.000000E+00
   
  end of program der1b
   
   
  start of program geopt   3
  
  geometry optimization step  3
  energy:            -382.30822565070 hartrees
  
  energy change:          -5.4393E-04 .  (  5.0000E-05 )
  gradient maximum:        1.3838E-03 .  (  4.5000E-04 )
  gradient rms:            5.6272E-04 .  (  3.0000E-04 )
  step size:   0.01292  trust radius:   0.30000
  displacement maximum:    4.5105E-03 .  (  1.8000E-03 )
  displacement rms:        1.6681E-03 .  (  1.2000E-03 )
  predicted energy change:    -2.5486E-05    geom step:   1.2921E-02    full step:   1.2921E-02
  molecular structure not yet converged...
  
  center of mass moved by:
     x:     4.5022E-17     y:     2.0484E-16     z:     0.0000E+00
  
  new geometry: 
                                   angstroms
  atom               x                 y                 z
  C1            1.2666175511      0.6759053204      0.0000000000 
  C2            1.1955962282     -0.7436171670      0.0000000000 
  C3           -0.0431350331     -1.4015646241      0.0000000000 
  C4           -1.2666175511     -0.6759053204      0.0000000000 
  C5           -1.1955962282      0.7436171670      0.0000000000 
  H6            2.1195993507     -1.3362570300      0.0000000000 
  H7           -0.0742328064     -2.4998270754      0.0000000000 
  H8           -2.1195993507      1.3362570300      0.0000000000 
  C9           -2.5617172976     -1.4287327894      0.0000000000 
  C10          -3.7971290590     -0.8982643450      0.0000000000 
  H11          -3.9755961813      0.1831412586      0.0000000000 
  H12          -2.4509711431     -2.5236763147      0.0000000000 
  H13          -4.6892488980     -1.5355738647      0.0000000000 
  C14           2.5617172976      1.4287327894      0.0000000000 
  H15           2.4509711431      2.5236763147      0.0000000000 
  C16           3.7971290590      0.8982643450      0.0000000000 
  H17           3.9755961813     -0.1831412586      0.0000000000 
  H18           4.6892488980      1.5355738647      0.0000000000 
  C19           0.0431350331      1.4015646241      0.0000000000 
  H20           0.0742328064      2.4998270754      0.0000000000 
   
 
  bond lengths (angstroms):
 
 C1      -C2      :   1.421298      C1      -C14     :   1.498010
 C1      -C19     :   1.422495      C2      -C3      :   1.402623
 C2      -H6      :   1.097727      C3      -C4      :   1.422495
 C3      -H7      :   1.098703      C4      -C5      :   1.421298
 C4      -C9      :   1.498010      C5      -H8      :   1.097727
 C5      -C19     :   1.402623      C9      -C10     :   1.344485
 C9      -H12     :   1.100530      C10     -H11     :   1.096033
 C10     -H13     :   1.096376      C14     -H15     :   1.100530
 C14     -C16     :   1.344485      C16     -H17     :   1.096033
 C16     -H18     :   1.096376      C19     -H20     :   1.098703
 
  bond angles:
 
 C14     -C1      -C2      : 123.033199  C19     -C1      -C2      : 117.808364
 C19     -C1      -C14     : 119.158437  C3      -C2      -C1      : 120.839063
 H6      -C2      -C1      : 119.811196  H6      -C2      -C3      : 119.349741
 C4      -C3      -C2      : 121.352573  H7      -C3      -C2      : 119.596759
 H7      -C3      -C4      : 119.050668  C5      -C4      -C3      : 117.808364
 C9      -C4      -C3      : 119.158437  C9      -C4      -C5      : 123.033199
 H8      -C5      -C4      : 119.811196  C19     -C5      -C4      : 120.839063
 C19     -C5      -H8      : 119.349741  C10     -C9      -C4      : 126.593021
 H12     -C9      -C4      : 114.393532  H12     -C9      -C10     : 119.013447
 H11     -C10     -C9      : 122.609206  H13     -C10     -C9      : 121.220869
 H13     -C10     -H11     : 116.169924  H15     -C14     -C1      : 114.393532
 C16     -C14     -C1      : 126.593021  C16     -C14     -H15     : 119.013447
 H17     -C16     -C14     : 122.609206  H18     -C16     -C14     : 121.220869
 H18     -C16     -H17     : 116.169924  C5      -C19     -C1      : 121.352573
 H20     -C19     -C1      : 119.050668  H20     -C19     -C5      : 119.596759
 
  torsional angles:
 
 C1      -C2      -C3      -C4      :   0.000000
 C1      -C2      -C3      -H7      : 180.000000
 C1      -C14     -C16     -H17     :   0.000000
 C1      -C14     -C16     -H18     : 180.000000
 C1      -C19     -C5      -C4      :   0.000000
 C1      -C19     -C5      -H8      : 180.000000
 C2      -C1      -C14     -H15     : 179.999999
 C2      -C1      -C14     -C16     :   0.000000
 C2      -C1      -C19     -C5      :   0.000000
 C2      -C1      -C19     -H20     : 180.000000
 C2      -C3      -C4      -C5      :   0.000000
 C2      -C3      -C4      -C9      : 180.000000
 C3      -C2      -C1      -C14     : 180.000000
 C3      -C2      -C1      -C19     :   0.000000
 C3      -C4      -C5      -H8      : 180.000000
 C3      -C4      -C5      -C19     :   0.000000
 C3      -C4      -C9      -C10     : 180.000000
 C3      -C4      -C9      -H12     :   0.000000
 C4      -C3      -C2      -H6      : 180.000000
 C4      -C5      -C19     -H20     : 180.000000
 C4      -C9      -C10     -H11     :   0.000000
 C4      -C9      -C10     -H13     : 180.000000
 C5      -C4      -C3      -H7      : 180.000000
 C5      -C4      -C9      -C10     :   0.000000
 C5      -C4      -C9      -H12     : 179.999999
 C5      -C19     -C1      -C14     : 180.000000
 H6      -C2      -C1      -C14     :   0.000000
 H6      -C2      -C1      -C19     : 180.000000
 H6      -C2      -C3      -H7      :   0.000000
 H7      -C3      -C4      -C9      :   0.000000
 H8      -C5      -C4      -C9      :   0.000000
 H8      -C5      -C19     -H20     :   0.000000
 C9      -C4      -C5      -C19     : 180.000000
 H11     -C10     -C9      -H12     : 180.000000
 H12     -C9      -C10     -H13     :   0.000000
 C14     -C1      -C19     -H20     :   0.000000
 H15     -C14     -C1      -C19     :   0.000000
 H15     -C14     -C16     -H17     : 180.000000
 H15     -C14     -C16     -H18     :   0.000000
 C16     -C14     -C1      -C19     : 180.000000
 
  nuclear repulsion energy.......     445.832357809 hartrees
  -------------------------------------------------
 /  end of geometry optimization iteration   3   /
 -------------------------------------------------
   
  end of program geopt
   
   
  start of program onee
  smallest eigenvalue of S:    1.815E-01
  number of canonical orbitals.....           60
  end of program onee
   
   
  start of program probe
  end of program probe
   
   
  start of program grid
   
  number of gridpoints: 
     atom         C1        C2        C3        C4        C5        H6        H7        H8
  grid # 1      2430      2430         0         0         0      2430         0         0
  grid # 2       756       756         0         0         0       756         0         0
  grid # 3      3001      3001         0         0         0      3001         0         0
  grid # 4      3756      3756         0         0         0      3033         0         0
  grid # 5       426       426         0         0         0       464         0         0
   
  number of gridpoints: 
     atom         C9       C10       H11       H12       H13       C14       H15       C16
  grid # 1         0         0         0         0         0      2430      2430      2430
  grid # 2         0         0         0         0         0       756       756       756
  grid # 3         0         0         0         0         0      3001      3001      3001
  grid # 4         0         0         0         0         0      3756      3033      3756
  grid # 5         0         0         0         0         0       426       464       426
   
  number of gridpoints: 
     atom        H17       H18       C19       H20     total
  grid # 1      2430      2430      2430      2430     24300
  grid # 2       756       756       756       756      7560
  grid # 3      3001      3001      3001      3001     30010
  grid # 4      3033      3033      3756      3033     33945
  grid # 5       464       464       426       464      4450
   
  end of program grid
   
   
  start of program scf 
  
       i  u  d  i  g                   
       t  p  i  c  r                                 RMS    maximum
       e  d  i  u  i                       energy  density   DIIS  
       r  t  s  t  d       total energy    change  change    error 
  
etot   1  N  N  0  N    -382.30825287182           1.6E-05  2.5E-04
etot   2  Y  Y  0  N    -382.30825659884  3.7E-06  6.6E-06  1.3E-04
etot   3  Y  Y  0  N    -382.30825668156  8.3E-08  2.8E-06  1.4E-04
etot   4  Y  N  0  N    -382.30825695498  2.7E-07  0.0E+00  0.0E+00
  
  
 Energy components, in hartrees:
   (A)  Nuclear repulsion............     445.83235780918
   (E)  Total one-electron terms.....   -1400.43731985457
   (I)  Total two-electron terms.....     572.29670509040
   (J)    Coulomb....................     630.13910038678
   (K)    Exchange+Correlation.......     -57.84239529638
   (L)  Electronic energy............    -828.14061476417  (E+I)
   (N)  Total energy.................    -382.30825695498  (A+L)
  
 SCFE: SCF energy: DFT      -382.30825695498 hartrees   iterations:   4
  
 
 HOMO energy:    -0.15308
 LUMO energy:     0.03746
 
  Orbital energies/symmetry label: 
  -10.02023 Bu       -10.02018 Ag       -10.00808 Bu       -10.00808 Ag     
  -10.00678 Bu       -10.00678 Ag       -10.00607 Bu       -10.00593 Ag     
   -9.99229 Bu        -9.99229 Ag        -0.80940 Ag        -0.75387 Bu     
   -0.71785 Ag        -0.69970 Bu        -0.66744 Bu        -0.58863 Ag     
   -0.55886 Ag        -0.53160 Bu        -0.51014 Ag        -0.45733 Ag     
   -0.43927 Bu        -0.41060 Bu        -0.39791 Bu        -0.39602 Ag     
   -0.37393 Bu        -0.35110 Bu        -0.34727 Ag        -0.32441 Au     
   -0.31121 Bu        -0.29272 Ag        -0.28750 Ag        -0.26345 Bg     
   -0.21236 Au        -0.19497 Bg        -0.15308 Bg         0.03746 Au     
    0.09024 Au         0.11058 Bg         0.18212 Au         0.27238 Bg     
    0.33211 Ag         0.34074 Bu         0.37916 Bu         0.38141 Ag     
    0.41083 Ag         0.41176 Bu         0.42663 Bu         0.43934 Ag     
    0.45256 Bu         0.47799 Ag         0.52616 Ag         0.54566 Bu     
    0.57580 Ag         0.59911 Bu         0.62470 Bu         0.63948 Ag     
    0.68238 Ag         0.71700 Bu         0.77926 Ag         0.79420 Bu     
 
  end of program scf 
   
   
  start of program cutabab2
  end of program cutabab2
   
   
  start of program der1a
  end of program der1a
   
   
  start of program der1b
   
  forces (hartrees/bohr) : total     
   
 atom  label           x              y              z
 ---- --------   -------------  -------------  -------------
    1 C1          3.112379E-04   1.337391E-04   0.000000E+00
    2 C2         -7.630366E-05  -2.451394E-04   0.000000E+00
    3 C3          3.526012E-04   4.227761E-05   0.000000E+00
    4 C4         -3.112379E-04  -1.337391E-04   0.000000E+00
    5 C5          7.630366E-05   2.451394E-04   0.000000E+00
    6 H6         -8.179444E-06   7.356513E-05   0.000000E+00
    7 H7         -2.021305E-05   1.419346E-05   0.000000E+00
    8 H8          8.179444E-06  -7.356513E-05   0.000000E+00
    9 C9         -5.834557E-05  -2.028551E-05   0.000000E+00
   10 C10         1.962427E-04  -1.277240E-04   0.000000E+00
   11 H11        -9.667914E-05  -5.244377E-05   0.000000E+00
   12 H12        -1.556331E-04   2.957524E-05   0.000000E+00
   13 H13         3.577454E-05   9.172934E-05   0.000000E+00
   14 C14         5.834557E-05   2.028551E-05   0.000000E+00
   15 H15         1.556331E-04  -2.957524E-05   0.000000E+00
   16 C16        -1.962427E-04   1.277240E-04   0.000000E+00
   17 H17         9.667914E-05   5.244377E-05   0.000000E+00
   18 H18        -3.577454E-05  -9.172934E-05   0.000000E+00
   19 C19        -3.526012E-04  -4.227761E-05   0.000000E+00
   20 H20         2.021305E-05  -1.419346E-05   0.000000E+00
 -------------   -------------  -------------  -------------
     total        0.000000E+00   0.000000E+00   0.000000E+00
   
  end of program der1b
   
   
  start of program geopt   4
  
  geometry optimization step  4
  energy:            -382.30825695498 hartrees
  
  energy change:          -3.1304E-05 *  (  5.0000E-05 )
  gradient maximum:        3.2628E-04 *  (  4.5000E-04 )
  gradient rms:            1.2439E-04 *  (  3.0000E-04 )
  step size:   0.00255  trust radius:   0.30000
  displacement maximum:    1.0119E-03 *  (  1.8000E-03 )
  displacement rms:        3.2952E-04 *  (  1.2000E-03 )
  predicted energy change:    -1.0536E-06    geom step:   2.5525E-03    full step:   2.5525E-03
  
  ********************************************************
  **           Geometry optimization complete           **
  ********************************************************
  
  center of mass moved by:
     x:     0.0000E+00     y:     0.0000E+00     z:     0.0000E+00
  
  final geometry: 
                                   angstroms
  atom               x                 y                 z
  C1            1.2666175511      0.6759053204      0.0000000000 
  C2            1.1955962282     -0.7436171670      0.0000000000 
  C3           -0.0431350331     -1.4015646241      0.0000000000 
  C4           -1.2666175511     -0.6759053204      0.0000000000 
  C5           -1.1955962282      0.7436171670      0.0000000000 
  H6            2.1195993507     -1.3362570300      0.0000000000 
  H7           -0.0742328064     -2.4998270754      0.0000000000 
  H8           -2.1195993507      1.3362570300      0.0000000000 
  C9           -2.5617172976     -1.4287327894      0.0000000000 
  C10          -3.7971290590     -0.8982643450      0.0000000000 
  H11          -3.9755961813      0.1831412586      0.0000000000 
  H12          -2.4509711431     -2.5236763147      0.0000000000 
  H13          -4.6892488980     -1.5355738647      0.0000000000 
  C14           2.5617172976      1.4287327894      0.0000000000 
  H15           2.4509711431      2.5236763147      0.0000000000 
  C16           3.7971290590      0.8982643450      0.0000000000 
  H17           3.9755961813     -0.1831412586      0.0000000000 
  H18           4.6892488980      1.5355738647      0.0000000000 
  C19           0.0431350331      1.4015646241      0.0000000000 
  H20           0.0742328064      2.4998270754      0.0000000000 
   
  principal moments of inertia:
        amu*angstrom^2:      109.27255      738.06203      847.33457
                g*cm^2: 1.81451457E-38 1.22558167E-37 1.40703312E-37
   
  rotational constants:
               cm^(-1):     0.15427142     0.02284040     0.01989489
                   GHz:     4.62494090     0.68473794     0.59643391
   
 
  bond lengths (angstroms):
 
 C1      -C2      :   1.421298      C1      -C14     :   1.498010
 C1      -C19     :   1.422495      C2      -C3      :   1.402623
 C2      -H6      :   1.097727      C3      -C4      :   1.422495
 C3      -H7      :   1.098703      C4      -C5      :   1.421298
 C4      -C9      :   1.498010      C5      -H8      :   1.097727
 C5      -C19     :   1.402623      C9      -C10     :   1.344485
 C9      -H12     :   1.100530      C10     -H11     :   1.096033
 C10     -H13     :   1.096376      C14     -H15     :   1.100530
 C14     -C16     :   1.344485      C16     -H17     :   1.096033
 C16     -H18     :   1.096376      C19     -H20     :   1.098703
 
  bond angles:
 
 C14     -C1      -C2      : 123.033199  C19     -C1      -C2      : 117.808364
 C19     -C1      -C14     : 119.158437  C3      -C2      -C1      : 120.839063
 H6      -C2      -C1      : 119.811196  H6      -C2      -C3      : 119.349741
 C4      -C3      -C2      : 121.352573  H7      -C3      -C2      : 119.596759
 H7      -C3      -C4      : 119.050668  C5      -C4      -C3      : 117.808364
 C9      -C4      -C3      : 119.158437  C9      -C4      -C5      : 123.033199
 H8      -C5      -C4      : 119.811196  C19     -C5      -C4      : 120.839063
 C19     -C5      -H8      : 119.349741  C10     -C9      -C4      : 126.593021
 H12     -C9      -C4      : 114.393532  H12     -C9      -C10     : 119.013447
 H11     -C10     -C9      : 122.609206  H13     -C10     -C9      : 121.220869
 H13     -C10     -H11     : 116.169924  H15     -C14     -C1      : 114.393532
 C16     -C14     -C1      : 126.593021  C16     -C14     -H15     : 119.013447
 H17     -C16     -C14     : 122.609206  H18     -C16     -C14     : 121.220869
 H18     -C16     -H17     : 116.169924  C5      -C19     -C1      : 121.352573
 H20     -C19     -C1      : 119.050668  H20     -C19     -C5      : 119.596759
 
  torsional angles:
 
 C1      -C2      -C3      -C4      :   0.000000
 C1      -C2      -C3      -H7      : 180.000000
 C1      -C14     -C16     -H17     :   0.000000
 C1      -C14     -C16     -H18     : 180.000000
 C1      -C19     -C5      -C4      :   0.000000
 C1      -C19     -C5      -H8      : 180.000000
 C2      -C1      -C14     -H15     : 179.999999
 C2      -C1      -C14     -C16     :   0.000000
 C2      -C1      -C19     -C5      :   0.000000
 C2      -C1      -C19     -H20     : 180.000000
 C2      -C3      -C4      -C5      :   0.000000
 C2      -C3      -C4      -C9      : 180.000000
 C3      -C2      -C1      -C14     : 180.000000
 C3      -C2      -C1      -C19     :   0.000000
 C3      -C4      -C5      -H8      : 180.000000
 C3      -C4      -C5      -C19     :   0.000000
 C3      -C4      -C9      -C10     : 180.000000
 C3      -C4      -C9      -H12     :   0.000000
 C4      -C3      -C2      -H6      : 180.000000
 C4      -C5      -C19     -H20     : 180.000000
 C4      -C9      -C10     -H11     :   0.000000
 C4      -C9      -C10     -H13     : 180.000000
 C5      -C4      -C3      -H7      : 180.000000
 C5      -C4      -C9      -C10     :   0.000000
 C5      -C4      -C9      -H12     : 179.999999
 C5      -C19     -C1      -C14     : 180.000000
 H6      -C2      -C1      -C14     :   0.000000
 H6      -C2      -C1      -C19     : 180.000000
 H6      -C2      -C3      -H7      :   0.000000
 H7      -C3      -C4      -C9      :   0.000000
 H8      -C5      -C4      -C9      :   0.000000
 H8      -C5      -C19     -H20     :   0.000000
 C9      -C4      -C5      -C19     : 180.000000
 H11     -C10     -C9      -H12     : 180.000000
 H12     -C9      -C10     -H13     :   0.000000
 C14     -C1      -C19     -H20     :   0.000000
 H15     -C14     -C1      -C19     :   0.000000
 H15     -C14     -C16     -H17     : 180.000000
 H15     -C14     -C16     -H18     :   0.000000
 C16     -C14     -C1      -C19     : 180.000000
 
  nuclear repulsion energy.......     445.832357809 hartrees
  -------------------------------------------------
 /  end of geometry optimization iteration   4   /
 -------------------------------------------------
   
  end of program geopt
   
 Total cpu seconds     user:     136.950   user+sys:     141.040
  
 Total elapsed time:    150 seconds

Job dvb_gopt_b completed on a-gle at Sun Aug  6 09:17:58 2006
