----- GAMESS execution script 'rungms' -----
This job is running on host jordan-wkst2
under operating system Linux at Mon 05 Aug 2019 02:11:19 PM EDT
Available scratch disk space (Kbyte units) at beginning of the job is
Filesystem     1K-blocks  Used Available Use% Mounted on
tmpfs            5053572  4596   5048976   1% /tmp
GAMESS temporary binary files will be written to /tmp
GAMESS supplementary output files will be written to /home/shiv/.gamess
Copying input file dvb_un_sp_ghost.inp to your run's scratch directory...
cp dvb_un_sp_ghost.inp /tmp/dvb_un_sp_ghost.F05
unset echo
/opt/gamess/ddikick.x /opt/gamess/gamess.00.x dvb_un_sp_ghost -ddi 1 1 jordan-wkst2 -scr /tmp

 Distributed Data Interface kickoff program.
 Initiating 1 compute processes on 1 nodes to run the following command:
 /opt/gamess/gamess.00.x dvb_un_sp_ghost 

          ******************************************************
          *         GAMESS VERSION = 30 SEP 2018 (R3)         *
          *             FROM IOWA STATE UNIVERSITY             *
          * M.W.SCHMIDT, K.K.BALDRIDGE, J.A.BOATZ, S.T.ELBERT, *
          *   M.S.GORDON, J.H.JENSEN, S.KOSEKI, N.MATSUNAGA,   *
          *          K.A.NGUYEN, S.J.SU, T.L.WINDUS,           *
          *       TOGETHER WITH M.DUPUIS, J.A.MONTGOMERY       *
          *         J.COMPUT.CHEM.  14, 1347-1363(1993)        *
          **************** 64 BIT LINUX VERSION ****************

  SINCE 1993, STUDENTS AND POSTDOCS WORKING AT IOWA STATE UNIVERSITY
  AND ALSO IN THEIR VARIOUS JOBS AFTER LEAVING ISU HAVE MADE IMPORTANT
  CONTRIBUTIONS TO THE CODE:
     IVANA ADAMOVIC, CHRISTINE AIKENS, YURI ALEXEEV, POOJA ARORA,
     ANDREY ASADCHEV, ROB BELL, PRADIPTA BANDYOPADHYAY, JONATHAN BENTZ,
     COLLEEN BERTONI, BRETT BODE, KURT BRORSEN, CALEB CARLIN, GALINA CHABAN,
     WEI CHEN, CHEOL HO CHOI, PAUL DAY, ALBERT DEFUSCO, NUWAN DESILVA,
     TIM DUDLEY, DMITRI FEDOROV, ALEX FINDLATER, GRAHAM FLETCHER, 
     MARK FREITAG, KURT GLAESEMANN, ANASTASIA GUNINA,
     DAN KEMP, GRANT MERRILL, NORIYUKI MINEZAWA, JONATHAN MULLIN,
     TAKESHI NAGATA, SEAN NEDD, HEATHER NETZLOFF, BOSILJKA NJEGIC, RYAN OLSON,
     MIKE PAK, BUU PHAM,
     SPENCER PRUITT, LUKE ROSKOP, JIM SHOEMAKER, LYUDMILA SLIPCHENKO,
     TONY SMITH, SAROM SOK LEANG, JIE SONG, TETSUYA TAKETSUGU, SIMON WEBB,
     PENG XU, SOOHAENG YOO, FEDERICO ZAHARIEV

  ADDITIONAL CODE HAS BEEN PROVIDED BY COLLABORATORS IN OTHER GROUPS:
     IOWA STATE UNIVERSITY:
          JOE IVANIC, AARON WEST, LAIMUTIS BYTAUTAS, KLAUS RUEDENBERG
     UNIVERSITY OF TOKYO: KIMIHIKO HIRAO, TAKAHITO NAKAJIMA,
          TAKAO TSUNEDA, MUNEAKI KAMIYA, SUSUMU YANAGISAWA,
          KIYOSHI YAGI, MAHITO CHIBA, SEIKEN TOKURA, NAOAKI KAWAKAMI
     UNIVERSITY OF AARHUS: FRANK JENSEN
     UNIVERSITY OF IOWA: VISVALDAS KAIRYS, HUI LI
     NATIONAL INST. OF STANDARDS AND TECHNOLOGY: WALT STEVENS, DAVID GARMER
     UNIVERSITY OF PISA: BENEDETTA MENNUCCI, JACOPO TOMASI
     UNIVERSITY OF MEMPHIS: HENRY KURTZ, PRAKASHAN KORAMBATH
     UNIVERSITY OF ALBERTA: TOBY ZENG, MARIUSZ KLOBUKOWSKI
     UNIVERSITY OF NEW ENGLAND: MARK SPACKMAN
     MIE UNIVERSITY: HIROAKI UMEDA
     NAT. INST. OF ADVANCED INDUSTRIAL SCIENCE AND TECHNOLOGY: KAZUO KITAURA
     MICHIGAN STATE UNIVERSITY:
          KAROL KOWALSKI, MARTA WLOCH, JEFFREY GOUR, JESSE LUTZ,
          WEI LI, JUN SHEN, J. EMILIANO DEUSTUA, PIOTR PIECUCH
     UNIVERSITY OF MINNESOTA:
          YINAN SHU
     UNIVERSITY OF SILESIA: MONIKA MUSIAL, STANISLAW KUCHARSKI
     FACULTES UNIVERSITAIRES NOTRE-DAME DE LA PAIX:
          OLIVIER QUINET, BENOIT CHAMPAGNE
     UNIVERSITY OF CALIFORNIA - SANTA BARBARA: BERNARD KIRTMAN
     INSTITUTE FOR MOLECULAR SCIENCE:
          KAZUYA ISHIMURA, MICHIO KATOUDA, AND SHIGERU NAGASE
     UNIVERSITY OF NOTRE DAME: ANNA POMOGAEVA, DAN CHIPMAN
     KYUSHU UNIVERSITY:
          HARUYUKI NAKANO,
          FENG LONG GU, JACEK KORCHOWIEC, MARCIN MAKOWSKI, AND YURIKO AOKI,
          HIROTOSHI MORI AND EISAKU MIYOSHI
     PENNSYLVANIA STATE UNIVERSITY:
          TZVETELIN IORDANOV, CHET SWALINA, JONATHAN SKONE,
          SHARON HAMMES-SCHIFFER
     WASEDA UNIVERSITY:
          MASATO KOBAYASHI, TOMOKO AKAMA, TSUGUKI TOUMA,
          TAKESHI YOSHIKAWA, YASUHIRO IKABATA, JUNJI SEINO,
          YUYA NAKAJIMA, HIROMI NAKAI
     NANJING UNIVERSITY: SHUHUA LI
     UNIVERSITY OF NEBRASKA:
          PEIFENG SU, DEJUN SI, NANDUN THELLAMUREGE, YALI WANG, HUI LI
     UNIVERSITY OF ZURICH: ROBERTO PEVERATI, KIM BALDRIDGE
     N. COPERNICUS UNIVERSITY AND JACKSON STATE UNIVERSITY:
          MARIA BARYSZ
     UNIVERSITY OF COPENHAGEN: Jimmy Kromann, CASPER STEINMANN
     TOKYO INSTITUTE OF TECHNOLOGY: HIROYA NAKATA
     NAGOYA UNIVERSITY: YOSHIO NISHIMOTO, STEPHAN IRLE
     MOSCOW STATE UNIVERSITY: VLADIMIR MIRONOV
     A.N.NESMEYANOV INSTITUTE OF ORGANOELEMENT COMPOUNDS OF RUSSIAN ACADEMY OF SCIENCES:
          IGOR S. GERASIMOV

 EXECUTION OF GAMESS BEGUN Mon Aug  5 14:11:19 2019

            ECHO OF THE FIRST FEW INPUT CARDS -
 INPUT CARD> $CONTRL COORD=UNIQUE UNITS=ANGS NPRINT=3                                       
 INPUT CARD>         RUNTYP=ENERGY SCFTYP=UHF                                               
 INPUT CARD>         MULT=2 ICHARG=1 $END                                                   
 INPUT CARD> $GUESS  GUESS=HUCKEL $END                                                      
 INPUT CARD> $DATA                                                                          
 INPUT CARD>divinylbenzene                                                                  
 INPUT CARD>cn  1                                                                           
 INPUT CARD>                                                                                
 INPUT CARD> X           0.0   0.0000000000   0.0000000000   0.0000000000                   
 INPUT CARD>S   1                                                                           
 INPUT CARD>  1   10.000    1.0                                                             
 INPUT CARD>                                                                                
 INPUT CARD> C           6.0  -1.3939882447   0.2213755683   0.0000000000                   
 INPUT CARD>sto 3                                                                           
 INPUT CARD>                                                                                
 INPUT CARD> C           6.0   1.3939882447  -0.2213755683   0.0000000000                   
 INPUT CARD>sto 3                                                                           
 INPUT CARD>                                                                                
 INPUT CARD> C           6.0  -0.4919705715   1.2868407086   0.0000000000                   
 INPUT CARD>sto 3                                                                           
 INPUT CARD>                                                                                
 INPUT CARD> C           6.0   0.4919705715  -1.2868407086   0.0000000000                   
 INPUT CARD>sto 3                                                                           
 INPUT CARD>                                                                                
 INPUT CARD> C           6.0   0.8733456137   1.0731470812   0.0000000000                   
 INPUT CARD>sto 3                                                                           
 INPUT CARD>                                                                                
 INPUT CARD> C           6.0  -0.8733456137  -1.0731470812   0.0000000000                   
 INPUT CARD>sto 3                                                                           
 INPUT CARD>                                                                                
 INPUT CARD> H           1.0  -0.8715846529   2.3007508400   0.0000000000                   
 INPUT CARD>sto 3                                                                           
 INPUT CARD>                                                                                
 INPUT CARD> H           1.0   0.8715846529  -2.3007508400   0.0000000000                   
 INPUT CARD>sto 3                                                                           
 INPUT CARD>                                                                                
 INPUT CARD> H           1.0   1.5389282156   1.9253173698   0.0000000000                   
 INPUT CARD>sto 3                                                                           
 INPUT CARD>                                                                                
 INPUT CARD> H           1.0  -1.5389282156  -1.9253173698   0.0000000000                   
 INPUT CARD>sto 3                                                                           
 INPUT CARD>                                                                                
 INPUT CARD> C           6.0   2.8621079750  -0.5097799325   0.0000000000                   
 INPUT CARD>sto 3                                                                           
 INPUT CARD>                                                                                
 INPUT CARD> C           6.0  -2.8621079750   0.5097799325   0.0000000000                   
 INPUT CARD>sto 3                                                                           
 INPUT CARD>                                                                                
 INPUT CARD> H           1.0   3.1070578958  -1.5662206184   0.0000000000                   
 INPUT CARD>sto 3                                                                           
    1000000 WORDS OF MEMORY AVAILABLE


     RUN TITLE
     ---------
 divinylbenzene                                                                  

 THE POINT GROUP OF THE MOLECULE IS CN      
 THE ORDER OF THE PRINCIPAL AXIS IS     1

 ATOM      ATOMIC                      COORDINATES (BOHR)
           CHARGE         X                   Y                   Z
 X           0.0     0.0000000000        0.0000000000        0.0000000000
 C           6.0    -2.6342558126        0.4183391645        0.0000000000
 C           6.0     2.6342558126       -0.4183391645        0.0000000000
 C           6.0    -0.9296895742        2.4317763291        0.0000000000
 C           6.0     0.9296895742       -2.4317763291        0.0000000000
 C           6.0     1.6503839025        2.0279539280        0.0000000000
 C           6.0    -1.6503839025       -2.0279539280        0.0000000000
 H           1.0    -1.6470561691        4.3477886536        0.0000000000
 H           1.0     1.6470561691       -4.3477886536        0.0000000000
 H           1.0     2.9081526423        3.6383222683        0.0000000000
 H           1.0    -2.9081526423       -3.6383222683        0.0000000000
 C           6.0     5.4085998200       -0.9633443865        0.0000000000
 C           6.0    -5.4085998200        0.9633443865        0.0000000000
 H           1.0     5.8714880510       -2.9597278051        0.0000000000
 H           1.0    -5.8714880510        2.9597278051        0.0000000000
 C           6.0     7.2518537171        0.6992826814        0.0000000000
 C           6.0    -7.2518537171       -0.6992826814        0.0000000000
 H           1.0     6.9331987726        2.7158507354        0.0000000000
 H           1.0    -6.9331987726       -2.7158507354        0.0000000000
 H           1.0     9.2093629065        0.1142817145        0.0000000000
 H           1.0    -9.2093629065       -0.1142817145        0.0000000000

          INTERNUCLEAR DISTANCES (ANGS.)
          ------------------------------

                1 X          2 C          3 C          4 C          5 C     

   1 X       0.0000000    1.4114568 *  1.4114568 *  1.3776770 *  1.3776770 *
   2 C       1.4114568 *  0.0000000    2.8229136 *  1.3960128 *  2.4148617 *
   3 C       1.4114568 *  2.8229136 *  0.0000000    2.4148617 *  1.3960128 *
   4 C       1.3776770 *  1.3960128 *  2.4148617 *  0.0000000    2.7553541 *
   5 C       1.3776770 *  2.4148617 *  1.3960128 *  2.7553541 *  0.0000000  
   6 C       1.3836102 *  2.4220482 *  1.3952984 *  1.3819382 *  2.3906044 *
   7 C       1.3836102 *  1.3952984 *  2.4220482 *  2.3906044 *  1.3819382 *
   8 H       2.4603078 *  2.1439932 *  3.3902717    1.0826452 *  3.8379807  
   9 H       2.4603078 *  3.3902717    2.1439932 *  3.8379807    1.0826452 *
  10 H       2.4647813 *  3.3919635    2.1515804 *  2.1288970 *  3.3784730  
  11 H       2.4647813 *  2.1515804 *  3.3919635    3.3784730    2.1288970 *
  12 C       2.9071528 *  4.3184422    1.4961793 *  3.8049558    2.4942684 *
  13 C       2.9071528 *  1.4961793 *  4.3184422    2.4942684 *  3.8049558  
  14 H       3.4794907    4.8430276    2.1778925 *  4.5927078    2.6299686 *
  15 H       3.4794907    2.1778925 *  4.8430276    2.6299686 *  4.5927078  
  16 C       3.8553161    5.2336163    2.5140815 *  4.4254909    3.7333554  
  17 C       3.8553161    2.5140815 *  5.2336163    3.7333554    4.4254909  
  18 H       3.9403311    5.2068123    2.8153054 *  4.1635763    4.1848583  
  19 H       3.9403311    2.8153054 *  5.2068123    4.1848583    4.1635763  
  20 H       4.8737605    6.2694386    3.4907942    5.5037275    4.5838909  
  21 H       4.8737605    3.4907942    6.2694386    4.5838909    5.5037275  

                6 C          7 C          8 H          9 H         10 H     

   1 X       1.3836102 *  1.3836102 *  2.4603078 *  2.4603078 *  2.4647813 *
   2 C       2.4220482 *  1.3952984 *  2.1439932 *  3.3902717    3.3919635  
   3 C       1.3952984 *  2.4220482 *  3.3902717    2.1439932 *  2.1515804 *
   4 C       1.3819382 *  2.3906044 *  1.0826452 *  3.8379807    2.1288970 *
   5 C       2.3906044 *  1.3819382 *  3.8379807    1.0826452 *  3.3784730  
   6 C       0.0000000    2.7672204 *  2.1334931 *  3.3738984    1.0812929 *
   7 C       2.7672204 *  0.0000000    3.3738984    2.1334931 *  3.8483573  
   8 H       2.1334931 *  3.3738984    0.0000000    4.9206155    2.4395743 *
   9 H       3.3738984    2.1334931 *  4.9206155    0.0000000    4.2784343  
  10 H       1.0812929 *  3.8483573    2.4395743 *  4.2784343    0.0000000  
  11 H       3.8483573    1.0812929 *  4.2784343    2.4395743 *  4.9295627  
  12 C       2.5418170 *  3.7776972    4.6732798    2.6776407 *  2.7713721 *
  13 C       3.7776972    2.5418170 *  2.6776407 *  4.6732798    4.6230797  
  14 H       3.4577062    4.0108270    5.5482488    2.3530566 *  3.8275146  
  15 H       4.0108270    3.4577062    2.3530566 *  5.5482488    4.6598431  
  16 C       3.0464175    4.9269685    5.0895241    3.9912274    2.7753161 *
  17 C       4.9269685    3.0464175    3.9912274    5.0895241    5.8459249  
  18 H       2.8191460 *  5.1897580    4.6218717    4.6687202    2.1851849 *
  19 H       5.1897580    2.8191460 *  4.6687202    4.6218717    6.1990063  
  20 H       4.1262358    5.8574752    6.1663210    4.6464823    3.8205026  
  21 H       5.8574752    4.1262358    4.6464823    6.1663210    6.7127593  

               11 H         12 C         13 C         14 H         15 H     

   1 X       2.4647813 *  2.9071528 *  2.9071528 *  3.4794907    3.4794907  
   2 C       2.1515804 *  4.3184422    1.4961793 *  4.8430276    2.1778925 *
   3 C       3.3919635    1.4961793 *  4.3184422    2.1778925 *  4.8430276  
   4 C       3.3784730    3.8049558    2.4942684 *  4.5927078    2.6299686 *
   5 C       2.1288970 *  2.4942684 *  3.8049558    2.6299686 *  4.5927078  
   6 C       3.8483573    2.5418170 *  3.7776972    3.4577062    4.0108270  
   7 C       1.0812929 *  3.7776972    2.5418170 *  4.0108270    3.4577062  
   8 H       4.2784343    4.6732798    2.6776407 *  5.5482488    2.3530566 *
   9 H       2.4395743 *  2.6776407 *  4.6732798    2.3530566 *  5.5482488  
  10 H       4.9295627    2.7713721 *  4.6230797    3.8275146    4.6598431  
  11 H       0.0000000    4.6230797    2.7713721 *  4.6598431    3.8275146  
  12 C       4.6230797    0.0000000    5.8143057    1.0844664 *  6.3198670  
  13 C       2.7713721 *  5.8143057    0.0000000    6.3198670    1.0844664 *
  14 H       4.6598431    1.0844664 *  6.3198670    0.0000000    6.9589815  
  15 H       3.8275146    6.3198670    1.0844664 *  6.9589815    0.0000000  
  16 C       5.8459249    1.3135874 *  6.7010811    2.0694665 *  7.0468393  
  17 C       2.7753161 *  6.7010811    1.3135874 *  7.0468393    2.0694665 *
  18 H       6.1990063    2.1074864 *  6.5965138    3.0554853    6.7771778  
  19 H       2.1851849 *  6.5965138    2.1074864 *  6.7771778    3.0554853  
  20 H       6.7127593    2.0905568 *  7.7485309    2.4012605 *  8.1212526  
  21 H       3.8205026    7.7485309    2.0905568 *  8.1212526    2.4012605 *

               16 C         17 C         18 H         19 H         20 H     

   1 X       3.8553161    3.8553161    3.9403311    3.9403311    4.8737605  
   2 C       5.2336163    2.5140815 *  5.2068123    2.8153054 *  6.2694386  
   3 C       2.5140815 *  5.2336163    2.8153054 *  5.2068123    3.4907942  
   4 C       4.4254909    3.7333554    4.1635763    4.1848583    5.5037275  
   5 C       3.7333554    4.4254909    4.1848583    4.1635763    4.5838909  
   6 C       3.0464175    4.9269685    2.8191460 *  5.1897580    4.1262358  
   7 C       4.9269685    3.0464175    5.1897580    2.8191460 *  5.8574752  
   8 H       5.0895241    3.9912274    4.6218717    4.6687202    6.1663210  
   9 H       3.9912274    5.0895241    4.6687202    4.6218717    4.6464823  
  10 H       2.7753161 *  5.8459249    2.1851849 *  6.1990063    3.8205026  
  11 H       5.8459249    2.7753161 *  6.1990063    2.1851849 *  6.7127593  
  12 C       1.3135874 *  6.7010811    2.1074864 *  6.5965138    2.0905568 *
  13 C       6.7010811    1.3135874 *  6.5965138    2.1074864 *  7.7485309  
  14 H       2.0694665 *  7.0468393    3.0554853    6.7771778    2.4012605 *
  15 H       7.0468393    2.0694665 *  6.7771778    3.0554853    8.1212526  
  16 C       0.0000000    7.7106321    1.0803627 *  7.7208910    1.0811375 *
  17 C       7.7106321    0.0000000    7.7208910    1.0803627 *  8.7215337  
  18 H       1.0803627 *  7.7208910    0.0000000    7.8806621    1.8292307 *
  19 H       7.7208910    1.0803627 *  7.8806621    0.0000000    8.6725669  
  20 H       1.0811375 *  8.7215337    1.8292307 *  8.6725669    0.0000000  
  21 H       8.7215337    1.0811375 *  8.6725669    1.8292307 *  9.7475211  

               21 H     

   1 X       4.8737605  
   2 C       3.4907942  
   3 C       6.2694386  
   4 C       4.5838909  
   5 C       5.5037275  
   6 C       5.8574752  
   7 C       4.1262358  
   8 H       4.6464823  
   9 H       6.1663210  
  10 H       6.7127593  
  11 H       3.8205026  
  12 C       7.7485309  
  13 C       2.0905568 *
  14 H       8.1212526  
  15 H       2.4012605 *
  16 C       8.7215337  
  17 C       1.0811375 *
  18 H       8.6725669  
  19 H       1.8292307 *
  20 H       9.7475211  
  21 H       0.0000000  

  * ... LESS THAN  3.000


     ATOMIC BASIS SET
     ----------------
 THE CONTRACTED PRIMITIVE FUNCTIONS HAVE BEEN UNNORMALIZED
 THE CONTRACTED BASIS FUNCTIONS ARE NOW NORMALIZED TO UNITY

  SHELL TYPE  PRIMITIVE        EXPONENT          CONTRACTION COEFFICIENT(S)

 X         

      1   S       1            10.0000000    1.000000000000

 C         

      2   S       2            71.6168373    0.154328967295
      2   S       3            13.0450963    0.535328142282
      2   S       4             3.5305122    0.444634542185

      3   L       5             2.9412494   -0.099967229187    0.155916274999
      3   L       6             0.6834831    0.399512826089    0.607683718598
      3   L       7             0.2222899    0.700115468880    0.391957393099

 C         

      4   S       8            71.6168373    0.154328967295
      4   S       9            13.0450963    0.535328142282
      4   S      10             3.5305122    0.444634542185

      5   L      11             2.9412494   -0.099967229187    0.155916274999
      5   L      12             0.6834831    0.399512826089    0.607683718598
      5   L      13             0.2222899    0.700115468880    0.391957393099

 C         

      6   S      14            71.6168373    0.154328967295
      6   S      15            13.0450963    0.535328142282
      6   S      16             3.5305122    0.444634542185

      7   L      17             2.9412494   -0.099967229187    0.155916274999
      7   L      18             0.6834831    0.399512826089    0.607683718598
      7   L      19             0.2222899    0.700115468880    0.391957393099

 C         

      8   S      20            71.6168373    0.154328967295
      8   S      21            13.0450963    0.535328142282
      8   S      22             3.5305122    0.444634542185

      9   L      23             2.9412494   -0.099967229187    0.155916274999
      9   L      24             0.6834831    0.399512826089    0.607683718598
      9   L      25             0.2222899    0.700115468880    0.391957393099

 C         

     10   S      26            71.6168373    0.154328967295
     10   S      27            13.0450963    0.535328142282
     10   S      28             3.5305122    0.444634542185

     11   L      29             2.9412494   -0.099967229187    0.155916274999
     11   L      30             0.6834831    0.399512826089    0.607683718598
     11   L      31             0.2222899    0.700115468880    0.391957393099

 C         

     12   S      32            71.6168373    0.154328967295
     12   S      33            13.0450963    0.535328142282
     12   S      34             3.5305122    0.444634542185

     13   L      35             2.9412494   -0.099967229187    0.155916274999
     13   L      36             0.6834831    0.399512826089    0.607683718598
     13   L      37             0.2222899    0.700115468880    0.391957393099

 H         

     14   S      38             3.4252509    0.154328967295
     14   S      39             0.6239137    0.535328142282
     14   S      40             0.1688554    0.444634542185

 H         

     15   S      41             3.4252509    0.154328967295
     15   S      42             0.6239137    0.535328142282
     15   S      43             0.1688554    0.444634542185

 H         

     16   S      44             3.4252509    0.154328967295
     16   S      45             0.6239137    0.535328142282
     16   S      46             0.1688554    0.444634542185

 H         

     17   S      47             3.4252509    0.154328967295
     17   S      48             0.6239137    0.535328142282
     17   S      49             0.1688554    0.444634542185

 C         

     18   S      50            71.6168373    0.154328967295
     18   S      51            13.0450963    0.535328142282
     18   S      52             3.5305122    0.444634542185

     19   L      53             2.9412494   -0.099967229187    0.155916274999
     19   L      54             0.6834831    0.399512826089    0.607683718598
     19   L      55             0.2222899    0.700115468880    0.391957393099

 C         

     20   S      56            71.6168373    0.154328967295
     20   S      57            13.0450963    0.535328142282
     20   S      58             3.5305122    0.444634542185

     21   L      59             2.9412494   -0.099967229187    0.155916274999
     21   L      60             0.6834831    0.399512826089    0.607683718598
     21   L      61             0.2222899    0.700115468880    0.391957393099

 H         

     22   S      62             3.4252509    0.154328967295
     22   S      63             0.6239137    0.535328142282
     22   S      64             0.1688554    0.444634542185

 H         

     23   S      65             3.4252509    0.154328967295
     23   S      66             0.6239137    0.535328142282
     23   S      67             0.1688554    0.444634542185

 C         

     24   S      68            71.6168373    0.154328967295
     24   S      69            13.0450963    0.535328142282
     24   S      70             3.5305122    0.444634542185

     25   L      71             2.9412494   -0.099967229187    0.155916274999
     25   L      72             0.6834831    0.399512826089    0.607683718598
     25   L      73             0.2222899    0.700115468880    0.391957393099

 C         

     26   S      74            71.6168373    0.154328967295
     26   S      75            13.0450963    0.535328142282
     26   S      76             3.5305122    0.444634542185

     27   L      77             2.9412494   -0.099967229187    0.155916274999
     27   L      78             0.6834831    0.399512826089    0.607683718598
     27   L      79             0.2222899    0.700115468880    0.391957393099

 H         

     28   S      80             3.4252509    0.154328967295
     28   S      81             0.6239137    0.535328142282
     28   S      82             0.1688554    0.444634542185

 H         

     29   S      83             3.4252509    0.154328967295
     29   S      84             0.6239137    0.535328142282
     29   S      85             0.1688554    0.444634542185

 H         

     30   S      86             3.4252509    0.154328967295
     30   S      87             0.6239137    0.535328142282
     30   S      88             0.1688554    0.444634542185

 H         

     31   S      89             3.4252509    0.154328967295
     31   S      90             0.6239137    0.535328142282
     31   S      91             0.1688554    0.444634542185

 TOTAL NUMBER OF BASIS SET SHELLS             =   31
 NUMBER OF CARTESIAN GAUSSIAN BASIS FUNCTIONS =   61
 NUMBER OF ELECTRONS                          =   69
 CHARGE OF MOLECULE                           =    1
 SPIN MULTIPLICITY                            =    2
 NUMBER OF OCCUPIED ORBITALS (ALPHA)          =   35
 NUMBER OF OCCUPIED ORBITALS (BETA )          =   34
 TOTAL NUMBER OF ATOMS                        =   21
 THE NUCLEAR REPULSION ENERGY IS      452.1260015068

     $CONTRL OPTIONS
     ---------------
 SCFTYP=UHF          RUNTYP=ENERGY       EXETYP=RUN     
 MPLEVL=       0     CITYP =NONE         CCTYP =NONE         VBTYP =NONE    
 DFTTYP=NONE         TDDFT =NONE    
 MULT  =       2     ICHARG=       1     NZVAR =       0     COORD =UNIQUE  
 PP    =NONE         RELWFN=NONE         LOCAL =NONE         NUMGRD=       F
 ISPHER=      -1     NOSYM =       0     MAXIT =      30     UNITS =ANGS    
 PLTORB=       F     MOLPLT=       F     AIMPAC=       F     FRIEND=        
 NPRINT=       3     IREST =       0     GEOM  =INPUT   
 NORMF =       0     NORMP =       0     ITOL  =      20     ICUT  =       9
 INTTYP=BEST         GRDTYP=BEST         QMTTOL= 1.0E-06

     $SYSTEM OPTIONS
     ---------------
  REPLICATED MEMORY=     1000000 WORDS (ON EVERY NODE).
 DISTRIBUTED MEMDDI=           0 MILLION WORDS IN AGGREGATE,
 MEMDDI DISTRIBUTED OVER   1 PROCESSORS IS           0 WORDS/PROCESSOR.
 TOTAL MEMORY REQUESTED ON EACH PROCESSOR=     1000000 WORDS.
 TIMLIM=      525600.00 MINUTES, OR     365.0 DAYS.
 PARALL= F  BALTYP=  DLB     KDIAG=    0  COREFL= F
 MXSEQ2=     300 MXSEQ3=     150  mem10=         0

          ----------------
          PROPERTIES INPUT
          ----------------

     MOMENTS            FIELD           POTENTIAL          DENSITY
 IEMOM =       1   IEFLD =       0   IEPOT =       0   IEDEN =       0
 WHERE =COMASS     WHERE =NUCLEI     WHERE =NUCLEI     WHERE =NUCLEI  
 OUTPUT=BOTH       OUTPUT=BOTH       OUTPUT=BOTH       OUTPUT=BOTH    
 IEMINT=       0   IEFINT=       0                     IEDINT=       0
                                                       MORB  =       0
          EXTRAPOLATION IN EFFECT
          SOSCF IN EFFECT
          DIIS or SOSCF will be reset if energy rises
 ORBITAL PRINTING OPTION: NPREO=     1    61     2     1

     -------------------------------
     INTEGRAL TRANSFORMATION OPTIONS
     -------------------------------
     NWORD  =            0
     CUTOFF = 1.0E-09     MPTRAN =       0
     DIRTRF =       F     AOINTS =DUP     

          ----------------------
          INTEGRAL INPUT OPTIONS
          ----------------------
 NOPK  =       1 NORDER=       0 SCHWRZ=       T

     ------------------------------------------
     THE POINT GROUP IS CN , NAXIS= 1, ORDER= 1
     ------------------------------------------

     DIMENSIONS OF THE SYMMETRY SUBSPACES ARE
 A   =   61

 ..... DONE SETTING UP THE RUN .....
 STEP CPU TIME =     0.29 TOTAL CPU TIME =          0.3 (      0.0 MIN)
 TOTAL WALL CLOCK TIME=          0.0 SECONDS, CPU UTILIZATION IS   725.00%

          ********************
          1 ELECTRON INTEGRALS
          ********************
 OVERLAP MATRIX

                      1          2          3          4          5

    1   B 1  S    1.000000
    2  C  2  S    0.000000   1.000000
    3  C  2  S    0.024924   0.248362   1.000000
    4  C  2  X    0.040894   0.000000   0.000000   1.000000
    5  C  2  Y   -0.006494  -0.000000  -0.000000  -0.000000   1.000000
    6  C  2  Z    0.000000   0.000000   0.000000   0.000000   0.000000
    7  C  3  S    0.000000   0.000000   0.000367   0.000973  -0.000155
    8  C  3  S    0.024924   0.000367   0.024378   0.038956  -0.006186
    9  C  3  X   -0.040894  -0.000973  -0.038956  -0.057665   0.010643
   10  C  3  Y    0.006494   0.000155   0.006186   0.010643   0.007662
   11  C  3  Z    0.000000   0.000000   0.000000   0.000000   0.000000
   12  C  4  S    0.000000   0.000001   0.037871   0.040569   0.047920
   13  C  4  S    0.027053   0.037871   0.366643   0.251565   0.297149
   14  C  4  X    0.016047  -0.040569  -0.251565  -0.011976  -0.267598
   15  C  4  Y   -0.041974  -0.047920  -0.297149  -0.267598  -0.101516
   16  C  4  Z    0.000000   0.000000   0.000000   0.000000   0.000000
   17  C  5  S    0.000000   0.000000   0.001852   0.003328  -0.002661
   18  C  5  S    0.027053   0.001852   0.061451   0.070578  -0.056441
   19  C  5  X   -0.016047  -0.003328  -0.070578  -0.063767   0.071582
   20  C  5  Y    0.041974   0.002661   0.056441   0.071582  -0.031502
   21  C  5  Z    0.000000   0.000000   0.000000   0.000000   0.000000
   22  C  6  S    0.000000   0.000000   0.001804   0.003896   0.001464
   23  C  6  S    0.026668   0.001804   0.060520   0.083466   0.031356
   24  C  6  X   -0.027959  -0.003896  -0.083466  -0.101734  -0.047727
   25  C  6  Y   -0.034355  -0.001464  -0.031356  -0.047727   0.007380
   26  C  6  Z    0.000000   0.000000   0.000000   0.000000   0.000000
   27  C  7  S    0.000000   0.000001   0.037936   0.023468  -0.058351
   28  C  7  S    0.026668   0.037936   0.367002   0.145373  -0.361455
   29  C  7  X    0.027959  -0.023468  -0.145373   0.139254   0.187959
   30  C  7  Y    0.034355   0.058351   0.361455   0.187959  -0.252491
   31  C  7  Z    0.000000   0.000000   0.000000   0.000000   0.000000
   32  H  8  S    0.001587   0.005586   0.099400   0.031159   0.124024
   33  H  9  S    0.001587   0.000101   0.006823   0.007529  -0.008382
   34  H 10  S    0.001566   0.000100   0.006794   0.009704   0.005638
   35  H 11  S    0.001566   0.005480   0.098036  -0.008512  -0.126063
   36  C 12  S    0.000000   0.000000   0.000000   0.000000  -0.000000
   37  C 12  S    0.000156   0.000000   0.000305   0.000661  -0.000113
   38  C 12  X   -0.000435  -0.000000  -0.000661  -0.001350   0.000249
   39  C 12  Y    0.000077   0.000000   0.000113   0.000249   0.000056
   40  C 12  Z    0.000000   0.000000   0.000000   0.000000   0.000000
   41  C 13  S    0.000000   0.000000   0.029672  -0.048556   0.009539
   42  C 13  S    0.000156   0.029672   0.318374  -0.345991   0.067968
   43  C 13  X    0.000435   0.048556   0.345991  -0.301574   0.094300
   44  C 13  Y   -0.000077  -0.009539  -0.067968   0.094300   0.159936
   45  C 13  Z    0.000000   0.000000   0.000000   0.000000   0.000000
   46  H 14  S    0.000044   0.000000   0.000101   0.000200  -0.000079
   47  H 15  S    0.000044   0.005125   0.093428  -0.095301   0.074816
   48  C 16  S    0.000000   0.000000   0.000000   0.000000   0.000000
   49  C 16  S    0.000001   0.000000   0.000009   0.000024   0.000001
   50  C 16  X   -0.000004  -0.000000  -0.000024  -0.000061  -0.000002
   51  C 16  Y   -0.000000  -0.000000  -0.000001  -0.000002   0.000003
   52  C 16  Z    0.000000   0.000000   0.000000   0.000000   0.000000
   53  C 17  S    0.000000   0.000000   0.001278  -0.002974  -0.000720
   54  C 17  S    0.000001   0.001278   0.049609  -0.072660  -0.017586
   55  C 17  X    0.000004   0.002974   0.072660  -0.096376  -0.028242
   56  C 17  Y    0.000000   0.000720   0.017586  -0.028242   0.013473
   57  C 17  Z    0.000000   0.000000   0.000000   0.000000   0.000000
   58  H 18  S    0.000006   0.000000   0.000029   0.000063   0.000015
   59  H 19  S    0.000006   0.000801   0.025998  -0.031257  -0.022788
   60  H 20  S    0.000000   0.000000   0.000000   0.000001  -0.000000
   61  H 21  S    0.000000   0.000067   0.005303  -0.008881  -0.000719

                      6          7          8          9         10

    6  C  2  Z    1.000000
    7  C  3  S    0.000000   1.000000
    8  C  3  S    0.000000   0.248362   1.000000
    9  C  3  X    0.000000  -0.000000  -0.000000   1.000000
   10  C  3  Y    0.000000   0.000000   0.000000  -0.000000   1.000000
   11  C  3  Z    0.009352   0.000000   0.000000   0.000000   0.000000
   12  C  4  S    0.000000   0.000000   0.001852  -0.003328   0.002661
   13  C  4  S    0.000000   0.001852   0.061451  -0.070578   0.056441
   14  C  4  X    0.000000   0.003328   0.070578  -0.063767   0.071582
   15  C  4  Y    0.000000  -0.002661  -0.056441   0.071582  -0.031502
   16  C  4  Z    0.214571   0.000000   0.000000   0.000000   0.000000
   17  C  5  S    0.000000   0.000001   0.037871  -0.040569  -0.047920
   18  C  5  S    0.000000   0.037871   0.366643  -0.251565  -0.297149
   19  C  5  X    0.000000   0.040569   0.251565  -0.011976  -0.267598
   20  C  5  Y    0.000000   0.047920   0.297149  -0.267598  -0.101516
   21  C  5  Z    0.025743   0.000000   0.000000   0.000000   0.000000
   22  C  6  S    0.000000   0.000001   0.037936  -0.023468   0.058351
   23  C  6  S    0.000000   0.037936   0.367002  -0.145373   0.361455
   24  C  6  X    0.000000   0.023468   0.145373   0.139254   0.187959
   25  C  6  Y    0.000000  -0.058351  -0.361455   0.187959  -0.252491
   26  C  6  Z    0.025310   0.000000   0.000000   0.000000   0.000000
   27  C  7  S    0.000000   0.000000   0.001804  -0.003896  -0.001464
   28  C  7  S    0.000000   0.001804   0.060520  -0.083466  -0.031356
   29  C  7  X    0.000000   0.003896   0.083466  -0.101734  -0.047727
   30  C  7  Y    0.000000   0.001464   0.031356  -0.047727   0.007380
   31  C  7  Z    0.214849   0.000000   0.000000   0.000000   0.000000
   32  H  8  S    0.000000   0.000101   0.006823  -0.007529   0.008382
   33  H  9  S    0.000000   0.005586   0.099400  -0.031159  -0.124024
   34  H 10  S    0.000000   0.005480   0.098036   0.008512   0.126063
   35  H 11  S    0.000000   0.000100   0.006794  -0.009704  -0.005638
   36  C 12  S    0.000000   0.000000   0.029672   0.048556  -0.009539
   37  C 12  S    0.000000   0.029672   0.318374   0.345991  -0.067968
   38  C 12  X    0.000000  -0.048556  -0.345991  -0.301574   0.094300
   39  C 12  Y    0.000000   0.009539   0.067968   0.094300   0.159936
   40  C 12  Z    0.000098   0.000000   0.000000   0.000000   0.000000
   41  C 13  S    0.000000   0.000000   0.000000  -0.000000   0.000000
   42  C 13  S    0.000000   0.000000   0.000305  -0.000661   0.000113
   43  C 13  X    0.000000   0.000000   0.000661  -0.001350   0.000249
   44  C 13  Y    0.000000  -0.000000  -0.000113   0.000249   0.000056
   45  C 13  Z    0.178460   0.000000   0.000000   0.000000   0.000000
   46  H 14  S    0.000000   0.005125   0.093428   0.095301  -0.074816
   47  H 15  S    0.000000   0.000000   0.000101  -0.000200   0.000079
   48  C 16  S    0.000000   0.000000   0.001278   0.002974   0.000720
   49  C 16  S    0.000000   0.001278   0.049609   0.072660   0.017586
   50  C 16  X    0.000000  -0.002974  -0.072660  -0.096376  -0.028242
   51  C 16  Y    0.000000  -0.000720  -0.017586  -0.028242   0.013473
   52  C 16  Z    0.000003   0.000000   0.000000   0.000000   0.000000
   53  C 17  S    0.000000   0.000000   0.000000  -0.000000  -0.000000
   54  C 17  S    0.000000   0.000000   0.000009  -0.000024  -0.000001
   55  C 17  X    0.000000   0.000000   0.000024  -0.000061  -0.000002
   56  C 17  Y    0.000000   0.000000   0.000001  -0.000002   0.000003
   57  C 17  Z    0.020309   0.000000   0.000000   0.000000   0.000000
   58  H 18  S    0.000000   0.000801   0.025998   0.031257   0.022788
   59  H 19  S    0.000000   0.000000   0.000029  -0.000063  -0.000015
   60  H 20  S    0.000000   0.000067   0.005303   0.008881   0.000719
   61  H 21  S    0.000000   0.000000   0.000000  -0.000001   0.000000

                     11         12         13         14         15

   11  C  3  Z    1.000000
   12  C  4  S    0.000000   1.000000
   13  C  4  S    0.000000   0.248362   1.000000
   14  C  4  X    0.000000   0.000000   0.000000   1.000000
   15  C  4  Y    0.000000  -0.000000  -0.000000  -0.000000   1.000000
   16  C  4  Z    0.025743   0.000000   0.000000   0.000000   0.000000
   17  C  5  S    0.000000   0.000000   0.000488   0.000457  -0.001195
   18  C  5  S    0.000000   0.000488   0.028639   0.016301  -0.042639
   19  C  5  X    0.000000  -0.000457  -0.016301   0.001109   0.026224
   20  C  5  Y    0.000000   0.001195   0.042639   0.026224  -0.057459
   21  C  5  Z    0.214571   0.000000   0.000000   0.000000   0.000000
   22  C  6  S    0.000000   0.000001   0.039168   0.064147  -0.010040
   23  C  6  S    0.000000   0.039168   0.373748   0.389666  -0.060989
   24  C  6  X    0.000000  -0.064147  -0.389666  -0.315302   0.083799
   25  C  6  Y    0.000000   0.010040   0.060989   0.083799   0.206984
   26  C  6  Z    0.214849   0.000000   0.000000   0.000000   0.000000
   27  C  7  S    0.000000   0.000000   0.002023  -0.000735  -0.004550
   28  C  7  S    0.000000   0.002023   0.064684  -0.015083  -0.093336
   29  C  7  X    0.000000   0.000735   0.015083   0.023365  -0.024078
   30  C  7  Y    0.000000   0.004550   0.093336  -0.024078  -0.121744
   31  C  7  Z    0.025310   0.000000   0.000000   0.000000   0.000000
   32  H  8  S    0.000000   0.063354   0.494994  -0.164724   0.439962
   33  H  9  S    0.000000   0.000015   0.002127   0.001348  -0.003546
   34  H 10  S    0.000000   0.005802   0.102160   0.124931   0.039276
   35  H 11  S    0.000000   0.000105   0.007025  -0.003588  -0.011008
   36  C 12  S    0.000000   0.000000   0.000003   0.000009  -0.000005
   37  C 12  S    0.000000   0.000003   0.001641   0.002866  -0.001535
   38  C 12  X    0.000000  -0.000009  -0.002866  -0.004600   0.002757
   39  C 12  Y    0.000000   0.000005   0.001535   0.002757  -0.000930
   40  C 12  Z    0.178460   0.000000   0.000000   0.000000   0.000000
   41  C 13  S    0.000000   0.000000   0.001378  -0.003110  -0.001020
   42  C 13  S    0.000000   0.001378   0.051804  -0.073826  -0.024204
   43  C 13  X    0.000000   0.003110   0.073826  -0.094207  -0.037870
   44  C 13  Y    0.000000   0.001020   0.024204  -0.037870   0.008887
   45  C 13  Z    0.000098   0.000000   0.000000   0.000000   0.000000
   46  H 14  S    0.000000   0.000000   0.000229   0.000365  -0.000289
   47  H 15  S    0.000000   0.001441   0.038557  -0.054961   0.005872
   48  C 16  S    0.000000   0.000000   0.000000   0.000000  -0.000000
   49  C 16  S    0.000000   0.000000   0.000210   0.000460  -0.000097
   50  C 16  X    0.000000  -0.000000  -0.000460  -0.000954   0.000216
   51  C 16  Y    0.000000   0.000000   0.000097   0.000216   0.000021
   52  C 16  Z    0.020309   0.000000   0.000000   0.000000   0.000000
   53  C 17  S    0.000000   0.000000   0.000004  -0.000013  -0.000006
   54  C 17  S    0.000000   0.000004   0.002044  -0.003576  -0.001771
   55  C 17  X    0.000000   0.000013   0.003576  -0.005768  -0.003197
   56  C 17  Y    0.000000   0.000006   0.001771  -0.003197  -0.000897
   57  C 17  Z    0.000003   0.000000   0.000000   0.000000   0.000000
   58  H 18  S    0.000000   0.000003   0.000848   0.001599   0.000058
   59  H 19  S    0.000000   0.000003   0.000797  -0.001146  -0.000982
   60  H 20  S    0.000000   0.000000   0.000010   0.000022  -0.000005
   61  H 21  S    0.000000   0.000000   0.000235  -0.000457  -0.000141

                     16         17         18         19         20

   16  C  4  Z    1.000000
   17  C  5  S    0.000000   1.000000
   18  C  5  S    0.000000   0.248362   1.000000
   19  C  5  X    0.000000  -0.000000  -0.000000   1.000000
   20  C  5  Y    0.000000   0.000000   0.000000  -0.000000   1.000000
   21  C  5  Z    0.011135   0.000000   0.000000   0.000000   0.000000
   22  C  6  S    0.000000   0.000000   0.002023   0.000735   0.004550
   23  C  6  S    0.000000   0.002023   0.064684   0.015083   0.093336
   24  C  6  X    0.000000  -0.000735  -0.015083   0.023365  -0.024078
   25  C  6  Y    0.000000  -0.004550  -0.093336  -0.024078  -0.121744
   26  C  6  Z    0.220100   0.000000   0.000000   0.000000   0.000000
   27  C  7  S    0.000000   0.000001   0.039168  -0.064147   0.010040
   28  C  7  S    0.000000   0.039168   0.373748  -0.389666   0.060989
   29  C  7  X    0.000000   0.064147   0.389666  -0.315302   0.083799
   30  C  7  Y    0.000000  -0.010040  -0.060989   0.083799   0.206984
   31  C  7  Z    0.027256   0.000000   0.000000   0.000000   0.000000
   32  H  8  S    0.000000   0.000015   0.002127  -0.001348   0.003546
   33  H  9  S    0.000000   0.063354   0.494994   0.164724  -0.439962
   34  H 10  S    0.000000   0.000105   0.007025   0.003588   0.011008
   35  H 11  S    0.000000   0.005802   0.102160  -0.124931  -0.039276
   36  C 12  S    0.000000   0.000000   0.001378   0.003110   0.001020
   37  C 12  S    0.000000   0.001378   0.051804   0.073826   0.024204
   38  C 12  X    0.000000  -0.003110  -0.073826  -0.094207  -0.037870
   39  C 12  Y    0.000000  -0.001020  -0.024204  -0.037870   0.008887
   40  C 12  Z    0.000547   0.000000   0.000000   0.000000   0.000000
   41  C 13  S    0.000000   0.000000   0.000003  -0.000009   0.000005
   42  C 13  S    0.000000   0.000003   0.001641  -0.002866   0.001535
   43  C 13  X    0.000000   0.000009   0.002866  -0.004600   0.002757
   44  C 13  Y    0.000000  -0.000005  -0.001535   0.002757  -0.000930
   45  C 13  Z    0.021303   0.000000   0.000000   0.000000   0.000000
   46  H 14  S    0.000000   0.001441   0.038557   0.054961  -0.005872
   47  H 15  S    0.000000   0.000000   0.000229  -0.000365   0.000289
   48  C 16  S    0.000000   0.000000   0.000004   0.000013   0.000006
   49  C 16  S    0.000000   0.000004   0.002044   0.003576   0.001771
   50  C 16  X    0.000000  -0.000013  -0.003576  -0.005768  -0.003197
   51  C 16  Y    0.000000  -0.000006  -0.001771  -0.003197  -0.000897
   52  C 16  Z    0.000067   0.000000   0.000000   0.000000   0.000000
   53  C 17  S    0.000000   0.000000   0.000000  -0.000000   0.000000
   54  C 17  S    0.000000   0.000000   0.000210  -0.000460   0.000097
   55  C 17  X    0.000000   0.000000   0.000460  -0.000954   0.000216
   56  C 17  Y    0.000000  -0.000000  -0.000097   0.000216   0.000021
   57  C 17  Z    0.000686   0.000000   0.000000   0.000000   0.000000
   58  H 18  S    0.000000   0.000003   0.000797   0.001146   0.000982
   59  H 19  S    0.000000   0.000003   0.000848  -0.001599  -0.000058
   60  H 20  S    0.000000   0.000000   0.000235   0.000457   0.000141
   61  H 21  S    0.000000   0.000000   0.000010  -0.000022   0.000005

                     21         22         23         24         25

   21  C  5  Z    1.000000
   22  C  6  S    0.000000   1.000000
   23  C  6  S    0.000000   0.248362   1.000000
   24  C  6  X    0.000000  -0.000000  -0.000000   1.000000
   25  C  6  Y    0.000000  -0.000000   0.000000   0.000000   1.000000
   26  C  6  Z    0.027256   0.000000   0.000000   0.000000   0.000000
   27  C  7  S    0.000000   0.000000   0.000465  -0.000772  -0.000949
   28  C  7  S    0.000000   0.000465   0.027847  -0.028091  -0.034518
   29  C  7  X    0.000000   0.000772   0.028091  -0.019798  -0.037599
   30  C  7  Y    0.000000   0.000949   0.034518  -0.037599  -0.035400
   31  C  7  Z    0.220100   0.000000   0.000000   0.000000   0.000000
   32  H  8  S    0.000000   0.005736   0.101313  -0.106336   0.074810
   33  H  9  S    0.000000   0.000107   0.007105  -0.000006  -0.011700
   34  H 10  S    0.000000   0.063555   0.495775   0.289457   0.370603
   35  H 11  S    0.000000   0.000015   0.002067  -0.002316  -0.002878
   36  C 12  S    0.000000   0.000000   0.001150   0.002176  -0.001732
   37  C 12  S    0.000000   0.001150   0.046669   0.055395  -0.044091
   38  C 12  X    0.000000  -0.002176  -0.055395  -0.052972   0.057275
   39  C 12  Y    0.000000   0.001732   0.044091   0.057275  -0.026601
   40  C 12  Z    0.021303   0.000000   0.000000   0.000000   0.000000
   41  C 13  S    0.000000   0.000000   0.000003  -0.000011  -0.000002
   42  C 13  S    0.000000   0.000003   0.001785  -0.003477  -0.000524
   43  C 13  X    0.000000   0.000011   0.003477  -0.006378  -0.001052
   44  C 13  Y    0.000000   0.000002   0.000524  -0.001052   0.000438
   45  C 13  Z    0.000547   0.000000   0.000000   0.000000   0.000000
   46  H 14  S    0.000000   0.000077   0.005765   0.006222  -0.007352
   47  H 15  S    0.000000   0.000007   0.001316  -0.002399   0.000297
   48  C 16  S    0.000000   0.000000   0.000136   0.000383  -0.000091
   49  C 16  S    0.000000   0.000136   0.013988   0.023105  -0.005481
   50  C 16  X    0.000000  -0.000383  -0.023105  -0.035464   0.009634
   51  C 16  Y    0.000000   0.000091   0.005481   0.009634   0.002866
   52  C 16  Z    0.000686   0.000000   0.000000   0.000000   0.000000
   53  C 17  S    0.000000   0.000000   0.000000  -0.000000  -0.000000
   54  C 17  S    0.000000   0.000000   0.000032  -0.000076  -0.000023
   55  C 17  X    0.000000   0.000000   0.000076  -0.000171  -0.000056
   56  C 17  Y    0.000000   0.000000   0.000023  -0.000056  -0.000007
   57  C 17  Z    0.000067   0.000000   0.000000   0.000000   0.000000
   58  H 18  S    0.000000   0.000791   0.025782   0.038067   0.004957
   59  H 19  S    0.000000   0.000000   0.000030  -0.000060  -0.000033
   60  H 20  S    0.000000   0.000004   0.000945   0.001718  -0.000435
   61  H 21  S    0.000000   0.000000   0.000002  -0.000006  -0.000001

                     26         27         28         29         30

   26  C  6  Z    1.000000
   27  C  7  S    0.000000   1.000000
   28  C  7  S    0.000000   0.248362   1.000000
   29  C  7  X    0.000000   0.000000   0.000000   1.000000
   30  C  7  Y    0.000000   0.000000   0.000000   0.000000   1.000000
   31  C  7  Z    0.010801   0.000000   0.000000   0.000000   0.000000
   32  H  8  S    0.000000   0.000107   0.007105   0.000006   0.011700
   33  H  9  S    0.000000   0.005736   0.101313   0.106336  -0.074810
   34  H 10  S    0.000000   0.000015   0.002067   0.002316   0.002878
   35  H 11  S    0.000000   0.063555   0.495775  -0.289457  -0.370603
   36  C 12  S    0.000000   0.000000   0.000003   0.000011   0.000002
   37  C 12  S    0.000000   0.000003   0.001785   0.003477   0.000524
   38  C 12  X    0.000000  -0.000011  -0.003477  -0.006378  -0.001052
   39  C 12  Y    0.000000  -0.000002  -0.000524  -0.001052   0.000438
   40  C 12  Z    0.018986   0.000000   0.000000   0.000000   0.000000
   41  C 13  S    0.000000   0.000000   0.001150  -0.002176   0.001732
   42  C 13  S    0.000000   0.001150   0.046669  -0.055395   0.044091
   43  C 13  X    0.000000   0.002176   0.055395  -0.052972   0.057275
   44  C 13  Y    0.000000  -0.001732  -0.044091   0.057275  -0.026601
   45  C 13  Z    0.000597   0.000000   0.000000   0.000000   0.000000
   46  H 14  S    0.000000   0.000007   0.001316   0.002399  -0.000297
   47  H 15  S    0.000000   0.000077   0.005765  -0.006222   0.007352
   48  C 16  S    0.000000   0.000000   0.000000   0.000000   0.000000
   49  C 16  S    0.000000   0.000000   0.000032   0.000076   0.000023
   50  C 16  X    0.000000  -0.000000  -0.000076  -0.000171  -0.000056
   51  C 16  Y    0.000000  -0.000000  -0.000023  -0.000056  -0.000007
   52  C 16  Z    0.005151   0.000000   0.000000   0.000000   0.000000
   53  C 17  S    0.000000   0.000000   0.000136  -0.000383   0.000091
   54  C 17  S    0.000000   0.000136   0.013988  -0.023105   0.005481
   55  C 17  X    0.000000   0.000383   0.023105  -0.035464   0.009634
   56  C 17  Y    0.000000  -0.000091  -0.005481   0.009634   0.002866
   57  C 17  Z    0.000010   0.000000   0.000000   0.000000   0.000000
   58  H 18  S    0.000000   0.000000   0.000030   0.000060   0.000033
   59  H 19  S    0.000000   0.000791   0.025782  -0.038067  -0.004957
   60  H 20  S    0.000000   0.000000   0.000002   0.000006   0.000001
   61  H 21  S    0.000000   0.000004   0.000945  -0.001718   0.000435

                     31         32         33         34         35

   31  C  7  Z    1.000000
   32  H  8  S    0.000000   1.000000
   33  H  9  S    0.000000   0.000137   1.000000
   34  H 10  S    0.000000   0.055414   0.000853   1.000000
   35  H 11  S    0.000000   0.000853   0.055414   0.000134   1.000000
   36  C 12  S    0.000000   0.000000   0.001244   0.000924   0.000000
   37  C 12  S    0.000000   0.000177   0.034900   0.028591   0.000208
   38  C 12  X    0.000000  -0.000291  -0.037558  -0.020136  -0.000405
   39  C 12  Y    0.000000   0.000219  -0.033793   0.037057  -0.000130
   40  C 12  Z    0.000597   0.000000   0.000000   0.000000   0.000000
   41  C 13  S    0.000000   0.001244   0.000000   0.000000   0.000924
   42  C 13  S    0.000000   0.034900   0.000177   0.000208   0.028591
   43  C 13  X    0.000000   0.037558   0.000291   0.000405   0.020136
   44  C 13  Y    0.000000   0.033793  -0.000219   0.000130  -0.037057
   45  C 13  Z    0.018986   0.000000   0.000000   0.000000   0.000000
   46  H 14  S    0.000000   0.000019   0.064899   0.002732   0.000296
   47  H 15  S    0.000000   0.064899   0.000019   0.000296   0.002732
   48  C 16  S    0.000000   0.000000   0.000008   0.000912   0.000000
   49  C 16  S    0.000000   0.000043   0.001390   0.028349   0.000003
   50  C 16  X    0.000000  -0.000089  -0.001892  -0.034661  -0.000006
   51  C 16  Y    0.000000   0.000037  -0.001704   0.023453  -0.000003
   52  C 16  Z    0.000010   0.000000   0.000000   0.000000   0.000000
   53  C 17  S    0.000000   0.000008   0.000000   0.000000   0.000912
   54  C 17  S    0.000000   0.001390   0.000043   0.000003   0.028349
   55  C 17  X    0.000000   0.001892   0.000089   0.000006   0.034661
   56  C 17  Y    0.000000   0.001704  -0.000037   0.000003  -0.023453
   57  C 17  Z    0.005151   0.000000   0.000000   0.000000   0.000000
   58  H 18  S    0.000000   0.000330   0.000288   0.087289   0.000002
   59  H 19  S    0.000000   0.000288   0.000330   0.000002   0.087289
   60  H 20  S    0.000000   0.000002   0.000307   0.002780   0.000000
   61  H 21  S    0.000000   0.000307   0.000002   0.000000   0.002780

                     36         37         38         39         40

   36  C 12  S    1.000000
   37  C 12  S    0.248362   1.000000
   38  C 12  X    0.000000  -0.000000   1.000000
   39  C 12  Y    0.000000   0.000000   0.000000   1.000000
   40  C 12  Z    0.000000   0.000000   0.000000   0.000000   1.000000
   41  C 13  S    0.000000   0.000000  -0.000000   0.000000   0.000000
   42  C 13  S    0.000000   0.000001  -0.000002   0.000000   0.000000
   43  C 13  X    0.000000   0.000002  -0.000006   0.000001   0.000000
   44  C 13  Y   -0.000000  -0.000000   0.000001   0.000000   0.000000
   45  C 13  Z    0.000000   0.000000   0.000000   0.000000   0.000000
   46  H 14  S    0.063085   0.493943   0.105972  -0.457043   0.000000
   47  H 15  S    0.000000   0.000000  -0.000001   0.000000   0.000000
   48  C 16  S    0.000004   0.046036   0.056746   0.051186   0.000000
   49  C 16  S    0.046036   0.409315   0.310749   0.280298   0.000000
   50  C 16  X   -0.056746  -0.310749  -0.068693  -0.286224   0.000000
   51  C 16  Y   -0.051186  -0.280298  -0.286224  -0.009550   0.000000
   52  C 16  Z    0.000000   0.000000   0.000000   0.000000   0.248626
   53  C 17  S    0.000000   0.000000  -0.000000   0.000000   0.000000
   54  C 17  S    0.000000   0.000000  -0.000000   0.000000   0.000000
   55  C 17  X    0.000000   0.000000  -0.000000   0.000000   0.000000
   56  C 17  Y   -0.000000  -0.000000   0.000000   0.000000   0.000000
   57  C 17  Z    0.000000   0.000000   0.000000   0.000000   0.000000
   58  H 18  S    0.006121   0.106184   0.051844   0.125111   0.000000
   59  H 19  S    0.000000   0.000000  -0.000000  -0.000000   0.000000
   60  H 20  S    0.006384   0.109459   0.133768   0.037927   0.000000
   61  H 21  S    0.000000   0.000000  -0.000000   0.000000   0.000000

                     41         42         43         44         45

   41  C 13  S    1.000000
   42  C 13  S    0.248362   1.000000
   43  C 13  X   -0.000000   0.000000   1.000000
   44  C 13  Y   -0.000000  -0.000000   0.000000   1.000000
   45  C 13  Z    0.000000   0.000000   0.000000   0.000000   1.000000
   46  H 14  S    0.000000   0.000000   0.000001  -0.000000   0.000000
   47  H 15  S    0.063085   0.493943  -0.105972   0.457043   0.000000
   48  C 16  S    0.000000   0.000000   0.000000  -0.000000   0.000000
   49  C 16  S    0.000000   0.000000   0.000000  -0.000000   0.000000
   50  C 16  X   -0.000000  -0.000000  -0.000000   0.000000   0.000000
   51  C 16  Y    0.000000   0.000000   0.000000   0.000000   0.000000
   52  C 16  Z    0.000000   0.000000   0.000000   0.000000   0.000000
   53  C 17  S    0.000004   0.046036  -0.056746  -0.051186   0.000000
   54  C 17  S    0.046036   0.409315  -0.310749  -0.280298   0.000000
   55  C 17  X    0.056746   0.310749  -0.068693  -0.286224   0.000000
   56  C 17  Y    0.051186   0.280298  -0.286224  -0.009550   0.000000
   57  C 17  Z    0.000000   0.000000   0.000000   0.000000   0.248626
   58  H 18  S    0.000000   0.000000   0.000000   0.000000   0.000000
   59  H 19  S    0.006121   0.106184  -0.051844  -0.125111   0.000000
   60  H 20  S    0.000000   0.000000   0.000000  -0.000000   0.000000
   61  H 21  S    0.006384   0.109459  -0.133768  -0.037927   0.000000

                     46         47         48         49         50

   46  H 14  S    1.000000
   47  H 15  S    0.000000   1.000000
   48  C 16  S    0.006724   0.000000   1.000000
   49  C 16  S    0.113655   0.000000   0.248362   1.000000
   50  C 16  X   -0.050702  -0.000000  -0.000000   0.000000   1.000000
   51  C 16  Y   -0.134398   0.000000  -0.000000   0.000000   0.000000
   52  C 16  Z    0.000000   0.000000   0.000000   0.000000   0.000000
   53  C 17  S    0.000000   0.006724   0.000000   0.000000  -0.000000
   54  C 17  S    0.000000   0.113655   0.000000   0.000000  -0.000000
   55  C 17  X    0.000000   0.050702   0.000000   0.000000  -0.000000
   56  C 17  Y   -0.000000   0.134398   0.000000   0.000000  -0.000000
   57  C 17  Z    0.000000   0.000000   0.000000   0.000000   0.000000
   58  H 18  S    0.016232   0.000000   0.063693   0.496313  -0.073446
   59  H 19  S    0.000000   0.016232   0.000000   0.000000  -0.000000
   60  H 20  S    0.059457   0.000000   0.063578   0.495865   0.450608
   61  H 21  S    0.000000   0.059457   0.000000   0.000000  -0.000000

                     51         52         53         54         55

   51  C 16  Y    1.000000
   52  C 16  Z    0.000000   1.000000
   53  C 17  S   -0.000000   0.000000   1.000000
   54  C 17  S   -0.000000   0.000000   0.248362   1.000000
   55  C 17  X   -0.000000   0.000000   0.000000  -0.000000   1.000000
   56  C 17  Y    0.000000   0.000000   0.000000   0.000000   0.000000
   57  C 17  Z    0.000000   0.000000   0.000000   0.000000   0.000000
   58  H 18  S    0.464795   0.000000   0.000000   0.000000   0.000000
   59  H 19  S   -0.000000   0.000000   0.063693   0.496313   0.073446
   60  H 20  S   -0.134664   0.000000   0.000000   0.000000   0.000000
   61  H 21  S   -0.000000   0.000000   0.063578   0.495865  -0.450608

                     56         57         58         59         60

   56  C 17  Y    1.000000
   57  C 17  Z    0.000000   1.000000
   58  H 18  S    0.000000   0.000000   1.000000
   59  H 19  S   -0.464795   0.000000   0.000000   1.000000
   60  H 20  S    0.000000   0.000000   0.156774   0.000000   1.000000
   61  H 21  S    0.134664   0.000000   0.000000   0.156774   0.000000

                     61

   61  H 21  S    1.000000
 BARE NUCLEUS HAMILTONIAN INTEGRALS (H=T+V)

                      1          2          3          4          5

    1   B 1  S   -4.178724
    2  C  2  S   -0.000000 -32.471619
    3  C  2  S   -0.484193  -7.931530 -19.389801
    4  C  2  X   -0.794698  -0.051317  -0.586121 -18.714833
    5  C  2  Y    0.126205   0.013071   0.150942   0.012602 -18.534909
    6  C  2  Z    0.000000   0.000000   0.000000   0.000000   0.000000
    7  C  3  S   -0.000000   0.000000  -0.011970  -0.031631   0.005022
    8  C  3  S   -0.484193  -0.011970  -0.478094  -0.760360   0.120810
    9  C  3  X    0.794698   0.031631   0.760360   1.117218  -0.207327
   10  C  3  Y   -0.126205  -0.005022  -0.120810  -0.207327  -0.153527
   11  C  3  Z    0.000000   0.000000   0.000000   0.000000   0.000000
   12  C  4  S   -0.000001  -0.000054  -1.188769  -1.274946  -1.501375
   13  C  4  S   -0.525114  -1.217956  -7.061244  -4.976935  -5.526572
   14  C  4  X   -0.311601   1.302610   4.706832   0.322093   4.771099
   15  C  4  Y    0.815062   1.541396   5.949174   5.275419   2.089390
   16  C  4  Z    0.000000   0.000000   0.000000   0.000000   0.000000
   17  C  5  S   -0.000001  -0.000000  -0.058655  -0.105120   0.083955
   18  C  5  S   -0.525114  -0.060041  -1.207035  -1.377199   1.105955
   19  C  5  X    0.311601   0.107577   1.388045   1.248044  -1.401173
   20  C  5  Y   -0.815062  -0.086069  -1.107895  -1.391338   0.626942
   21  C  5  Z    0.000000   0.000000   0.000000   0.000000   0.000000
   22  C  6  S   -0.000001  -0.000000  -0.057290  -0.123401  -0.046267
   23  C  6  S   -0.517714  -0.058461  -1.187244  -1.629563  -0.613673
   24  C  6  X    0.542995   0.125931   1.637441   1.986963   0.933075
   25  C  6  Y    0.667227   0.047352   0.615210   0.929047  -0.132206
   26  C  6  Z    0.000000   0.000000   0.000000   0.000000   0.000000
   27  C  7  S   -0.000001  -0.000055  -1.194896  -0.741264   1.835794
   28  C  7  S   -0.517714  -1.220594  -7.103508  -2.981738   6.870819
   29  C  7  X   -0.542995   0.753173   2.633606  -2.525342  -3.304279
   30  C  7  Y   -0.667227  -1.876949  -7.152222  -3.754944   4.947948
   31  C  7  Z    0.000000   0.000000   0.000000   0.000000   0.000000
   32  H  8  S   -0.031549  -0.179573  -1.763724  -0.628427  -2.095816
   33  H  9  S   -0.031549  -0.003272  -0.132258  -0.146097   0.159388
   34  H 10  S   -0.031146  -0.003248  -0.131477  -0.187307  -0.105931
   35  H 11  S   -0.031146  -0.176271  -1.761235   0.058468   2.195108
   36  C 12  S    0.000000   0.000000  -0.000004  -0.000015   0.000002
   37  C 12  S   -0.003330  -0.000004  -0.006320  -0.013595   0.002327
   38  C 12  X    0.009113   0.000016   0.013512   0.027505  -0.005057
   39  C 12  Y   -0.001623  -0.000003  -0.002331  -0.005096  -0.001122
   40  C 12  Z    0.000000   0.000000   0.000000   0.000000   0.000000
   41  C 13  S    0.000000  -0.000009  -0.886755   1.450414  -0.283910
   42  C 13  S   -0.003330  -0.950286  -5.777846   6.111080  -1.160249
   43  C 13  X   -0.009113  -1.554629  -6.402852   5.356632  -1.623405
   44  C 13  Y    0.001623   0.305500   1.317807  -1.731993  -2.677529
   45  C 13  Z    0.000000   0.000000   0.000000   0.000000   0.000000
   46  H 14  S   -0.000923  -0.000003  -0.002048  -0.004022   0.001582
   47  H 15  S   -0.000923  -0.164273  -1.590989   1.577060  -1.181641
   48  C 16  S    0.000000   0.000000  -0.000000  -0.000000  -0.000000
   49  C 16  S   -0.000025  -0.000000  -0.000198  -0.000509  -0.000012
   50  C 16  X    0.000093   0.000000   0.000516   0.001274   0.000032
   51  C 16  Y    0.000009   0.000000   0.000018   0.000047  -0.000059
   52  C 16  Z    0.000000   0.000000   0.000000   0.000000   0.000000
   53  C 17  S    0.000000  -0.000000  -0.036222   0.083923   0.020284
   54  C 17  S   -0.000025  -0.041129  -0.865040   1.249573   0.278551
   55  C 17  X   -0.000093  -0.095500  -1.276965   1.668076   0.453657
   56  C 17  Y   -0.000009  -0.023094  -0.337407   0.530655  -0.215287
   57  C 17  Z    0.000000   0.000000   0.000000   0.000000   0.000000
   58  H 18  S   -0.000125  -0.000000  -0.000580  -0.001261  -0.000292
   59  H 19  S   -0.000125  -0.025761  -0.431097   0.502405   0.354948
   60  H 20  S   -0.000001  -0.000000  -0.000009  -0.000024   0.000001
   61  H 21  S   -0.000001  -0.002170  -0.091525   0.150462   0.011315

                      6          7          8          9         10

    6  C  2  Z  -17.762135
    7  C  3  S    0.000000 -32.471619
    8  C  3  S    0.000000  -7.931530 -19.389801
    9  C  3  X    0.000000   0.051317   0.586121 -18.714833
   10  C  3  Y    0.000000  -0.013071  -0.150942   0.012602 -18.534909
   11  C  3  Z   -0.165175   0.000000   0.000000   0.000000   0.000000
   12  C  4  S    0.000000  -0.000000  -0.058655   0.105120  -0.083955
   13  C  4  S    0.000000  -0.060041  -1.207035   1.377199  -1.105955
   14  C  4  X    0.000000  -0.107577  -1.388045   1.248044  -1.401173
   15  C  4  Y    0.000000   0.086069   1.107895  -1.391338   0.626942
   16  C  4  Z   -3.734175   0.000000   0.000000   0.000000   0.000000
   17  C  5  S    0.000000  -0.000054  -1.188769   1.274946   1.501375
   18  C  5  S    0.000000  -1.217956  -7.061244   4.976935   5.526572
   19  C  5  X    0.000000  -1.302610  -4.706832   0.322093   4.771099
   20  C  5  Y    0.000000  -1.541396  -5.949174   5.275419   2.089390
   21  C  5  Z   -0.450705   0.000000   0.000000   0.000000   0.000000
   22  C  6  S    0.000000  -0.000055  -1.194896   0.741264  -1.835794
   23  C  6  S    0.000000  -1.220594  -7.103508   2.981738  -6.870819
   24  C  6  X    0.000000  -0.753173  -2.633606  -2.525342  -3.304279
   25  C  6  Y    0.000000   1.876949   7.152222  -3.754944   4.947948
   26  C  6  Z   -0.442564   0.000000   0.000000   0.000000   0.000000
   27  C  7  S    0.000000  -0.000000  -0.057290   0.123401   0.046267
   28  C  7  S    0.000000  -0.058461  -1.187244   1.629563   0.613673
   29  C  7  X    0.000000  -0.125931  -1.637441   1.986963   0.933075
   30  C  7  Y    0.000000  -0.047352  -0.615210   0.929047  -0.132206
   31  C  7  Z   -3.757851   0.000000   0.000000   0.000000   0.000000
   32  H  8  S    0.000000  -0.003272  -0.132258   0.146097  -0.159388
   33  H  9  S    0.000000  -0.179573  -1.763724   0.628427   2.095816
   34  H 10  S    0.000000  -0.176271  -1.761235  -0.058468  -2.195108
   35  H 11  S    0.000000  -0.003248  -0.131477   0.187307   0.105931
   36  C 12  S    0.000000  -0.000009  -0.886755  -1.450414   0.283910
   37  C 12  S    0.000000  -0.950286  -5.777846  -6.111080   1.160249
   38  C 12  X    0.000000   1.554629   6.402852   5.356632  -1.623405
   39  C 12  Y    0.000000  -0.305500  -1.317807  -1.731993  -2.677529
   40  C 12  Z   -0.001772   0.000000   0.000000   0.000000   0.000000
   41  C 13  S    0.000000   0.000000  -0.000004   0.000015  -0.000002
   42  C 13  S    0.000000  -0.000004  -0.006320   0.013595  -0.002327
   43  C 13  X    0.000000  -0.000016  -0.013512   0.027505  -0.005057
   44  C 13  Y    0.000000   0.000003   0.002331  -0.005096  -0.001122
   45  C 13  Z   -2.927979   0.000000   0.000000   0.000000   0.000000
   46  H 14  S    0.000000  -0.164273  -1.590989  -1.577060   1.181641
   47  H 15  S    0.000000  -0.000003  -0.002048   0.004022  -0.001582
   48  C 16  S    0.000000  -0.000000  -0.036222  -0.083923  -0.020284
   49  C 16  S    0.000000  -0.041129  -0.865040  -1.249573  -0.278551
   50  C 16  X    0.000000   0.095500   1.276965   1.668076   0.453657
   51  C 16  Y    0.000000   0.023094   0.337407   0.530655  -0.215287
   52  C 16  Z   -0.000054   0.000000   0.000000   0.000000   0.000000
   53  C 17  S    0.000000   0.000000  -0.000000   0.000000   0.000000
   54  C 17  S    0.000000  -0.000000  -0.000198   0.000509   0.000012
   55  C 17  X    0.000000  -0.000000  -0.000516   0.001274   0.000032
   56  C 17  Y    0.000000  -0.000000  -0.000018   0.000047  -0.000059
   57  C 17  Z   -0.314924   0.000000   0.000000   0.000000   0.000000
   58  H 18  S    0.000000  -0.025761  -0.431097  -0.502405  -0.354948
   59  H 19  S    0.000000  -0.000000  -0.000580   0.001261   0.000292
   60  H 20  S    0.000000  -0.002170  -0.091525  -0.150462  -0.011315
   61  H 21  S    0.000000  -0.000000  -0.000009   0.000024  -0.000001

                     11         12         13         14         15

   11  C  3  Z  -17.762135
   12  C  4  S    0.000000 -31.617550
   13  C  4  S    0.000000  -7.719411 -18.528461
   14  C  4  X    0.000000  -0.024116  -0.278771 -17.871108
   15  C  4  Y    0.000000   0.107763   1.256173  -0.083766 -17.584136
   16  C  4  Z   -0.450705   0.000000   0.000000   0.000000   0.000000
   17  C  5  S    0.000000   0.000000  -0.015573  -0.014524   0.037974
   18  C  5  S    0.000000  -0.015573  -0.560215  -0.317004   0.829974
   19  C  5  X    0.000000   0.014524   0.317004  -0.029152  -0.508704
   20  C  5  Y    0.000000  -0.037974  -0.829974  -0.508704   1.111365
   21  C  5  Z   -3.734175   0.000000   0.000000   0.000000   0.000000
   22  C  6  S    0.000000  -0.000068  -1.231180  -2.014574   0.318973
   23  C  6  S    0.000000  -1.227525  -7.037749  -7.301799   1.498896
   24  C  6  X    0.000000   2.009713   7.392766   5.921598  -1.903726
   25  C  6  Y    0.000000  -0.310815  -0.802494  -1.168562  -3.635917
   26  C  6  Z   -3.757851   0.000000   0.000000   0.000000   0.000000
   27  C  7  S    0.000000  -0.000000  -0.064341   0.023269   0.144255
   28  C  7  S    0.000000  -0.064143  -1.277768   0.310412   1.838053
   29  C  7  X    0.000000  -0.023289  -0.283608  -0.454873   0.452641
   30  C  7  Y    0.000000  -0.143789  -1.840657   0.492804   2.399761
   31  C  7  Z   -0.442564   0.000000   0.000000   0.000000   0.000000
   32  H  8  S    0.000000  -1.966520  -8.042751   2.464764  -6.333314
   33  H  9  S    0.000000  -0.000491  -0.041991  -0.026542   0.069680
   34  H 10  S    0.000000  -0.181490  -1.756428  -2.130491  -0.514649
   35  H 11  S    0.000000  -0.003353  -0.138717   0.070163   0.215990
   36  C 12  S    0.000000   0.000000  -0.000083  -0.000263   0.000141
   37  C 12  S    0.000000  -0.000087  -0.032932  -0.056495   0.031137
   38  C 12  X    0.000000   0.000276   0.057730   0.091693  -0.055865
   39  C 12  Y    0.000000  -0.000148  -0.029947  -0.052684   0.018551
   40  C 12  Z   -2.927979   0.000000   0.000000   0.000000   0.000000
   41  C 13  S    0.000000  -0.000000  -0.041420   0.093165   0.030628
   42  C 13  S    0.000000  -0.043400  -0.929633   1.290788   0.492229
   43  C 13  X    0.000000  -0.097728  -1.348591   1.674317   0.770469
   44  C 13  Y    0.000000  -0.031916  -0.376196   0.579620  -0.146046
   45  C 13  Z   -0.001772   0.000000   0.000000   0.000000   0.000000
   46  H 14  S    0.000000  -0.000012  -0.004630  -0.007301   0.005837
   47  H 15  S    0.000000  -0.045071  -0.619627   0.854950  -0.040713
   48  C 16  S    0.000000   0.000000  -0.000002  -0.000007   0.000001
   49  C 16  S    0.000000  -0.000002  -0.003888  -0.008265   0.001954
   50  C 16  X    0.000000   0.000008   0.008631   0.017355  -0.004366
   51  C 16  Y    0.000000  -0.000002  -0.001622  -0.003471  -0.000381
   52  C 16  Z   -0.314924   0.000000   0.000000   0.000000   0.000000
   53  C 17  S    0.000000   0.000000  -0.000117   0.000371   0.000184
   54  C 17  S    0.000000  -0.000130  -0.038222   0.065520   0.033775
   55  C 17  X    0.000000  -0.000410  -0.067256   0.106205   0.061477
   56  C 17  Y    0.000000  -0.000203  -0.032221   0.057275   0.017820
   57  C 17  Z   -0.000054   0.000000   0.000000   0.000000   0.000000
   58  H 18  S    0.000000  -0.000108  -0.014759  -0.027075   0.000049
   59  H 19  S    0.000000  -0.000097  -0.015140   0.021144   0.018536
   60  H 20  S    0.000000  -0.000000  -0.000177  -0.000399   0.000102
   61  H 21  S    0.000000  -0.000013  -0.004213   0.008021   0.002700

                     16         17         18         19         20

   16  C  4  Z  -16.977282
   17  C  5  S    0.000000 -31.617550
   18  C  5  S    0.000000  -7.719411 -18.528461
   19  C  5  X    0.000000   0.024116   0.278771 -17.871108
   20  C  5  Y    0.000000  -0.107763  -1.256173  -0.083766 -17.584136
   21  C  5  Z   -0.195945   0.000000   0.000000   0.000000   0.000000
   22  C  6  S    0.000000  -0.000000  -0.064341  -0.023269  -0.144255
   23  C  6  S    0.000000  -0.064143  -1.277768  -0.310412  -1.838053
   24  C  6  X    0.000000   0.023289   0.283608  -0.454873   0.452641
   25  C  6  Y    0.000000   0.143789   1.840657   0.492804   2.399761
   26  C  6  Z   -3.746466   0.000000   0.000000   0.000000   0.000000
   27  C  7  S    0.000000  -0.000068  -1.231180   2.014574  -0.318973
   28  C  7  S    0.000000  -1.227525  -7.037749   7.301799  -1.498896
   29  C  7  X    0.000000  -2.009713  -7.392766   5.921598  -1.903726
   30  C  7  Y    0.000000   0.310815   0.802494  -1.168562  -3.635917
   31  C  7  Z   -0.479547   0.000000   0.000000   0.000000   0.000000
   32  H  8  S    0.000000  -0.000491  -0.041991   0.026542  -0.069680
   33  H  9  S    0.000000  -1.966520  -8.042751  -2.464764   6.333314
   34  H 10  S    0.000000  -0.003353  -0.138717  -0.070163  -0.215990
   35  H 11  S    0.000000  -0.181490  -1.756428   2.130491   0.514649
   36  C 12  S    0.000000  -0.000000  -0.041420  -0.093165  -0.030628
   37  C 12  S    0.000000  -0.043400  -0.929633  -1.290788  -0.492229
   38  C 12  X    0.000000   0.097728   1.348591   1.674317   0.770469
   39  C 12  Y    0.000000   0.031916   0.376196   0.579620  -0.146046
   40  C 12  Z   -0.009503   0.000000   0.000000   0.000000   0.000000
   41  C 13  S    0.000000   0.000000  -0.000083   0.000263  -0.000141
   42  C 13  S    0.000000  -0.000087  -0.032932   0.056495  -0.031137
   43  C 13  X    0.000000  -0.000276  -0.057730   0.091693  -0.055865
   44  C 13  Y    0.000000   0.000148   0.029947  -0.052684   0.018551
   45  C 13  Z   -0.342310   0.000000   0.000000   0.000000   0.000000
   46  H 14  S    0.000000  -0.045071  -0.619627  -0.854950   0.040713
   47  H 15  S    0.000000  -0.000012  -0.004630   0.007301  -0.005837
   48  C 16  S    0.000000   0.000000  -0.000117  -0.000371  -0.000184
   49  C 16  S    0.000000  -0.000130  -0.038222  -0.065520  -0.033775
   50  C 16  X    0.000000   0.000410   0.067256   0.106205   0.061477
   51  C 16  Y    0.000000   0.000203   0.032221   0.057275   0.017820
   52  C 16  Z   -0.001102   0.000000   0.000000   0.000000   0.000000
   53  C 17  S    0.000000   0.000000  -0.000002   0.000007  -0.000001
   54  C 17  S    0.000000  -0.000002  -0.003888   0.008265  -0.001954
   55  C 17  X    0.000000  -0.000008  -0.008631   0.017355  -0.004366
   56  C 17  Y    0.000000   0.000002   0.001622  -0.003471  -0.000381
   57  C 17  Z   -0.011141   0.000000   0.000000   0.000000   0.000000
   58  H 18  S    0.000000  -0.000097  -0.015140  -0.021144  -0.018536
   59  H 19  S    0.000000  -0.000108  -0.014759   0.027075  -0.000049
   60  H 20  S    0.000000  -0.000013  -0.004213  -0.008021  -0.002700
   61  H 21  S    0.000000  -0.000000  -0.000177   0.000399  -0.000102

                     21         22         23         24         25

   21  C  5  Z  -16.977282
   22  C  6  S    0.000000 -31.722417
   23  C  6  S    0.000000  -7.745456 -18.633165
   24  C  6  X    0.000000   0.049349   0.572715 -17.913911
   25  C  6  Y    0.000000   0.093725   1.093269   0.137431 -17.754984
   26  C  6  Z   -0.479547   0.000000   0.000000   0.000000   0.000000
   27  C  7  S    0.000000   0.000000  -0.014863   0.024604   0.030222
   28  C  7  S    0.000000  -0.014863  -0.544950   0.546731   0.672354
   29  C  7  X    0.000000  -0.024604  -0.546731   0.376977   0.730686
   30  C  7  Y    0.000000  -0.030222  -0.672354   0.730686   0.683770
   31  C  7  Z   -3.746466   0.000000   0.000000   0.000000   0.000000
   32  H  8  S    0.000000  -0.179961  -1.737988   1.849493  -1.125426
   33  H  9  S    0.000000  -0.003424  -0.140005   0.000399   0.228668
   34  H 10  S    0.000000  -1.980013  -8.152381  -4.352882  -5.383984
   35  H 11  S    0.000000  -0.000470  -0.040841   0.045606   0.056590
   36  C 12  S    0.000000  -0.000000  -0.034701  -0.065461   0.052108
   37  C 12  S    0.000000  -0.036373  -0.854398  -0.973664   0.839630
   38  C 12  X    0.000000   0.068725   1.044673   0.956808  -1.111286
   39  C 12  Y    0.000000  -0.054582  -0.773338  -0.967153   0.498346
   40  C 12  Z   -0.342310   0.000000   0.000000   0.000000   0.000000
   41  C 13  S    0.000000   0.000000  -0.000097   0.000341   0.000052
   42  C 13  S    0.000000  -0.000102  -0.035450   0.068043   0.011308
   43  C 13  X    0.000000  -0.000359  -0.069106   0.125413   0.022251
   44  C 13  Y    0.000000  -0.000054  -0.009259   0.017985  -0.008171
   45  C 13  Z   -0.009503   0.000000   0.000000   0.000000   0.000000
   46  H 14  S    0.000000  -0.002445  -0.108091  -0.112213   0.139047
   47  H 15  S    0.000000  -0.000223  -0.024300   0.043553  -0.004045
   48  C 16  S    0.000000   0.000000  -0.003881  -0.010885   0.002591
   49  C 16  S    0.000000  -0.004310  -0.229272  -0.369461   0.102670
   50  C 16  X    0.000000   0.012110   0.383625   0.572238  -0.180990
   51  C 16  Y    0.000000  -0.002861  -0.076113  -0.131497  -0.047065
   52  C 16  Z   -0.011141   0.000000   0.000000   0.000000   0.000000
   53  C 17  S    0.000000   0.000000  -0.000000   0.000000   0.000000
   54  C 17  S    0.000000  -0.000000  -0.000670   0.001554   0.000490
   55  C 17  X    0.000000  -0.000000  -0.001584   0.003488   0.001162
   56  C 17  Y    0.000000  -0.000000  -0.000472   0.001099   0.000152
   57  C 17  Z   -0.001102   0.000000   0.000000   0.000000   0.000000
   58  H 18  S    0.000000  -0.024790  -0.393850  -0.559277  -0.048200
   59  H 19  S    0.000000  -0.000000  -0.000627   0.001225   0.000677
   60  H 20  S    0.000000  -0.000128  -0.015563  -0.027720   0.008068
   61  H 21  S    0.000000  -0.000000  -0.000049   0.000118   0.000025

                     26         27         28         29         30

   26  C  6  Z  -17.077759
   27  C  7  S    0.000000 -31.722417
   28  C  7  S    0.000000  -7.745456 -18.633165
   29  C  7  X    0.000000  -0.049349  -0.572715 -17.913911
   30  C  7  Y    0.000000  -0.093725  -1.093269   0.137431 -17.754984
   31  C  7  Z   -0.190182   0.000000   0.000000   0.000000   0.000000
   32  H  8  S    0.000000  -0.003424  -0.140005  -0.000399  -0.228668
   33  H  9  S    0.000000  -0.179961  -1.737988  -1.849493   1.125426
   34  H 10  S    0.000000  -0.000470  -0.040841  -0.045606  -0.056590
   35  H 11  S    0.000000  -1.980013  -8.152381   4.352882   5.383984
   36  C 12  S    0.000000   0.000000  -0.000097  -0.000341  -0.000052
   37  C 12  S    0.000000  -0.000102  -0.035450  -0.068043  -0.011308
   38  C 12  X    0.000000   0.000359   0.069106   0.125413   0.022251
   39  C 12  Y    0.000000   0.000054   0.009259   0.017985  -0.008171
   40  C 12  Z   -0.310335   0.000000   0.000000   0.000000   0.000000
   41  C 13  S    0.000000  -0.000000  -0.034701   0.065461  -0.052108
   42  C 13  S    0.000000  -0.036373  -0.854398   0.973664  -0.839630
   43  C 13  X    0.000000  -0.068725  -1.044673   0.956808  -1.111286
   44  C 13  Y    0.000000   0.054582   0.773338  -0.967153   0.498346
   45  C 13  Z   -0.010260   0.000000   0.000000   0.000000   0.000000
   46  H 14  S    0.000000  -0.000223  -0.024300  -0.043553   0.004045
   47  H 15  S    0.000000  -0.002445  -0.108091   0.112213  -0.139047
   48  C 16  S    0.000000   0.000000  -0.000000  -0.000000  -0.000000
   49  C 16  S    0.000000  -0.000000  -0.000670  -0.001554  -0.000490
   50  C 16  X    0.000000   0.000000   0.001584   0.003488   0.001162
   51  C 16  Y    0.000000   0.000000   0.000472   0.001099   0.000152
   52  C 16  Z   -0.077115   0.000000   0.000000   0.000000   0.000000
   53  C 17  S    0.000000   0.000000  -0.003881   0.010885  -0.002591
   54  C 17  S    0.000000  -0.004310  -0.229272   0.369461  -0.102670
   55  C 17  X    0.000000  -0.012110  -0.383625   0.572238  -0.180990
   56  C 17  Y    0.000000   0.002861   0.076113  -0.131497  -0.047065
   57  C 17  Z   -0.000182   0.000000   0.000000   0.000000   0.000000
   58  H 18  S    0.000000  -0.000000  -0.000627  -0.001225  -0.000677
   59  H 19  S    0.000000  -0.024790  -0.393850   0.559277   0.048200
   60  H 20  S    0.000000  -0.000000  -0.000049  -0.000118  -0.000025
   61  H 21  S    0.000000  -0.000128  -0.015563   0.027720  -0.008068

                     31         32         33         34         35

   31  C  7  Z  -17.077759
   32  H  8  S    0.000000 -13.488072
   33  H  9  S    0.000000  -0.002717 -13.488072
   34  H 10  S    0.000000  -0.818575  -0.016558 -13.769075
   35  H 11  S    0.000000  -0.016558  -0.818575  -0.002646 -13.769075
   36  C 12  S    0.000000  -0.000008  -0.037141  -0.027765  -0.000010
   37  C 12  S    0.000000  -0.003424  -0.554627  -0.475060  -0.003953
   38  C 12  X    0.000000   0.005731   0.615451   0.352311   0.007756
   39  C 12  Y    0.000000  -0.004104   0.489039  -0.588901   0.002253
   40  C 12  Z   -0.010260   0.000000   0.000000   0.000000   0.000000
   41  C 13  S    0.000000  -0.037141  -0.000008  -0.000010  -0.027765
   42  C 13  S    0.000000  -0.554627  -0.003424  -0.003953  -0.475060
   43  C 13  X    0.000000  -0.615451  -0.005731  -0.007756  -0.352311
   44  C 13  Y    0.000000  -0.489039   0.004104  -0.002253   0.588901
   45  C 13  Z   -0.310335   0.000000   0.000000   0.000000   0.000000
   46  H 14  S    0.000000  -0.000369  -0.877132  -0.047308  -0.004927
   47  H 15  S    0.000000  -0.877132  -0.000369  -0.004927  -0.047308
   48  C 16  S    0.000000  -0.000001  -0.000219  -0.025599  -0.000000
   49  C 16  S    0.000000  -0.000738  -0.023921  -0.413995  -0.000051
   50  C 16  X    0.000000   0.001544   0.033121   0.515706   0.000119
   51  C 16  Y    0.000000  -0.000572   0.027978  -0.310436   0.000048
   52  C 16  Z   -0.000182   0.000000   0.000000   0.000000   0.000000
   53  C 17  S    0.000000  -0.000219  -0.000001  -0.000000  -0.025599
   54  C 17  S    0.000000  -0.023921  -0.000738  -0.000051  -0.413995
   55  C 17  X    0.000000  -0.033121  -0.001544  -0.000119  -0.515706
   56  C 17  Y    0.000000  -0.027978   0.000572  -0.000048   0.310436
   57  C 17  Z   -0.077115   0.000000   0.000000   0.000000   0.000000
   58  H 18  S    0.000000  -0.004972  -0.005155  -1.129101  -0.000038
   59  H 19  S    0.000000  -0.005155  -0.004972  -0.000038  -1.129101
   60  H 20  S    0.000000  -0.000035  -0.004758  -0.040258  -0.000005
   61  H 21  S    0.000000  -0.004758  -0.000035  -0.000005  -0.040258

                     36         37         38         39         40

   36  C 12  S  -30.093659
   37  C 12  S   -7.340934 -17.003592
   38  C 12  X    0.058536   0.706201 -16.396851
   39  C 12  Y   -0.056890  -0.656463  -0.147443 -15.956209
   40  C 12  Z    0.000000   0.000000   0.000000   0.000000 -15.505653
   41  C 13  S    0.000000  -0.000000   0.000000  -0.000000   0.000000
   42  C 13  S   -0.000000  -0.000016   0.000045  -0.000008   0.000000
[...]
   50  C 16  X    0.000000   0.000000   0.000000   0.000000   0.000000
   51  C 16  Y    0.000000   0.000000   0.000000   0.000000   0.000000
   52  C 16  Z    0.000000   0.000000   0.000000   0.000000   0.000000
   53  C 17  S    0.000000   0.000000   0.000000  -0.000000  -0.000000
   54  C 17  S    0.000000   0.000000   0.000000  -0.000000  -0.000000
   55  C 17  X    0.000000   0.000000  -0.000000   0.000000   0.000000
   56  C 17  Y    0.000000   0.000000   0.000000  -0.000000  -0.000000
   57  C 17  Z    0.000000   0.000000   0.000000   0.000000   0.000000
   58  H 18  S    0.000000   0.000000   0.000000   0.000000   0.000000
   59  H 19  S    0.000000   0.000000   0.000000  -0.000000  -0.000000
   60  H 20  S    0.000000   0.000000   0.000000   0.000000   0.000000
   61  H 21  S    0.000000   0.000000   0.000000  -0.000000  -0.000000

                     16         17         18         19         20

   16  C  4  Z    0.000000
   17  C  5  S    0.000000   0.000000
   18  C  5  S    0.000000   0.000000   0.000000
   19  C  5  X    0.000000   0.000000   0.000000   0.000000
   20  C  5  Y    0.000000   0.000000   0.000000   0.000000   0.000000
   21  C  5  Z    0.000000   0.000000   0.000000   0.000000   0.000000
   22  C  6  S    0.000000   0.000000   0.000000   0.000000   0.000000
   23  C  6  S    0.000000   0.000000   0.000000   0.000000   0.000000
   24  C  6  X    0.000000   0.000000   0.000000   0.000000   0.000000
   25  C  6  Y    0.000000   0.000000   0.000000   0.000000   0.000000
   26  C  6  Z    0.000000   0.000000   0.000000   0.000000   0.000000
   27  C  7  S    0.000000   0.000000   0.000000   0.000000   0.000000
   28  C  7  S    0.000000   0.000000   0.000000  -0.000000   0.000000
   29  C  7  X    0.000000   0.000000  -0.000000   0.000000  -0.000000
   30  C  7  Y    0.000000   0.000000   0.000000  -0.000000   0.000000
   31  C  7  Z    0.000000   0.000000   0.000000   0.000000   0.000000
   32  H  8  S    0.000000   0.000000   0.000000  -0.000000   0.000000
   33  H  9  S    0.000000   0.000000   0.000000   0.000000   0.000000
   34  H 10  S    0.000000   0.000000   0.000000   0.000000   0.000000
   35  H 11  S    0.000000   0.000000   0.000000  -0.000000   0.000000
   36  C 12  S    0.000000   0.000000   0.000000   0.000000   0.000000
   37  C 12  S    0.000000   0.000000   0.000000   0.000000   0.000000
   38  C 12  X    0.000000   0.000000   0.000000   0.000000   0.000000
   39  C 12  Y    0.000000   0.000000   0.000000   0.000000   0.000000
   40  C 12  Z    0.000000   0.000000   0.000000   0.000000   0.000000
   41  C 13  S    0.000000   0.000000   0.000000   0.000000   0.000000
   42  C 13  S    0.000000   0.000000   0.000000  -0.000000   0.000000
   43  C 13  X    0.000000   0.000000  -0.000000   0.000000  -0.000000
   44  C 13  Y    0.000000   0.000000  -0.000000   0.000000  -0.000000
   45  C 13  Z    0.000000   0.000000   0.000000   0.000000   0.000000
   46  H 14  S    0.000000   0.000000   0.000000   0.000000   0.000000
   47  H 15  S    0.000000   0.000000   0.000000  -0.000000   0.000000
   48  C 16  S    0.000000   0.000000   0.000000   0.000000   0.000000
   49  C 16  S    0.000000   0.000000   0.000000   0.000000   0.000000
   50  C 16  X    0.000000   0.000000   0.000000   0.000000   0.000000
   51  C 16  Y    0.000000   0.000000   0.000000   0.000000   0.000000
   52  C 16  Z    0.000000   0.000000   0.000000   0.000000   0.000000
   53  C 17  S    0.000000   0.000000   0.000000  -0.000000   0.000000
   54  C 17  S    0.000000   0.000000   0.000000  -0.000000   0.000000
   55  C 17  X    0.000000   0.000000  -0.000000   0.000000  -0.000000
   56  C 17  Y    0.000000   0.000000   0.000000  -0.000000   0.000000
   57  C 17  Z    0.000000   0.000000   0.000000   0.000000   0.000000
   58  H 18  S    0.000000   0.000000   0.000000   0.000000   0.000000
   59  H 19  S    0.000000   0.000000   0.000000  -0.000000   0.000000
   60  H 20  S    0.000000   0.000000   0.000000   0.000000   0.000000
   61  H 21  S    0.000000   0.000000   0.000000  -0.000000   0.000000

                     21         22         23         24         25

   21  C  5  Z    0.000000
   22  C  6  S    0.000000   0.000000
   23  C  6  S    0.000000   0.000000   0.000000
   24  C  6  X    0.000000   0.000000   0.000000   0.000000
   25  C  6  Y    0.000000   0.000000   0.000000   0.000000   0.000000
   26  C  6  Z    0.000000   0.000000   0.000000   0.000000   0.000000
   27  C  7  S    0.000000   0.000000   0.000000   0.000000   0.000000
   28  C  7  S    0.000000   0.000000   0.000000  -0.000000  -0.000000
   29  C  7  X    0.000000   0.000000  -0.000000   0.000000   0.000000
   30  C  7  Y    0.000000   0.000000   0.000000  -0.000000  -0.000000
   31  C  7  Z    0.000000   0.000000   0.000000   0.000000   0.000000
   32  H  8  S    0.000000   0.000000   0.000000  -0.000000  -0.000000
   33  H  9  S    0.000000   0.000000   0.000000   0.000000   0.000000
   34  H 10  S    0.000000   0.000000   0.000000   0.000000   0.000000
   35  H 11  S    0.000000   0.000000   0.000000  -0.000000  -0.000000
   36  C 12  S    0.000000   0.000000   0.000000   0.000000   0.000000
   37  C 12  S    0.000000   0.000000   0.000000   0.000000   0.000000
   38  C 12  X    0.000000   0.000000   0.000000   0.000000   0.000000
   39  C 12  Y    0.000000   0.000000   0.000000   0.000000   0.000000
   40  C 12  Z    0.000000   0.000000   0.000000   0.000000   0.000000
   41  C 13  S    0.000000   0.000000   0.000000   0.000000   0.000000
   42  C 13  S    0.000000   0.000000   0.000000  -0.000000  -0.000000
   43  C 13  X    0.000000   0.000000  -0.000000   0.000000   0.000000
   44  C 13  Y    0.000000   0.000000  -0.000000   0.000000   0.000000
   45  C 13  Z    0.000000   0.000000   0.000000   0.000000   0.000000
   46  H 14  S    0.000000   0.000000   0.000000   0.000000   0.000000
   47  H 15  S    0.000000   0.000000   0.000000  -0.000000  -0.000000
   48  C 16  S    0.000000   0.000000   0.000000   0.000000   0.000000
   49  C 16  S    0.000000   0.000000   0.000000   0.000000   0.000000
   50  C 16  X    0.000000   0.000000   0.000000   0.000000   0.000000
   51  C 16  Y    0.000000   0.000000   0.000000   0.000000   0.000000
   52  C 16  Z    0.000000   0.000000   0.000000   0.000000   0.000000
   53  C 17  S    0.000000   0.000000   0.000000  -0.000000  -0.000000
   54  C 17  S    0.000000   0.000000   0.000000  -0.000000  -0.000000
   55  C 17  X    0.000000   0.000000  -0.000000   0.000000   0.000000
   56  C 17  Y    0.000000   0.000000   0.000000  -0.000000  -0.000000
   57  C 17  Z    0.000000   0.000000   0.000000   0.000000   0.000000
   58  H 18  S    0.000000   0.000000   0.000000   0.000000   0.000000
   59  H 19  S    0.000000   0.000000   0.000000  -0.000000  -0.000000
   60  H 20  S    0.000000   0.000000   0.000000   0.000000   0.000000
   61  H 21  S    0.000000   0.000000   0.000000  -0.000000  -0.000000

                     26         27         28         29         30

   26  C  6  Z    0.000000
   27  C  7  S    0.000000   0.000000
   28  C  7  S    0.000000   0.000000   0.000000
   29  C  7  X    0.000000   0.000000  -0.000000   0.000000
   30  C  7  Y    0.000000   0.000000   0.000000  -0.000000   0.000000
   31  C  7  Z    0.000000   0.000000   0.000000   0.000000   0.000000
   32  H  8  S    0.000000   0.000000   0.000000  -0.000000   0.000000
   33  H  9  S    0.000000   0.000000   0.000000  -0.000000   0.000000
   34  H 10  S    0.000000   0.000000   0.000000  -0.000000   0.000000
   35  H 11  S    0.000000   0.000000   0.000000  -0.000000   0.000000
   36  C 12  S    0.000000   0.000000   0.000000   0.000000   0.000000
   37  C 12  S    0.000000   0.000000   0.000000   0.000000   0.000000
   38  C 12  X    0.000000   0.000000   0.000000   0.000000   0.000000
   39  C 12  Y    0.000000   0.000000   0.000000   0.000000   0.000000
   40  C 12  Z    0.000000   0.000000   0.000000   0.000000   0.000000
   41  C 13  S    0.000000   0.000000   0.000000   0.000000   0.000000
   42  C 13  S    0.000000   0.000000   0.000000  -0.000000   0.000000
   43  C 13  X    0.000000   0.000000  -0.000000   0.000000  -0.000000
   44  C 13  Y    0.000000   0.000000  -0.000000   0.000000  -0.000000
   45  C 13  Z    0.000000   0.000000   0.000000   0.000000   0.000000
   46  H 14  S    0.000000   0.000000   0.000000   0.000000   0.000000
   47  H 15  S    0.000000   0.000000   0.000000  -0.000000   0.000000
   48  C 16  S    0.000000   0.000000   0.000000   0.000000   0.000000
   49  C 16  S    0.000000   0.000000   0.000000   0.000000   0.000000
   50  C 16  X    0.000000   0.000000   0.000000   0.000000   0.000000
   51  C 16  Y    0.000000   0.000000   0.000000   0.000000   0.000000
   52  C 16  Z    0.000000   0.000000   0.000000   0.000000   0.000000
   53  C 17  S    0.000000   0.000000   0.000000  -0.000000   0.000000
   54  C 17  S    0.000000   0.000000   0.000000  -0.000000   0.000000
   55  C 17  X    0.000000   0.000000  -0.000000   0.000000  -0.000000
   56  C 17  Y    0.000000   0.000000   0.000000  -0.000000   0.000000
   57  C 17  Z    0.000000   0.000000   0.000000   0.000000   0.000000
   58  H 18  S    0.000000   0.000000   0.000000   0.000000   0.000000
   59  H 19  S    0.000000   0.000000   0.000000  -0.000000   0.000000
   60  H 20  S    0.000000   0.000000   0.000000   0.000000   0.000000
   61  H 21  S    0.000000   0.000000   0.000000  -0.000001   0.000000

                     31         32         33         34         35

   31  C  7  Z    0.000000
   32  H  8  S    0.000000   0.000000
   33  H  9  S    0.000000   0.000000   0.000000
   34  H 10  S    0.000000   0.000000   0.000000   0.000000
   35  H 11  S    0.000000   0.000000   0.000000   0.000000   0.000000
   36  C 12  S    0.000000   0.000000   0.000000   0.000000   0.000000
   37  C 12  S    0.000000   0.000000   0.000000   0.000000   0.000000
   38  C 12  X    0.000000   0.000000   0.000000   0.000000   0.000000
   39  C 12  Y    0.000000   0.000000   0.000000   0.000000   0.000000
   40  C 12  Z    0.000000   0.000000   0.000000   0.000000   0.000000
   41  C 13  S    0.000000   0.000000   0.000000   0.000000   0.000000
   42  C 13  S    0.000000   0.000000   0.000000   0.000000   0.000000
   43  C 13  X    0.000000  -0.000000  -0.000000  -0.000000  -0.000000
   44  C 13  Y    0.000000  -0.000000  -0.000000  -0.000000  -0.000000
   45  C 13  Z    0.000000   0.000000   0.000000   0.000000   0.000000
   46  H 14  S    0.000000   0.000000   0.000000   0.000000   0.000000
   47  H 15  S    0.000000   0.000000   0.000000   0.000000   0.000000
   48  C 16  S    0.000000   0.000000   0.000000   0.000000   0.000000
   49  C 16  S    0.000000   0.000000   0.000000   0.000000   0.000000
   50  C 16  X    0.000000   0.000000   0.000000   0.000000   0.000000
   51  C 16  Y    0.000000   0.000000   0.000000   0.000000   0.000000
   52  C 16  Z    0.000000   0.000000   0.000000   0.000000   0.000000
   53  C 17  S    0.000000   0.000000   0.000000   0.000000   0.000000
   54  C 17  S    0.000000   0.000000   0.000000   0.000000   0.000001
   55  C 17  X    0.000000  -0.000000  -0.000000  -0.000000  -0.000002
   56  C 17  Y    0.000000   0.000000   0.000000   0.000000   0.000000
   57  C 17  Z    0.000000   0.000000   0.000000   0.000000   0.000000
   58  H 18  S    0.000000   0.000000   0.000000   0.000000   0.000000
   59  H 19  S    0.000000   0.000000   0.000000   0.000000   0.000000
   60  H 20  S    0.000000   0.000000   0.000000   0.000000   0.000000
   61  H 21  S    0.000000   0.000000   0.000000   0.000000   0.000008

                     36         37         38         39         40

   36  C 12  S    0.000000
   37  C 12  S    0.000000   0.000000
   38  C 12  X    0.000000   0.000000   0.000000
   39  C 12  Y    0.000000   0.000000   0.000000   0.000000
   40  C 12  Z    0.000000   0.000000   0.000000   0.000000   0.000000
   41  C 13  S    0.000000   0.000000   0.000000   0.000000   0.000000
   42  C 13  S    0.000000   0.000000   0.000000   0.000000   0.000000
   43  C 13  X    0.000000   0.000000   0.000000   0.000000   0.000000
   44  C 13  Y    0.000000   0.000000   0.000000   0.000000   0.000000
   45  C 13  Z    0.000000   0.000000   0.000000   0.000000   0.000000
   46  H 14  S    0.000000   0.000000   0.000000   0.000000   0.000000
   47  H 15  S    0.000000   0.000000   0.000000   0.000000   0.000000
   48  C 16  S    0.000000   0.000000   0.000000   0.000000   0.000000
   49  C 16  S    0.000000   0.000000   0.000000   0.000000   0.000000
   50  C 16  X    0.000000   0.000000   0.000000   0.000000   0.000000
   51  C 16  Y    0.000000   0.000000   0.000000   0.000000   0.000000
   52  C 16  Z    0.000000   0.000000   0.000000   0.000000   0.000000
   53  C 17  S    0.000000   0.000000   0.000000   0.000000   0.000000
   54  C 17  S    0.000000   0.000000   0.000000   0.000000   0.000000
   55  C 17  X    0.000000   0.000000   0.000000   0.000000   0.000000
   56  C 17  Y    0.000000   0.000000   0.000000   0.000000   0.000000
   57  C 17  Z    0.000000   0.000000   0.000000   0.000000   0.000000
   58  H 18  S    0.000000   0.000000   0.000000   0.000000   0.000000
   59  H 19  S    0.000000   0.000000   0.000000   0.000000   0.000000
   60  H 20  S    0.000000   0.000000   0.000000   0.000000   0.000000
   61  H 21  S    0.000000   0.000000   0.000000   0.000000   0.000000

                     41         42         43         44         45

   41  C 13  S    0.000000
   42  C 13  S    0.000000   0.000025
   43  C 13  X    0.000000  -0.000051   0.000103
   44  C 13  Y    0.000000  -0.000014   0.000029   0.000008
   45  C 13  Z    0.000000   0.000000   0.000000   0.000000   0.000000
   46  H 14  S    0.000000   0.000000  -0.000000  -0.000000   0.000000
   47  H 15  S    0.000000   0.000013  -0.000026  -0.000007   0.000000
   48  C 16  S    0.000000   0.000000   0.000000   0.000000   0.000000
   49  C 16  S    0.000000   0.000000   0.000000   0.000000   0.000000
   50  C 16  X    0.000000   0.000000   0.000000   0.000000   0.000000
   51  C 16  Y    0.000000   0.000000   0.000000   0.000000   0.000000
   52  C 16  Z    0.000000   0.000000   0.000000   0.000000   0.000000
   53  C 17  S    0.000000   0.000000  -0.000000  -0.000000   0.000000
   54  C 17  S    0.000000   0.000384  -0.000773  -0.000219   0.000000
   55  C 17  X    0.000000  -0.000638   0.001286   0.000365   0.000000
   56  C 17  Y    0.000000   0.000191  -0.000384  -0.000109   0.000000
   57  C 17  Z    0.000000   0.000000   0.000000   0.000000   0.000000
   58  H 18  S    0.000000   0.000000   0.000000   0.000000   0.000000
   59  H 19  S    0.000000   0.000057  -0.000114  -0.000032   0.000000
   60  H 20  S    0.000000   0.000000   0.000000   0.000000   0.000000
   61  H 21  S    0.000000   0.003163  -0.006371  -0.001806   0.000000

                     46         47         48         49         50

   46  H 14  S    0.000000
   47  H 15  S    0.000000   0.000007
   48  C 16  S    0.000000   0.000000   0.000000
   49  C 16  S    0.000000   0.000000   0.000000   0.000000
   50  C 16  X    0.000000   0.000000   0.000000   0.000000   0.000000
   51  C 16  Y    0.000000   0.000000   0.000000   0.000000   0.000000
   52  C 16  Z    0.000000   0.000000   0.000000   0.000000   0.000000
   53  C 17  S    0.000000   0.000000   0.000000   0.000000   0.000000
   54  C 17  S    0.000000   0.000197   0.000000   0.000000   0.000000
   55  C 17  X   -0.000000  -0.000327   0.000000   0.000000   0.000000
   56  C 17  Y    0.000000   0.000098   0.000000   0.000000   0.000000
   57  C 17  Z    0.000000   0.000000   0.000000   0.000000   0.000000
   58  H 18  S    0.000000   0.000000   0.000000   0.000000   0.000000
   59  H 19  S    0.000000   0.000029   0.000000   0.000000   0.000000
   60  H 20  S    0.000000   0.000000   0.000000   0.000000   0.000000
   61  H 21  S    0.000000   0.001621   0.000000   0.000000   0.000000

                     51         52         53         54         55

   51  C 16  Y    0.000000
   52  C 16  Z    0.000000   0.000000
   53  C 17  S    0.000000   0.000000   0.000000
   54  C 17  S    0.000000   0.000000   0.000000   0.005809
   55  C 17  X    0.000000   0.000000  -0.000000  -0.009663   0.016075
   56  C 17  Y    0.000000   0.000000   0.000000   0.002888  -0.004804
   57  C 17  Z    0.000000   0.000000   0.000000   0.000000   0.000000
   58  H 18  S    0.000000   0.000000   0.000000   0.000000   0.000000
   59  H 19  S    0.000000   0.000000   0.000000   0.000858  -0.001427
   60  H 20  S    0.000000   0.000000   0.000000   0.000000   0.000000
   61  H 21  S    0.000000   0.000000   0.000000   0.047882  -0.079654

                     56         57         58         59         60

   56  C 17  Y    0.001436
   57  C 17  Z    0.000000   0.000000
   58  H 18  S    0.000000   0.000000   0.000000
   59  H 19  S    0.000426   0.000000   0.000000   0.000127
   60  H 20  S    0.000000   0.000000   0.000000   0.000000   0.000000
   61  H 21  S    0.023805   0.000000   0.000000   0.007070   0.000000

                     61

   61  H 21  S    0.394694
                            SPIN DENS    ALPHA DENS     BETA DENS
    2  C            6.0    -0.0708036      38.65620      38.72700
    3  C            6.0    -0.0708036      38.65620      38.72700
    4  C            6.0    -0.0202929      38.67556      38.69585
    5  C            6.0    -0.0202929      38.67556      38.69585
    6  C            6.0    -0.0061092      38.68852      38.69463
    7  C            6.0    -0.0061092      38.68852      38.69463
    8  H            1.0     0.0245470       0.17722       0.15267
    9  H            1.0     0.0245470       0.17722       0.15267
   10  H            1.0    -0.0041369       0.16916       0.17329
   11  H            1.0    -0.0041369       0.16916       0.17329
   12  C            6.0     0.1300912      38.74242      38.61233
   13  C            6.0     0.1300912      38.74242      38.61233
   14  H            1.0     0.0007968       0.17108       0.17028
   15  H            1.0     0.0007968       0.17108       0.17028
   16  C            6.0    -0.1343399      38.61586      38.75020
   17  C            6.0    -0.1343399      38.61586      38.75020
   18  H            1.0     0.0206120       0.18545       0.16484
   19  H            1.0     0.0206120       0.18545       0.16484
   20  H            1.0     0.0255318       0.18250       0.15697
   21  H            1.0     0.0255318       0.18250       0.15697

          ---------------------
          ELECTROSTATIC MOMENTS
          ---------------------

 POINT   1           X           Y           Z (BOHR)    CHARGE
                 0.000000    0.000000    0.000000        1.00 (A.U.)
         DX          DY          DZ         /D/  (DEBYE)
     0.000000    0.000000    0.000000    0.000000
 ...... END OF PROPERTY EVALUATION ......
 STEP CPU TIME =     0.24 TOTAL CPU TIME =          2.4 (      0.0 MIN)
 TOTAL WALL CLOCK TIME=          1.0 SECONDS, CPU UTILIZATION IS   248.98%
               580000  WORDS OF DYNAMIC MEMORY USED
 EXECUTION OF GAMESS TERMINATED NORMALLY Mon Aug  5 14:11:20 2019
 DDI: 263640 bytes (0.3 MB / 0 MWords) used by master data server.

 ----------------------------------------
 CPU timing information for all processes
 ========================================
 0: 1.482 + 1.100 = 2.583
 ----------------------------------------
Note: The following floating-point exceptions are signalling: IEEE_DENORMAL
 ddikick.x: exited gracefully.
unset echo
----- accounting info -----
Files used on the master node jordan-wkst2 were:
-rw-r--r-- 1 shiv users     1638 Aug  5 14:11 /tmp/dvb_un_sp_ghost.F05
-rw-r--r-- 1 shiv users  8820784 Aug  5 14:11 /tmp/dvb_un_sp_ghost.F08
-rw-r--r-- 1 shiv users 68812800 Aug  5 14:11 /tmp/dvb_un_sp_ghost.F10
ls: No match.
ls: No match.
ls: No match.
Mon 05 Aug 2019 02:11:23 PM EDT
0.174u 0.062s 0:04.23 5.4%	0+0k 0+8io 0pf+0w
