
Create H   file=/usr/local/adf/adf2014.01/atomicdata/SZ/H
XC
 GGA Blyp
End
End Input

 *******************************************************************************
 *                                                                             *
 *  -------------------------------------                                      *
 *   Amsterdam Density Functional  (ADF)         2014                          *
 *  -------------------------------------                                      *
 *                                               r43610 2014-09-09             *
 *                                                                             *
 *                                                                             *
 *                              =================                              *
 *                              |               |                              *
 *                              |     A D F     |                              *
 *                              |               |                              *
 *                              =================                              *
 *                                                                             *
 *                                                                             *
 *   Online information and documentation:  http://www.scm.com                 *
 *   E-mail:  support@scm.com   info@scm.com                                   *
 *                                                                             *
 *   Scientific publications using ADF results must be properly referenced     *
 *   See the User Manuals (or the web site) for recommended citations          *
 *   The terms and conditions of the End User License Agreement apply to       *
 *   the use of ADF, http://www.scm.com/Sales/LicAgreement.html                *
 *                                                                             *
 **********************  x86_64_linux_intel / intelmpi  ************************
  
 ADF 2014  RunTime: Oct06-2014 23:08:19  Nodes: 1  Procs: 1

 Hydrogen (SZ)



 ===========================
 A T T A C H E D   F I L E S
 ===========================
  
 CREATE - Data File:    /usr/local/adf/adf2014.01/atomicdata/SZ/H
                        Hydrogen (SZ)



 ===============================
 M O D E L   P A R A M E T E R S
 ===============================
  
 DENSITY FUNCTIONAL POTENTIAL (scf)
    LDA:                               Exchange only                           == Not Default ==
    Gradient Corrections:              Becke88 LYP                             == Not Default ==

 SPIN  (restricted / unrestr.)
    Molecule:                          Restricted                               

 OTHER ASPECTS
    Relativistic Corrections:          ---                                      

    Nuclear Charge Density Model:      Point Charge Nuclei                                                                                                                                                                                     
    Core Treatment:                    Frozen Orbital(s)                        

    Hyperfine or Zeeman Interaction:   ---                                      



 =====================================
 S Y M M E T R Y ,   E L E C T R O N S
 =====================================
  
 Symmetry: ATOM

 Irreducible Representations, including subspecies
 -------------------------------------------------
 S
 P:x  P:y  P:z
 D:z2  D:x2-y2  D:xy  D:xz  D:yz
 F:z3  F:z  F:xyz  F:z2x  F:z2y  F:x  F:y


 Configuration of Valence Electrons
 ==================================

          Occupation Numbers
          -------------------------------------------------
 S        1
 P        0
 D        0
 F        0
          -------------------------------------------------

 Total:   1

 Net Charge: 0 (Nuclei minus Electrons)

 Preset values for MO occupations will be applied through SCF cycle no. 1000000
 Thereafter, the program will assign electrons to MOs that are spatially
 similar to the occupied MOs in a "reference" cycle ("KeepOrbitals").
 The reference cycle is always the PREVIOUS cycle: it will evolve with
 the SCF procedure.



 ================================
 (Slater-type)  F U N C T I O N S  ***  (Basis and Fit)  ***
 ================================
  

 Atom Type    1  (H)
 ==============

 Valence Basis Sets:   1
 -----------------------
   1 S    1.240000


 BAS: List of all Elementary Cartesian Basis Functions
 =====================================================

 The numbering in the list below (to the right of the function characteristics) is referred
 to in print-outs of MO eigenvectors and Mulliken populations in the BAS representation
 (as contrasted to the SFO representation).

 Notes:
 1. The functions are characterized by a polynomial prefactor (powers of x,y,z and r) and
    an exponential decay factor alpha.
 2. Since the basis sets are specific for an atom TYPE, the individual functions occur on
    all atoms of that type.
 3. The word 'Core' in the left margin signals that it is a Core Function (CF) : not a
    degree of freedom in the valence set, but only used to ensure orthogonalization of
    the other valence basis functions on the frozen Core Orbitals.


 (power of) X  Y  Z  R     Alpha  on Atom
            ==========     =====     ==========

 H                                    1
                                  ---------------------------------------------------------------------------
            0  0  0  0     1.240      1

 Total number of charge fitting functions (nprimf)        50
 Total number of Cartesian basis functions (naos)          1
 Total number of Cartesian core functions  (ncos)          0



 BAS: List of all Elementary Cartesian Basis Functions
 =====================================================

 The numbering in the list below (to the right of the function characteristics) is referred
 to in print-outs of MO eigenvectors and Mulliken populations in the BAS representation
 (as contrasted to the SFO representation).

 Notes:
 1. The functions are characterized by a polynomial prefactor (powers of x,y,z and r) and
    an exponential decay factor alpha.
 2. Since the basis sets are specific for an atom TYPE, the individual functions occur on
    all atoms of that type.
 3. The word 'Core' in the left margin signals that it is a Core Function (CF) : not a
    degree of freedom in the valence set, but only used to ensure orthogonalization of
    the other valence basis functions on the frozen Core Orbitals.


 (power of) X  Y  Z  R     Alpha  on Atom
            ==========     =====     ==========

 H                                    1
                                  ---------------------------------------------------------------------------
            0  0  0  0     1.240      1
1
 ***************************************************************************************************



                                              ***********************
                                              *  T E C H N I C A L  *
                                              ***********************
  



 =============================================================
 P A R A L L E L I Z A T I O N  and  V E C T O R I Z A T I O N
 =============================================================
  
 Nr of parallel processes:                                1
 Maximum vector length in NumInt loops:                 128



 ===============
 I O  vs.  C P U  ***  (store numerical data on disk or recalculate)  ***
 ===============
  
 Basis functions:   recalculate when needed
 Fit functions:     recalculate when needed

 IO buffersize (Mb):                                     64.000000



 =====================
 S C F   U P D A T E S
 =====================
  
 Max. nr. of cycles:                               300
 Convergence criterion:                              0.0000000100
   secondary criterion:                              0.0000000100

 Mix parameter (when DIIS does not apply):           0.2000000000
 Special mix parameter for the first cycle:          1.0000000000


 DIIS (Direct Inversion in Iteration Space)
    Replace damping when SCF Error is below:         0.5000000000
    Apply anyway after SCF cycle:
                                                     5
    (Max.) nr. of expansion vectors:                10

    Upperbound on expansion coefficients:            5.0000000000
    (when exceeded, IterationSpace is re-built)
    2nd Upperbound on coefficients:                 25.0000000000
    (when exceeded, simple damping will be used)
 Automatic ElectronSmearing (in case of problematic SCF convergence) disabled



 =================
 P R E C I S I O N  ***  (General: NumInt, NeglectFunctionTails, ...)  ***
 =================
  

 NumInt:           Target precision:                10.0000000000
 -------           Initial precision:               10.0000000000
                   Min. precision (optimization):   10.0000000000

 Neglect Functions:          Basis functions:        0.1000000000E-11
 ------------------          Fit functions:          0.1000000000E-11



 ===========================
 L I N E A R   S C A L I N G
 ===========================
  

 Cut-off radii density fit:                        0.1000000000E-13
 Overlap cut-off criterion AO matrix elements:     0.1000000000E-11
 Cut-offs for Coulomb potential and fitted density:0.1000000000E-13
 Cut-off criterion for Coulomb multipole terms:    0.1000000000E-13
 Progressive Convergence parameter:                 0.000000000    
1
 ***************************************************************************************************



                                            ***************************
                                            *  C O M P U T A T I O N  *
                                            ***************************
  

 Number of elements of the density matrix on this node (used, total):         1         1



 ===========================================
 Numerical Integration : Fuzzy Cells (Becke)
 ===========================================
  
 Becke grid quality: VERYGOOD       
  
 Lebedev angular grid order:             min:  13 max:  41
 Nr. of radial points:                   min:  64 max:  64

 Total nr. of points:         64
 Nr. of blocks:                1
 Block length:                64
 Nr. of dummy points:          0


 Test of Precision of the Numerical Integration Grid
 ===================================================

 Integral of the Total Core Density:                   0.00000000000000



 ========================
 Density Fitting (zlmFit)
 ========================
  
 ZlmFit Fit Quality: VERYGOOD       
  
 Max L-expansion:                        min:   0 max:   0
 Nr. of radial interpolation points:     min: 120 max: 120



 =====
 S C F
 =====
  

 CYCLE    1
 orbitals (Q,E):
 ---------------
 S :1...1            ( 1.00    -0.4712)

 CYCLE    2
 d-Pmat  mean:  0.00E+00
 imax=      1:  0.00E+00
 orbitals (Q,E):
 ---------------
 S :1...1            ( 1.00    -0.1208)

 SCF CONVERGED

 CYCLE    3
1
 ***************************************************************************************************



                                                *******************
                                                *  R E S U L T S  *
                                                *******************
  
 *** Setting up for NEW gradients in focky
 *** Using FIT density in focky

 Orbital Energies, per Irrep and Spin:
 ======================================
                        Occup              E (au)              E (eV)       Diff (eV) with prev. cycle
                        -----      --------------------        ------       --------------------------
 S
               1        1.000     -0.12084937642717E+00        -3.288              -3.78E-16


 Partially Occupied:
               1 S                -0.12084937642717E+00
  


 All Electron Calculation, thus no Orbital Energies of the Core Orbitals are calculated



 =======================================
 M U L L I K E N   P O P U L A T I O N S
 =======================================
  
 The survey below gives for each atom:
 a) the total charge (Z minus electrons)
 b) the net spin polarization (nr of electrons spin-A minus spin-B)
 c) for each spin the atomic electron valence density (integrated) per L-value.

 Atom              Charge    Spin density          S         P         D         F
 ----              ------    ------------       ------    ------    ------    ------
 1 H               0.0000                       1.0000    0.0000    0.0000    0.0000

 Populations of individual BAS functions
 ----------------------------------------
 1 H            1.0000

 Gross Charges per Atom (Z minus electrons)
 ==========================================
             0.0000
 Net Total:  0.00000000



 ========================================================================
 Electrostatic potential at the Nuclei due to  electrons and other nuclei
 ========================================================================
  
         Atom                  Potential
         ----                  ---------
     1)   H                   1.23999837
 
 
 ========================
 No memory problems found
 ========================
 
 Maximum number of active allocate calls:         277
 
 *******************************************************************************

                             A D F   E X I T
 NORMAL TERMINATION



 =================
 Timing Statistics
 =================
  
 Total Used :                     CPU=        0.42      System=        0.17     Elapsed=        0.65

 Calls  Section                     ( Mean, Percentage )
 ---------------------------------------------------------------------------------------------------
     3  ><      ................      0.00    0.00             0.00    0.57             0.00    0.51
     1  INIT    ................      0.02    3.83             0.08   43.43             0.10   15.93
     1  GEOMET  ................      0.06   14.11             0.04   20.57             0.10   16.10
     1  INPUTA  ................      0.00    0.00             0.00    0.57             0.00    0.35
     1  MAINSY  ................      0.00    0.96             0.00    0.57             0.01    1.87
     1  SYMFIT  ................      0.00    0.00             0.00    0.57             0.00    0.11
     1  CORORT  ................      0.00    0.24             0.00    0.57             0.00    0.25
     1  SYMORB  ................      0.00    0.00             0.00    0.00             0.00    0.27
     1  CLSMAT  ................      0.00    0.72             0.00    0.00             0.01    0.89
     1  ORTHON  ................      0.00    0.24             0.00    0.00             0.00    0.34
     1  GENPT   ................      0.09   20.81             0.04   20.57             0.13   19.26
     1  PTBAS   ................      0.00    0.24             0.00    1.71             0.00    0.70
     3  FOCKY   ................      0.07   47.37             0.00    4.57             0.07   32.23
     3  FOCKTR  ................      0.00    0.24             0.00    0.57             0.00    0.22
     3  FOCKNM  ................      0.00    0.00             0.00    0.00             0.00    0.02
     3  SDIIS   ................      0.00    0.24             0.00    0.00             0.00    0.70
     3  EMERGE  ................      0.00    0.48             0.00    1.14             0.00    1.22
     1  COREPS  ................      0.02    4.31             0.00    0.57             0.02    3.10
     1  POPAN   ................      0.00    0.48             0.00    1.14             0.00    0.54
     1  DEBYE   ................      0.00    0.00             0.00    0.00             0.00    0.21
     1  EXIT PROCEDURE .........      0.02    5.74             0.00    2.86             0.03    5.19


 Currently Open Files (EXIT00)
 ====================

 Unit    Access Format  Status   Type       Ident (file)
 -------------------------------------------------------
   3      SEQ    FORM   TRANSP  NORMAL      LOGFILE
                                          ( logfile )


 Buffered I/O statistics
 =======================
 Memory available:                     67108864
 Number of records fitting in memory:     16131
 Input :   2.1% of                         1145  *4k bytes
 Output:  13.5% of                          916  *4k bytes
 Records from serial files evicted:           0
                    others evicted:           0
 Hash table lookups:       5619 with          0 conflicts (  0.00%)

 ***************************************************************************************************
 (LOGFILE)
 <Oct06-2014> <23:03:08>  ADF 2014  RunTime: Oct06-2014 23:03:08  Nodes: 1  Procs: 1
 <Oct06-2014> <23:03:08>  Hydrogen (SZ)
 <Oct06-2014> <23:03:08>  RunType   : CREATE
 <Oct06-2014> <23:03:08>  Net Charge: 0 (Nuclei minus Electrons)
 <Oct06-2014> <23:03:08>  Symmetry  : ATOM
  Coordinates
    Atom         X           Y           Z   (Angstrom)
    1.H         0.000000    0.000000    0.000000
 <Oct06-2014> <23:03:09>  >>>> CORORT
 <Oct06-2014> <23:03:09>  >>>> CLSMAT
 <Oct06-2014> <23:03:09>  >>>> ORTHON
 <Oct06-2014> <23:03:09>  >>>> GENPT
 <Oct06-2014> <23:03:09>  Block Length=  64
 <Oct06-2014> <23:03:09>  >>>> PTBAS
 <Oct06-2014> <23:03:09>  >>>> CYCLE
 <Oct06-2014> <23:03:09>    1
 <Oct06-2014> <23:03:09>    2  ErrMat   0.00000000  MaxEl  0.00000000
 <Oct06-2014> <23:03:09>  SCF converged
 <Oct06-2014> <23:03:09>    3  ErrMat   0.00000000  MaxEl  0.00000000
 <Oct06-2014> <23:03:09>   Solutions with partially occupied orbitals may not be
 <Oct06-2014> <23:03:09>   lowest in energy. You might consider lowering the
 <Oct06-2014> <23:03:09>   symmetry in the input and explicitly specifying integer
 <Oct06-2014> <23:03:09>   occupations. In that case always check that you obtain
 <Oct06-2014> <23:03:09>   an aufbau solution.
 <Oct06-2014> <23:03:09>  >>>> POPAN
 <Oct06-2014> <23:03:09>  >>>> DEBYE
 <Oct06-2014> <23:03:09>  NORMAL TERMINATION
 <Oct06-2014> <23:03:09>  END
 <Oct06-2014> <23:03:09>  ADF 2014  RunTime: Oct06-2014 23:03:09  Nodes: 1  Procs: 1
 <Oct06-2014> <23:03:10>  Carbon (SZ)
 <Oct06-2014> <23:03:10>  RunType   : CREATE
 <Oct06-2014> <23:03:10>  Net Charge: 0 (Nuclei minus Electrons)
 <Oct06-2014> <23:03:10>  Symmetry  : ATOM
  Coordinates
    Atom         X           Y           Z   (Angstrom)
    1.C         0.000000    0.000000    0.000000
 <Oct06-2014> <23:03:10>  >>>> CORORT
 <Oct06-2014> <23:03:10>  >>>> CLSMAT
 <Oct06-2014> <23:03:10>  >>>> ORTHON
 <Oct06-2014> <23:03:10>  >>>> GENPT
 <Oct06-2014> <23:03:10>  Block Length=  68
 <Oct06-2014> <23:03:10>  >>>> PTBAS
 <Oct06-2014> <23:03:10>  >>>> CYCLE
 <Oct06-2014> <23:03:10>    1
 <Oct06-2014> <23:03:10>    2  ErrMat   0.00000000  MaxEl  0.00000000
 <Oct06-2014> <23:03:10>  SCF converged
 <Oct06-2014> <23:03:10>    3  ErrMat   0.00000000  MaxEl  0.00000000
 <Oct06-2014> <23:03:10>   Solutions with partially occupied orbitals may not be
 <Oct06-2014> <23:03:10>   lowest in energy. You might consider lowering the
 <Oct06-2014> <23:03:10>   symmetry in the input and explicitly specifying integer
 <Oct06-2014> <23:03:10>   occupations. In that case always check that you obtain
 <Oct06-2014> <23:03:10>   an aufbau solution.
 <Oct06-2014> <23:03:10>  >>>> POPAN
 <Oct06-2014> <23:03:10>  >>>> DEBYE
 <Oct06-2014> <23:03:10>  NORMAL TERMINATION
 <Oct06-2014> <23:03:10>  END
 <Oct06-2014> <23:03:10>  ADF 2014  RunTime: Oct06-2014 23:03:10  Nodes: 1  Procs: 1
 <Oct06-2014> <23:03:10>  1,4-divinyl-benzene, SZ, BLYP
 <Oct06-2014> <23:03:10>  RunType   : GEOMETRY OPTIMIZATION
 <Oct06-2014> <23:03:10>  ERROR DETECTED: UNRECOGNIZED SPECIFICATION IN SCF BLOCK
 <Oct06-2014> <23:03:10>  END
 <Oct06-2014> <23:06:56>  ADF 2014  RunTime: Oct06-2014 23:06:56  Nodes: 1  Procs: 1
 <Oct06-2014> <23:06:57>  Hydrogen (SZ)
 <Oct06-2014> <23:06:57>  RunType   : CREATE
 <Oct06-2014> <23:06:57>  Net Charge: 0 (Nuclei minus Electrons)
 <Oct06-2014> <23:06:57>  Symmetry  : ATOM
  Coordinates
    Atom         X           Y           Z   (Angstrom)
    1.H         0.000000    0.000000    0.000000
 <Oct06-2014> <23:06:57>  >>>> CORORT
 <Oct06-2014> <23:06:57>  >>>> CLSMAT
 <Oct06-2014> <23:06:57>  >>>> ORTHON
 <Oct06-2014> <23:06:57>  >>>> GENPT
 <Oct06-2014> <23:06:57>  Block Length=  64
 <Oct06-2014> <23:06:57>  >>>> PTBAS
 <Oct06-2014> <23:06:57>  >>>> CYCLE
 <Oct06-2014> <23:06:58>    1
 <Oct06-2014> <23:06:58>    2  ErrMat   0.00000000  MaxEl  0.00000000
 <Oct06-2014> <23:06:58>  SCF converged
 <Oct06-2014> <23:06:58>    3  ErrMat   0.00000000  MaxEl  0.00000000
 <Oct06-2014> <23:06:58>   Solutions with partially occupied orbitals may not be
 <Oct06-2014> <23:06:58>   lowest in energy. You might consider lowering the
 <Oct06-2014> <23:06:58>   symmetry in the input and explicitly specifying integer
 <Oct06-2014> <23:06:58>   occupations. In that case always check that you obtain
 <Oct06-2014> <23:06:58>   an aufbau solution.
 <Oct06-2014> <23:06:58>  >>>> POPAN
 <Oct06-2014> <23:06:58>  >>>> DEBYE
 <Oct06-2014> <23:06:58>  NORMAL TERMINATION
 <Oct06-2014> <23:06:58>  END
 <Oct06-2014> <23:06:58>  ADF 2014  RunTime: Oct06-2014 23:06:58  Nodes: 1  Procs: 1
 <Oct06-2014> <23:06:58>  Carbon (SZ)
 <Oct06-2014> <23:06:58>  RunType   : CREATE
 <Oct06-2014> <23:06:58>  Net Charge: 0 (Nuclei minus Electrons)
 <Oct06-2014> <23:06:58>  Symmetry  : ATOM
  Coordinates
    Atom         X           Y           Z   (Angstrom)
    1.C         0.000000    0.000000    0.000000
 <Oct06-2014> <23:06:58>  >>>> CORORT
 <Oct06-2014> <23:06:58>  >>>> CLSMAT
 <Oct06-2014> <23:06:58>  >>>> ORTHON
 <Oct06-2014> <23:06:58>  >>>> GENPT
 <Oct06-2014> <23:06:58>  Block Length=  68
 <Oct06-2014> <23:06:58>  >>>> PTBAS
 <Oct06-2014> <23:06:58>  >>>> CYCLE
 <Oct06-2014> <23:06:59>    1
 <Oct06-2014> <23:06:59>    2  ErrMat   0.00000000  MaxEl  0.00000000
 <Oct06-2014> <23:06:59>  SCF converged
 <Oct06-2014> <23:06:59>    3  ErrMat   0.00000000  MaxEl  0.00000000
 <Oct06-2014> <23:06:59>   Solutions with partially occupied orbitals may not be
 <Oct06-2014> <23:06:59>   lowest in energy. You might consider lowering the
 <Oct06-2014> <23:06:59>   symmetry in the input and explicitly specifying integer
 <Oct06-2014> <23:06:59>   occupations. In that case always check that you obtain
 <Oct06-2014> <23:06:59>   an aufbau solution.
 <Oct06-2014> <23:06:59>  >>>> POPAN
 <Oct06-2014> <23:06:59>  >>>> DEBYE
 <Oct06-2014> <23:06:59>  NORMAL TERMINATION
 <Oct06-2014> <23:06:59>  END
 <Oct06-2014> <23:06:59>  ADF 2014  RunTime: Oct06-2014 23:06:59  Nodes: 1  Procs: 1
 <Oct06-2014> <23:06:59>  1,4-divinyl-benzene, SZ, BLYP
 <Oct06-2014> <23:06:59>  RunType   : GEOMETRY OPTIMIZATION
 <Oct06-2014> <23:06:59>  ERROR DETECTED: UNRECOGNIZED SPECIFICATION IN GEOMETRY BLOCK
 <Oct06-2014> <23:06:59>  END
 <Oct06-2014> <23:08:19>  ADF 2014  RunTime: Oct06-2014 23:08:19  Nodes: 1  Procs: 1
 <Oct06-2014> <23:08:19>  Hydrogen (SZ)
 <Oct06-2014> <23:08:20>  RunType   : CREATE
 <Oct06-2014> <23:08:20>  Net Charge: 0 (Nuclei minus Electrons)
 <Oct06-2014> <23:08:20>  Symmetry  : ATOM
  Coordinates
    Atom         X           Y           Z   (Angstrom)
    1.H         0.000000    0.000000    0.000000
 <Oct06-2014> <23:08:20>  >>>> CORORT
 <Oct06-2014> <23:08:20>  >>>> CLSMAT
 <Oct06-2014> <23:08:20>  >>>> ORTHON
 <Oct06-2014> <23:08:20>  >>>> GENPT
 <Oct06-2014> <23:08:20>  Block Length=  64
 <Oct06-2014> <23:08:20>  >>>> PTBAS
 <Oct06-2014> <23:08:20>  >>>> CYCLE
 <Oct06-2014> <23:08:20>    1
 <Oct06-2014> <23:08:20>    2  ErrMat   0.00000000  MaxEl  0.00000000
 <Oct06-2014> <23:08:20>  SCF converged
 <Oct06-2014> <23:08:20>    3  ErrMat   0.00000000  MaxEl  0.00000000
 <Oct06-2014> <23:08:20>   Solutions with partially occupied orbitals may not be
 <Oct06-2014> <23:08:20>   lowest in energy. You might consider lowering the
 <Oct06-2014> <23:08:20>   symmetry in the input and explicitly specifying integer
 <Oct06-2014> <23:08:20>   occupations. In that case always check that you obtain
 <Oct06-2014> <23:08:20>   an aufbau solution.
 <Oct06-2014> <23:08:20>  >>>> POPAN
 <Oct06-2014> <23:08:20>  >>>> DEBYE
 <Oct06-2014> <23:08:20>  NORMAL TERMINATION
 <Oct06-2014> <23:08:20>  END

Create C   file=/usr/local/adf/adf2014.01/atomicdata/SZ/C
XC
 GGA Blyp
End
End Input

 *******************************************************************************
 *                                                                             *
 *  -------------------------------------                                      *
 *   Amsterdam Density Functional  (ADF)         2014                          *
 *  -------------------------------------                                      *
 *                                               r43610 2014-09-09             *
 *                                                                             *
 *                                                                             *
 *                              =================                              *
 *                              |               |                              *
 *                              |     A D F     |                              *
 *                              |               |                              *
 *                              =================                              *
 *                                                                             *
 *                                                                             *
 *   Online information and documentation:  http://www.scm.com                 *
 *   E-mail:  support@scm.com   info@scm.com                                   *
 *                                                                             *
 *   Scientific publications using ADF results must be properly referenced     *
 *   See the User Manuals (or the web site) for recommended citations          *
 *   The terms and conditions of the End User License Agreement apply to       *
 *   the use of ADF, http://www.scm.com/Sales/LicAgreement.html                *
 *                                                                             *
 **********************  x86_64_linux_intel / intelmpi  ************************
 
 Licensed to: Mr. Jerzy Pankiewicz / WCSS Politechnika Wroclawska / Wroclaw / POLAND
 SCM User ID: u8120
  
 ADF 2014  RunTime: Oct06-2014 23:08:20  Nodes: 1  Procs: 1

 Temporary files are created in /lustre/scratch/tmp/pbs.8163432.nova/kid_0.8PA9Ks

 Carbon (SZ)



 ===========================
 A T T A C H E D   F I L E S
 ===========================
  
 CREATE - Data File:    /usr/local/adf/adf2014.01/atomicdata/SZ/C
                        Carbon (SZ)



 ===============================
 M O D E L   P A R A M E T E R S
 ===============================
  
 DENSITY FUNCTIONAL POTENTIAL (scf)
    LDA:                               Exchange only                           == Not Default ==
    Gradient Corrections:              Becke88 LYP                             == Not Default ==

 SPIN  (restricted / unrestr.)
    Molecule:                          Restricted                               

 OTHER ASPECTS
    Relativistic Corrections:          ---                                      

    Nuclear Charge Density Model:      Point Charge Nuclei                                                                                                                                                                                     
    Core Treatment:                    Frozen Orbital(s)                        

    Hyperfine or Zeeman Interaction:   ---                                      



 =====================================
 S Y M M E T R Y ,   E L E C T R O N S
 =====================================
  
 Symmetry: ATOM

 Irreducible Representations, including subspecies
 -------------------------------------------------
 S
 P:x  P:y  P:z
 D:z2  D:x2-y2  D:xy  D:xz  D:yz
 F:z3  F:z  F:xyz  F:z2x  F:z2y  F:x  F:y


 Configuration of Valence Electrons
 ==================================

          Occupation Numbers
          -------------------------------------------------
 S        2*2
 P        2
 D        0
 F        0
          -------------------------------------------------

 Total:   6

 Net Charge: 0 (Nuclei minus Electrons)

 Preset values for MO occupations will be applied through SCF cycle no. 1000000
 Thereafter, the program will assign electrons to MOs that are spatially
 similar to the occupied MOs in a "reference" cycle ("KeepOrbitals").
 The reference cycle is always the PREVIOUS cycle: it will evolve with
 the SCF procedure.



 ================================
 (Slater-type)  F U N C T I O N S  ***  (Basis and Fit)  ***
 ================================
  

 Atom Type    1  (C)
 ==============

 Valence Basis Sets:   3
 -----------------------
   1 S    5.670000
   2 S    1.720000
   2 P    1.720000


 BAS: List of all Elementary Cartesian Basis Functions
 =====================================================

 The numbering in the list below (to the right of the function characteristics) is referred
 to in print-outs of MO eigenvectors and Mulliken populations in the BAS representation
 (as contrasted to the SFO representation).

 Notes:
 1. The functions are characterized by a polynomial prefactor (powers of x,y,z and r) and
    an exponential decay factor alpha.
 2. Since the basis sets are specific for an atom TYPE, the individual functions occur on
    all atoms of that type.
 3. The word 'Core' in the left margin signals that it is a Core Function (CF) : not a
    degree of freedom in the valence set, but only used to ensure orthogonalization of
    the other valence basis functions on the frozen Core Orbitals.


 (power of) X  Y  Z  R     Alpha  on Atom
            ==========     =====     ==========

 C                                    1
                                  ---------------------------------------------------------------------------
            0  0  0  0     5.670      1
            0  0  0  1     1.720      2
            1  0  0  0     1.720      3
            0  1  0  0     1.720      4
            0  0  1  0     1.720      5

 Total number of charge fitting functions (nprimf)        84
 Total number of Cartesian basis functions (naos)          5
 Total number of Cartesian core functions  (ncos)          0



 BAS: List of all Elementary Cartesian Basis Functions
 =====================================================

 The numbering in the list below (to the right of the function characteristics) is referred
 to in print-outs of MO eigenvectors and Mulliken populations in the BAS representation
 (as contrasted to the SFO representation).

 Notes:
 1. The functions are characterized by a polynomial prefactor (powers of x,y,z and r) and
    an exponential decay factor alpha.
 2. Since the basis sets are specific for an atom TYPE, the individual functions occur on
    all atoms of that type.
 3. The word 'Core' in the left margin signals that it is a Core Function (CF) : not a
    degree of freedom in the valence set, but only used to ensure orthogonalization of
    the other valence basis functions on the frozen Core Orbitals.


 (power of) X  Y  Z  R     Alpha  on Atom
            ==========     =====     ==========

 C                                    1
                                  ---------------------------------------------------------------------------
            0  0  0  0     5.670      1
            0  0  0  1     1.720      2
            1  0  0  0     1.720      3
            0  1  0  0     1.720      4
            0  0  1  0     1.720      5
1
 ***************************************************************************************************



                                              ***********************
                                              *  T E C H N I C A L  *
                                              ***********************
  



 =============================================================
 P A R A L L E L I Z A T I O N  and  V E C T O R I Z A T I O N
 =============================================================
  
 Nr of parallel processes:                                1
 Maximum vector length in NumInt loops:                 128



 ===============
 I O  vs.  C P U  ***  (store numerical data on disk or recalculate)  ***
 ===============
  
 Basis functions:   recalculate when needed
 Fit functions:     recalculate when needed

 IO buffersize (Mb):                                     64.000000



 =====================
 S C F   U P D A T E S
 =====================
  
 Max. nr. of cycles:                               300
 Convergence criterion:                              0.0000000100
   secondary criterion:                              0.0000000100

 Mix parameter (when DIIS does not apply):           0.2000000000
 Special mix parameter for the first cycle:          1.0000000000


 DIIS (Direct Inversion in Iteration Space)
    Replace damping when SCF Error is below:         0.5000000000
    Apply anyway after SCF cycle:
                                                     5
    (Max.) nr. of expansion vectors:                10

    Upperbound on expansion coefficients:            5.0000000000
    (when exceeded, IterationSpace is re-built)
    2nd Upperbound on coefficients:                 25.0000000000
    (when exceeded, simple damping will be used)
 Automatic ElectronSmearing (in case of problematic SCF convergence) disabled



 =================
 P R E C I S I O N  ***  (General: NumInt, NeglectFunctionTails, ...)  ***
 =================
  

 NumInt:           Target precision:                10.0000000000
 -------           Initial precision:               10.0000000000
                   Min. precision (optimization):   10.0000000000

 Neglect Functions:          Basis functions:        0.1000000000E-11
 ------------------          Fit functions:          0.1000000000E-11



 ===========================
 L I N E A R   S C A L I N G
 ===========================
  

 Cut-off radii density fit:                        0.1000000000E-13
 Overlap cut-off criterion AO matrix elements:     0.1000000000E-11
 Cut-offs for Coulomb potential and fitted density:0.1000000000E-13
 Cut-off criterion for Coulomb multipole terms:    0.1000000000E-13
 Progressive Convergence parameter:                 0.000000000    
1
 ***************************************************************************************************



                                            ***************************
                                            *  C O M P U T A T I O N  *
                                            ***************************
  

 Number of elements of the density matrix on this node (used, total):        15        15



 ===========================================
 Numerical Integration : Fuzzy Cells (Becke)
 ===========================================
  
 Becke grid quality: VERYGOOD       
  
 Lebedev angular grid order:             min:  13 max:  41
 Nr. of radial points:                   min:  68 max:  68

 Total nr. of points:         68
 Nr. of blocks:                1
 Block length:                68
 Nr. of dummy points:          0


 Test of Precision of the Numerical Integration Grid
 ===================================================

 Integral of the Total Core Density:                   0.00000000000000



 ========================
 Density Fitting (zlmFit)
 ========================
  
 ZlmFit Fit Quality: VERYGOOD       
  
 Max L-expansion:                        min:   0 max:   0
 Nr. of radial interpolation points:     min: 150 max: 150



 =====
 S C F
 =====
  

 CYCLE    1
 orbitals (Q,E):
 ---------------
 S :1...2            ( 2.00   -17.9506)  ( 2.00    -3.9591)
 P :1...1            ( 2.00    -3.6808)

 CYCLE    2
 d-Pmat  mean:  0.27E-15
 imax=      1:  0.89E-15
 orbitals (Q,E):
 ---------------
 S :1...2            ( 2.00    -9.7600)  ( 2.00    -0.3635)
 P :1...1            ( 2.00    -0.0242)

 SCF CONVERGED

 CYCLE    3
1
 ***************************************************************************************************



                                                *******************
                                                *  R E S U L T S  *
                                                *******************
  
 *** Setting up for NEW gradients in focky
 *** Using FIT density in focky

 Orbital Energies, per Irrep and Spin:
 ======================================
                        Occup              E (au)              E (eV)       Diff (eV) with prev. cycle
                        -----      --------------------        ------       --------------------------
 S
               1        2.000     -0.97599634748471E+01      -265.582              -2.90E-13
               2        2.000     -0.36346617678913E+00        -9.890              -4.11E-13
 P
               1        2.000     -0.24201498032656E-01        -0.659              -4.09E-13


 Partially Occupied:
               1 P                -0.24201498032656E-01
  
 HOMO :        2 S                -0.36346617678913E+00
  


 Orbital Energies, all Irreps
 ========================================

 Irrep        no.  (spin)   Occup              E (au)                E (eV)
 ---------------------------------------------------------------------------
 S             1             2.00       -0.97599634748471E+01      -265.5821
 S             2             2.00       -0.36346617678913E+00        -9.8904
 P             1             2.00       -0.24201498032656E-01        -0.6586


 All Electron Calculation, thus no Orbital Energies of the Core Orbitals are calculated



 =======================================
 M U L L I K E N   P O P U L A T I O N S
 =======================================
  
 The survey below gives for each atom:
 a) the total charge (Z minus electrons)
 b) the net spin polarization (nr of electrons spin-A minus spin-B)
 c) for each spin the atomic electron valence density (integrated) per L-value.

 Atom              Charge    Spin density          S         P         D         F
 ----              ------    ------------       ------    ------    ------    ------
 1 C               0.0000                       4.0000    2.0000    0.0000    0.0000

 Populations of individual BAS functions
 ----------------------------------------
 1 C            2.0000  2.0000  0.6667  0.6667  0.6667

 Gross Charges per Atom (Z minus electrons)
 ==========================================
             0.0000
 Net Total:  0.00000000



 ========================================================================
 Electrostatic potential at the Nuclei due to  electrons and other nuclei
 ========================================================================
  
         Atom                  Potential
         ----                  ---------
     1)   C                  14.98185037
 
 
 ========================
 No memory problems found
 ========================
 
 Maximum number of active allocate calls:         313
 
 *******************************************************************************

                             A D F   E X I T
 NORMAL TERMINATION



 =================
 Timing Statistics
 =================
  
 Total Used :                     CPU=        0.48      System=        0.15     Elapsed=        0.85

 Calls  Section                     ( Mean, Percentage )
 ---------------------------------------------------------------------------------------------------
     3  ><      ................      0.00    0.00             0.00    0.68             0.00    0.52
     1  INIT    ................      0.01    2.51             0.07   44.90             0.09   10.94
     1  GEOMET  ................      0.05   10.88             0.03   18.37             0.09   10.41
     1  INPUTA  ................      0.00    0.42             0.00    0.68             0.00    0.33
     1  MAINSY  ................      0.01    1.46             0.00    2.04             0.01    1.72
     1  SYMFIT  ................      0.00    0.00             0.00    0.00             0.00    0.08
     1  CORORT  ................      0.00    0.00             0.00    0.68             0.00    0.20
     1  SYMORB  ................      0.00    0.21             0.00    0.68             0.00    0.19
     1  CLSMAT  ................      0.00    0.63             0.00    1.36             0.01    0.70
     1  ORTHON  ................      0.00    0.21             0.00    0.00             0.00    0.29
     1  GENPT   ................      0.08   15.90             0.02   12.93             0.10   11.54
     1  PTBAS   ................      0.00    0.42             0.00    1.36             0.00    0.56
     3  FOCKY   ................      0.09   55.86             0.00    5.44             0.10   33.46
     3  FOCKTR  ................      0.00    0.00             0.00    2.04             0.00    0.17
     3  FOCKNM  ................      0.00    0.00             0.00    0.00             0.00    0.01
     3  SDIIS   ................      0.00    0.00             0.00    1.36             0.05   19.01
     3  EMERGE  ................      0.00    1.05             0.00    2.04             0.00    1.59
     1  COREPS  ................      0.02    4.60             0.00    1.36             0.03    3.05
     1  POPAN   ................      0.00    0.42             0.00    0.68             0.01    1.05
     1  DEBYE   ................      0.00    0.21             0.00    0.00             0.00    0.16
     1  EXIT PROCEDURE .........      0.02    5.23             0.00    3.40             0.03    4.02


 Currently Open Files (EXIT00)
 ====================

 Unit    Access Format  Status   Type       Ident (file)
 -------------------------------------------------------
   3      SEQ    FORM   TRANSP  NORMAL      LOGFILE
                                          ( logfile )


 Buffered I/O statistics
 =======================
 Memory available:                     67108864
 Number of records fitting in memory:     16131
 Input :   1.7% of                         1403  *4k bytes
 Output:  12.8% of                         1059  *4k bytes
 Records from serial files evicted:           0
                    others evicted:           0
 Hash table lookups:       6772 with          0 conflicts (  0.00%)

 ***************************************************************************************************
 (LOGFILE)
 <Oct06-2014> <23:03:08>  ADF 2014  RunTime: Oct06-2014 23:03:08  Nodes: 1  Procs: 1
 <Oct06-2014> <23:03:08>  Hydrogen (SZ)
 <Oct06-2014> <23:03:08>  RunType   : CREATE
 <Oct06-2014> <23:03:08>  Net Charge: 0 (Nuclei minus Electrons)
 <Oct06-2014> <23:03:08>  Symmetry  : ATOM
  Coordinates
    Atom         X           Y           Z   (Angstrom)
    1.H         0.000000    0.000000    0.000000
 <Oct06-2014> <23:03:09>  >>>> CORORT
 <Oct06-2014> <23:03:09>  >>>> CLSMAT
 <Oct06-2014> <23:03:09>  >>>> ORTHON
 <Oct06-2014> <23:03:09>  >>>> GENPT
 <Oct06-2014> <23:03:09>  Block Length=  64
 <Oct06-2014> <23:03:09>  >>>> PTBAS
 <Oct06-2014> <23:03:09>  >>>> CYCLE
 <Oct06-2014> <23:03:09>    1
 <Oct06-2014> <23:03:09>    2  ErrMat   0.00000000  MaxEl  0.00000000
 <Oct06-2014> <23:03:09>  SCF converged
 <Oct06-2014> <23:03:09>    3  ErrMat   0.00000000  MaxEl  0.00000000
 <Oct06-2014> <23:03:09>   Solutions with partially occupied orbitals may not be
 <Oct06-2014> <23:03:09>   lowest in energy. You might consider lowering the
 <Oct06-2014> <23:03:09>   symmetry in the input and explicitly specifying integer
 <Oct06-2014> <23:03:09>   occupations. In that case always check that you obtain
 <Oct06-2014> <23:03:09>   an aufbau solution.
 <Oct06-2014> <23:03:09>  >>>> POPAN
 <Oct06-2014> <23:03:09>  >>>> DEBYE
 <Oct06-2014> <23:03:09>  NORMAL TERMINATION
 <Oct06-2014> <23:03:09>  END
 <Oct06-2014> <23:03:09>  ADF 2014  RunTime: Oct06-2014 23:03:09  Nodes: 1  Procs: 1
 <Oct06-2014> <23:03:10>  Carbon (SZ)
 <Oct06-2014> <23:03:10>  RunType   : CREATE
 <Oct06-2014> <23:03:10>  Net Charge: 0 (Nuclei minus Electrons)
 <Oct06-2014> <23:03:10>  Symmetry  : ATOM
  Coordinates
    Atom         X           Y           Z   (Angstrom)
    1.C         0.000000    0.000000    0.000000
 <Oct06-2014> <23:03:10>  >>>> CORORT
 <Oct06-2014> <23:03:10>  >>>> CLSMAT
 <Oct06-2014> <23:03:10>  >>>> ORTHON
 <Oct06-2014> <23:03:10>  >>>> GENPT
 <Oct06-2014> <23:03:10>  Block Length=  68
 <Oct06-2014> <23:03:10>  >>>> PTBAS
 <Oct06-2014> <23:03:10>  >>>> CYCLE
 <Oct06-2014> <23:03:10>    1
 <Oct06-2014> <23:03:10>    2  ErrMat   0.00000000  MaxEl  0.00000000
 <Oct06-2014> <23:03:10>  SCF converged
 <Oct06-2014> <23:03:10>    3  ErrMat   0.00000000  MaxEl  0.00000000
 <Oct06-2014> <23:03:10>   Solutions with partially occupied orbitals may not be
 <Oct06-2014> <23:03:10>   lowest in energy. You might consider lowering the
 <Oct06-2014> <23:03:10>   symmetry in the input and explicitly specifying integer
 <Oct06-2014> <23:03:10>   occupations. In that case always check that you obtain
 <Oct06-2014> <23:03:10>   an aufbau solution.
 <Oct06-2014> <23:03:10>  >>>> POPAN
 <Oct06-2014> <23:03:10>  >>>> DEBYE
 <Oct06-2014> <23:03:10>  NORMAL TERMINATION
 <Oct06-2014> <23:03:10>  END
 <Oct06-2014> <23:03:10>  ADF 2014  RunTime: Oct06-2014 23:03:10  Nodes: 1  Procs: 1
 <Oct06-2014> <23:03:10>  1,4-divinyl-benzene, SZ, BLYP
 <Oct06-2014> <23:03:10>  RunType   : GEOMETRY OPTIMIZATION
 <Oct06-2014> <23:03:10>  ERROR DETECTED: UNRECOGNIZED SPECIFICATION IN SCF BLOCK
 <Oct06-2014> <23:03:10>  END
 <Oct06-2014> <23:06:56>  ADF 2014  RunTime: Oct06-2014 23:06:56  Nodes: 1  Procs: 1
 <Oct06-2014> <23:06:57>  Hydrogen (SZ)
 <Oct06-2014> <23:06:57>  RunType   : CREATE
 <Oct06-2014> <23:06:57>  Net Charge: 0 (Nuclei minus Electrons)
 <Oct06-2014> <23:06:57>  Symmetry  : ATOM
  Coordinates
    Atom         X           Y           Z   (Angstrom)
    1.H         0.000000    0.000000    0.000000
 <Oct06-2014> <23:06:57>  >>>> CORORT
 <Oct06-2014> <23:06:57>  >>>> CLSMAT
 <Oct06-2014> <23:06:57>  >>>> ORTHON
 <Oct06-2014> <23:06:57>  >>>> GENPT
 <Oct06-2014> <23:06:57>  Block Length=  64
 <Oct06-2014> <23:06:57>  >>>> PTBAS
 <Oct06-2014> <23:06:57>  >>>> CYCLE
 <Oct06-2014> <23:06:58>    1
 <Oct06-2014> <23:06:58>    2  ErrMat   0.00000000  MaxEl  0.00000000
 <Oct06-2014> <23:06:58>  SCF converged
 <Oct06-2014> <23:06:58>    3  ErrMat   0.00000000  MaxEl  0.00000000
 <Oct06-2014> <23:06:58>   Solutions with partially occupied orbitals may not be
 <Oct06-2014> <23:06:58>   lowest in energy. You might consider lowering the
 <Oct06-2014> <23:06:58>   symmetry in the input and explicitly specifying integer
 <Oct06-2014> <23:06:58>   occupations. In that case always check that you obtain
 <Oct06-2014> <23:06:58>   an aufbau solution.
 <Oct06-2014> <23:06:58>  >>>> POPAN
 <Oct06-2014> <23:06:58>  >>>> DEBYE
 <Oct06-2014> <23:06:58>  NORMAL TERMINATION
 <Oct06-2014> <23:06:58>  END
 <Oct06-2014> <23:06:58>  ADF 2014  RunTime: Oct06-2014 23:06:58  Nodes: 1  Procs: 1
 <Oct06-2014> <23:06:58>  Carbon (SZ)
 <Oct06-2014> <23:06:58>  RunType   : CREATE
 <Oct06-2014> <23:06:58>  Net Charge: 0 (Nuclei minus Electrons)
 <Oct06-2014> <23:06:58>  Symmetry  : ATOM
  Coordinates
    Atom         X           Y           Z   (Angstrom)
    1.C         0.000000    0.000000    0.000000
 <Oct06-2014> <23:06:58>  >>>> CORORT
 <Oct06-2014> <23:06:58>  >>>> CLSMAT
 <Oct06-2014> <23:06:58>  >>>> ORTHON
 <Oct06-2014> <23:06:58>  >>>> GENPT
 <Oct06-2014> <23:06:58>  Block Length=  68
 <Oct06-2014> <23:06:58>  >>>> PTBAS
 <Oct06-2014> <23:06:58>  >>>> CYCLE
 <Oct06-2014> <23:06:59>    1
 <Oct06-2014> <23:06:59>    2  ErrMat   0.00000000  MaxEl  0.00000000
 <Oct06-2014> <23:06:59>  SCF converged
 <Oct06-2014> <23:06:59>    3  ErrMat   0.00000000  MaxEl  0.00000000
 <Oct06-2014> <23:06:59>   Solutions with partially occupied orbitals may not be
 <Oct06-2014> <23:06:59>   lowest in energy. You might consider lowering the
 <Oct06-2014> <23:06:59>   symmetry in the input and explicitly specifying integer
 <Oct06-2014> <23:06:59>   occupations. In that case always check that you obtain
 <Oct06-2014> <23:06:59>   an aufbau solution.
 <Oct06-2014> <23:06:59>  >>>> POPAN
 <Oct06-2014> <23:06:59>  >>>> DEBYE
 <Oct06-2014> <23:06:59>  NORMAL TERMINATION
 <Oct06-2014> <23:06:59>  END
 <Oct06-2014> <23:06:59>  ADF 2014  RunTime: Oct06-2014 23:06:59  Nodes: 1  Procs: 1
 <Oct06-2014> <23:06:59>  1,4-divinyl-benzene, SZ, BLYP
 <Oct06-2014> <23:06:59>  RunType   : GEOMETRY OPTIMIZATION
 <Oct06-2014> <23:06:59>  ERROR DETECTED: UNRECOGNIZED SPECIFICATION IN GEOMETRY BLOCK
 <Oct06-2014> <23:06:59>  END
 <Oct06-2014> <23:08:19>  ADF 2014  RunTime: Oct06-2014 23:08:19  Nodes: 1  Procs: 1
 <Oct06-2014> <23:08:19>  Hydrogen (SZ)
 <Oct06-2014> <23:08:20>  RunType   : CREATE
 <Oct06-2014> <23:08:20>  Net Charge: 0 (Nuclei minus Electrons)
 <Oct06-2014> <23:08:20>  Symmetry  : ATOM
  Coordinates
    Atom         X           Y           Z   (Angstrom)
    1.H         0.000000    0.000000    0.000000
 <Oct06-2014> <23:08:20>  >>>> CORORT
 <Oct06-2014> <23:08:20>  >>>> CLSMAT
 <Oct06-2014> <23:08:20>  >>>> ORTHON
 <Oct06-2014> <23:08:20>  >>>> GENPT
 <Oct06-2014> <23:08:20>  Block Length=  64
 <Oct06-2014> <23:08:20>  >>>> PTBAS
 <Oct06-2014> <23:08:20>  >>>> CYCLE
 <Oct06-2014> <23:08:20>    1
 <Oct06-2014> <23:08:20>    2  ErrMat   0.00000000  MaxEl  0.00000000
 <Oct06-2014> <23:08:20>  SCF converged
 <Oct06-2014> <23:08:20>    3  ErrMat   0.00000000  MaxEl  0.00000000
 <Oct06-2014> <23:08:20>   Solutions with partially occupied orbitals may not be
 <Oct06-2014> <23:08:20>   lowest in energy. You might consider lowering the
 <Oct06-2014> <23:08:20>   symmetry in the input and explicitly specifying integer
 <Oct06-2014> <23:08:20>   occupations. In that case always check that you obtain
 <Oct06-2014> <23:08:20>   an aufbau solution.
 <Oct06-2014> <23:08:20>  >>>> POPAN
 <Oct06-2014> <23:08:20>  >>>> DEBYE
 <Oct06-2014> <23:08:20>  NORMAL TERMINATION
 <Oct06-2014> <23:08:20>  END
 <Oct06-2014> <23:08:20>  ADF 2014  RunTime: Oct06-2014 23:08:20  Nodes: 1  Procs: 1
 <Oct06-2014> <23:08:20>  Carbon (SZ)
 <Oct06-2014> <23:08:20>  RunType   : CREATE
 <Oct06-2014> <23:08:20>  Net Charge: 0 (Nuclei minus Electrons)
 <Oct06-2014> <23:08:20>  Symmetry  : ATOM
  Coordinates
    Atom         X           Y           Z   (Angstrom)
    1.C         0.000000    0.000000    0.000000
 <Oct06-2014> <23:08:20>  >>>> CORORT
 <Oct06-2014> <23:08:20>  >>>> CLSMAT
 <Oct06-2014> <23:08:20>  >>>> ORTHON
 <Oct06-2014> <23:08:20>  >>>> GENPT
 <Oct06-2014> <23:08:20>  Block Length=  68
 <Oct06-2014> <23:08:20>  >>>> PTBAS
 <Oct06-2014> <23:08:20>  >>>> CYCLE
 <Oct06-2014> <23:08:21>    1
 <Oct06-2014> <23:08:21>    2  ErrMat   0.00000000  MaxEl  0.00000000
 <Oct06-2014> <23:08:21>  SCF converged
 <Oct06-2014> <23:08:21>    3  ErrMat   0.00000000  MaxEl  0.00000000
 <Oct06-2014> <23:08:21>   Solutions with partially occupied orbitals may not be
 <Oct06-2014> <23:08:21>   lowest in energy. You might consider lowering the
 <Oct06-2014> <23:08:21>   symmetry in the input and explicitly specifying integer
 <Oct06-2014> <23:08:21>   occupations. In that case always check that you obtain
 <Oct06-2014> <23:08:21>   an aufbau solution.
 <Oct06-2014> <23:08:21>  >>>> POPAN
 <Oct06-2014> <23:08:21>  >>>> DEBYE
 <Oct06-2014> <23:08:21>  NORMAL TERMINATION
 <Oct06-2014> <23:08:21>  END

title 1,4-divinyl-benzene, SZ, BLYP

charge 0 0
atoms
 C     0.000000     0.000000     0.000000
 C     0.000000     0.000000     1.391558
 C     1.199912     0.000000     2.091623
 C     2.381427     0.000000     1.405722
 C     2.381427     0.000000     0.014165
 H    -0.949187     0.000000     1.937349
 H     1.193861     0.000000     3.187592
 H     3.330614     0.000000    -0.531626
 C     3.669632     0.000000     2.146185
 C     4.871380     0.000000     1.546808
 H     4.930305     0.000000     0.444834
 H     3.585803     0.000000     3.241279
 H     5.787099     0.000000     2.100305
 C    -1.288205     0.000000    -0.740463
 H    -1.204377     0.000000    -1.835557
 C    -2.489953     0.000000    -0.141086
 H    -2.548878     0.000000     0.960888
 H    -3.405672     0.000000    -0.694583
 C     1.181515     0.000000    -0.685901
 H     1.187566     0.000000    -1.781870
end

XC
 GGA Blyp
end

EPrint
 SCF err1
 SFO eig ovl
End

fullscf

geometry
end

Fragments
H t21.H
C t21.C
End
end input

 *******************************************************************************
 *                                                                             *
 *  -------------------------------------                                      *
 *   Amsterdam Density Functional  (ADF)         2014                          *
 *  -------------------------------------                                      *
 *                                               r43610 2014-09-09             *
 *                                                                             *
 *                                                                             *
 *                              =================                              *
 *                              |               |                              *
 *                              |     A D F     |                              *
 *                              |               |                              *
 *                              =================                              *
 *                                                                             *
 *                                                                             *
 *   Online information and documentation:  http://www.scm.com                 *
 *   E-mail:  support@scm.com   info@scm.com                                   *
 *                                                                             *
 *   Scientific publications using ADF results must be properly referenced     *
 *   See the User Manuals (or the web site) for recommended citations          *
 *   The terms and conditions of the End User License Agreement apply to       *
 *   the use of ADF, http://www.scm.com/Sales/LicAgreement.html                *
 *                                                                             *
 **********************  x86_64_linux_intel / intelmpi  ************************
 
 Licensed to: Mr. Jerzy Pankiewicz / WCSS Politechnika Wroclawska / Wroclaw / POLAND
 SCM User ID: u8120
  
 ADF 2014  RunTime: Oct06-2014 23:08:21  Nodes: 1  Procs: 1

 Temporary files are created in /lustre/scratch/tmp/pbs.8163432.nova/kid_0.TRbJAn

 1,4-divinyl-benzene, SZ, BLYP



 ===========================
 A T T A C H E D   F I L E S
 ===========================
  



 ===============================
 M O D E L   P A R A M E T E R S
 ===============================
  
 DENSITY FUNCTIONAL POTENTIAL (scf)
    LDA:                               Exchange only                           == Not Default ==
    Gradient Corrections:              Becke88 LYP                             == Not Default ==

 SPIN  (restricted / unrestr.)
    Molecule:                          Restricted                               
    Fragments:                         Restricted                               

 OTHER ASPECTS
    Relativistic Corrections:          ---                                      

    Nuclear Charge Density Model:      Point Charge Nuclei                                                                                                                                                                                     
    Core Treatment:                    Frozen Orbital(s)                        

    Hyperfine or Zeeman Interaction:   ---                                      


 Fragment File(s)
 ----------------
 C:
         file : t21.C
         jobid: ADF 2014  RunTime: Oct06-2014 23:08:20  Nodes: 1  Procs: 1
         title: Carbon (SZ)
 H:
         file : t21.H
         jobid: ADF 2014  RunTime: Oct06-2014 23:08:19  Nodes: 1  Procs: 1
         title: Hydrogen (SZ)



                                   *********************************************
                                   *  R U N   T Y P E : GEOMETRY OPTIMIZATION  *
                                   *********************************************
  



 ===============
 G E O M E T R Y  ***  Planar Molecule  ***
 ===============
  

 ATOMS
 =====                            X Y Z                    CHARGE
                                (Angstrom)             Nucl     +Core       At.Mass
                       --------------------------    ----------------       -------
    1  C              -1.1907    0.7029    0.0000      6.00      6.00       12.0000
    2  C              -1.1907   -0.6887    0.0000      6.00      6.00       12.0000
    3  C               0.0092   -1.3888    0.0000      6.00      6.00       12.0000
    4  C               1.1907   -0.7029    0.0000      6.00      6.00       12.0000
    5  C               1.1907    0.6887    0.0000      6.00      6.00       12.0000
    6  H              -2.1399   -1.2345    0.0000      1.00      1.00        1.0078
    7  H               0.0031   -2.4847    0.0000      1.00      1.00        1.0078
    8  H               2.1399    1.2345    0.0000      1.00      1.00        1.0078
    9  C               2.4789   -1.4433    0.0000      6.00      6.00       12.0000
   10  C               3.6807   -0.8439    0.0000      6.00      6.00       12.0000
   11  H               3.7396    0.2580    0.0000      1.00      1.00        1.0078
   12  H               2.3951   -2.5384    0.0000      1.00      1.00        1.0078
   13  H               4.5964   -1.3974    0.0000      1.00      1.00        1.0078
   14  C              -2.4789    1.4433    0.0000      6.00      6.00       12.0000
   15  H              -2.3951    2.5384    0.0000      1.00      1.00        1.0078
   16  C              -3.6807    0.8439    0.0000      6.00      6.00       12.0000
   17  H              -3.7396   -0.2580    0.0000      1.00      1.00        1.0078
   18  H              -4.5964    1.3974    0.0000      1.00      1.00        1.0078
   19  C              -0.0092    1.3888    0.0000      6.00      6.00       12.0000
   20  H              -0.0031    2.4847    0.0000      1.00      1.00        1.0078


 FRAGMENTS
 =========                                     Atoms in this Fragment     Cart. coord.s (Angstrom)
                                               -------------------------------------------------------
    1  C                                                 1  C           -1.1907    0.7029    0.0000
    2  C                                                 2  C           -1.1907   -0.6887    0.0000
    3  C                                                 3  C            0.0092   -1.3888    0.0000
    4  C                                                 4  C            1.1907   -0.7029    0.0000
    5  C                                                 5  C            1.1907    0.6887    0.0000
    6  C                                                 9  C            2.4789   -1.4433    0.0000
    7  C                                                10  C            3.6807   -0.8439    0.0000
    8  C                                                14  C           -2.4789    1.4433    0.0000
    9  C                                                16  C           -3.6807    0.8439    0.0000
   10  C                                                19  C           -0.0092    1.3888    0.0000
   11  H                                                 6  H           -2.1399   -1.2345    0.0000
   12  H                                                 7  H            0.0031   -2.4847    0.0000
   13  H                                                 8  H            2.1399    1.2345    0.0000
   14  H                                                11  H            3.7396    0.2580    0.0000
   15  H                                                12  H            2.3951   -2.5384    0.0000
   16  H                                                13  H            4.5964   -1.3974    0.0000
   17  H                                                15  H           -2.3951    2.5384    0.0000
   18  H                                                17  H           -3.7396   -0.2580    0.0000
   19  H                                                18  H           -4.5964    1.3974    0.0000
   20  H                                                20  H           -0.0031    2.4847    0.0000



 =====================================
 S Y M M E T R Y ,   E L E C T R O N S
 =====================================
  
 Symmetry: C(2H)

 Irreducible Representations, including subspecies
 -------------------------------------------------
 A.g
 B.g
 A.u
 B.u


 Configuration of Valence Electrons
 ==================================
 ( determined in the SCF procedure )

 Total:   70

 Net Charge: 0 (Nuclei minus Electrons)

 Aufbau principle for MO occupations will be applied through SCF cycle no.      30
 Thereafter, the program will assign electrons to MOs that are spatially
 similar to the occupied MOs in a "reference" cycle ("KeepOrbitals").
 The reference cycle is always the PREVIOUS cycle: it will evolve with
 the SCF procedure.
1
 ***************************************************************************************************



                                      ****************************************
                                      *  B U I L D : (Fragments, Functions)  *
                                      ****************************************
  



 =======
 S F O s  ***  (Symmetrized Fragment Orbitals)  ***
 =======
  
 SFOs are linear combinations of (valence) Fragment Orbitals (FOs), such that the SFOs transform as the
 irreducible representations of the (molecular) symmetry group. Each SFO is therefore characterized by
 an irrep of the molecule and by a few (or only one) generating FOs.
 The SFOs constitute a symmetry-adapted basis for the Fock matrix. The MO eigenvector coefficients in
 this basis provide a direct interpretation of the MOs in terms of Frontier Orbital Theory.

 The SFOs are combined with auxiliary Core Functions (CFs) to ensure orthogonalization on the (frozen)
 Core Orbitals (COs). The Core-orthogonalized SFOs (CSFOs) constitute the true Fock basis.

 The FOs, and hence also the (C)SFOs are combinations of the elementary basis functions (BAS). The basis
 functions that participate in the description of the SFOs depend on the irrep. The indices of the
 involved functions are printed below for each irrep.
 (The complete list of primitive basis functions is printed in another section)

 Total nr. of (C)SFOs (summation over all irreps) :    60

 NOTE: a (C)SFO that is defined as a combination of more than one FO is usually NOT normalized.



                                       === A.g ===
 Nr. of SFOs :   25
 Cartesian basis functions that participate in this irrep (total number =    50) :
      1    16     2    17     3     4    18    19     6    21
      7    22     8     9    23    24    11    46    12    47
     13    14    48    49    26    36    27    37    28    29
     38    39    31    41    32    42    33    34    43    44
     51    53    52    60    54    58    55    57    56    59

    SFO  (index         Fragment          Generating    Expansion in Fragment Orbitals
  indx  incl.CFs)   Occup   Orb.Energy   FragmentType  Coeff.   Orbital     on Fragment
 --------------------------------------------------------------------------------------
     1       1      2.000      -9.760 au  C             0.71      1 S               1
                        (    -265.582 eV)               0.71      1 S               4
     2       2      2.000      -0.363 au  C             0.71      2 S               1
                        (      -9.890 eV)               0.71      2 S               4
     3       3      0.667      -0.024 au  C             0.71      1 P:x             1
                        (      -0.659 eV)              -0.71      1 P:x             4
     4       4      0.667      -0.024 au  C             0.71      1 P:y             1
                        (      -0.659 eV)              -0.71      1 P:y             4
     5       5      2.000      -9.760 au  C             0.71      1 S               2
                        (    -265.582 eV)               0.71      1 S               5
     6       6      2.000      -0.363 au  C             0.71      2 S               2
                        (      -9.890 eV)               0.71      2 S               5
     7       7      0.667      -0.024 au  C             0.71      1 P:x             2
                        (      -0.659 eV)              -0.71      1 P:x             5
     8       8      0.667      -0.024 au  C             0.71      1 P:y             2
                        (      -0.659 eV)              -0.71      1 P:y             5
     9       9      2.000      -9.760 au  C             0.71      1 S               3
                        (    -265.582 eV)               0.71      1 S              10
    10      10      2.000      -0.363 au  C             0.71      2 S               3
                        (      -9.890 eV)               0.71      2 S              10
    11      11      0.667      -0.024 au  C             0.71      1 P:x             3
                        (      -0.659 eV)              -0.71      1 P:x            10
    12      12      0.667      -0.024 au  C             0.71      1 P:y             3
                        (      -0.659 eV)              -0.71      1 P:y            10
    13      13      2.000      -9.760 au  C             0.71      1 S               6
                        (    -265.582 eV)               0.71      1 S               8
    14      14      2.000      -0.363 au  C             0.71      2 S               6
                        (      -9.890 eV)               0.71      2 S               8
    15      15      0.667      -0.024 au  C             0.71      1 P:x             6
                        (      -0.659 eV)              -0.71      1 P:x             8
    16      16      0.667      -0.024 au  C             0.71      1 P:y             6
                        (      -0.659 eV)              -0.71      1 P:y             8
    17      17      2.000      -9.760 au  C             0.71      1 S               7
                        (    -265.582 eV)               0.71      1 S               9
    18      18      2.000      -0.363 au  C             0.71      2 S               7
                        (      -9.890 eV)               0.71      2 S               9
    19      19      0.667      -0.024 au  C             0.71      1 P:x             7
                        (      -0.659 eV)              -0.71      1 P:x             9
    20      20      0.667      -0.024 au  C             0.71      1 P:y             7
                        (      -0.659 eV)              -0.71      1 P:y             9
    21      21      1.000      -0.121 au  H             0.71      1 S              11
                        (      -3.288 eV)               0.71      1 S              13
    22      22      1.000      -0.121 au  H             0.71      1 S              12
                        (      -3.288 eV)               0.71      1 S              20
    23      23      1.000      -0.121 au  H             0.71      1 S              14
                        (      -3.288 eV)               0.71      1 S              18
    24      24      1.000      -0.121 au  H             0.71      1 S              15
                        (      -3.288 eV)               0.71      1 S              17
    25      25      1.000      -0.121 au  H             0.71      1 S              16
                        (      -3.288 eV)               0.71      1 S              19



                                       === B.g ===
 Nr. of SFOs :    5
 Cartesian basis functions that participate in this irrep (total number =    10) :
      5    20    10    25    15    50    30    40    35    45

    SFO  (index         Fragment          Generating    Expansion in Fragment Orbitals
  indx  incl.CFs)   Occup   Orb.Energy   FragmentType  Coeff.   Orbital     on Fragment
 --------------------------------------------------------------------------------------
     1       1      0.667      -0.024 au  C             0.71      1 P:z             1
                        (      -0.659 eV)              -0.71      1 P:z             4
     2       2      0.667      -0.024 au  C             0.71      1 P:z             2
                        (      -0.659 eV)              -0.71      1 P:z             5
     3       3      0.667      -0.024 au  C             0.71      1 P:z             3
                        (      -0.659 eV)              -0.71      1 P:z            10
     4       4      0.667      -0.024 au  C             0.71      1 P:z             6
                        (      -0.659 eV)              -0.71      1 P:z             8
     5       5      0.667      -0.024 au  C             0.71      1 P:z             7
                        (      -0.659 eV)              -0.71      1 P:z             9



                                       === A.u ===
 Nr. of SFOs :    5
 Cartesian basis functions that participate in this irrep (total number =    10) :
      5    20    10    25    15    50    30    40    35    45

    SFO  (index         Fragment          Generating    Expansion in Fragment Orbitals
  indx  incl.CFs)   Occup   Orb.Energy   FragmentType  Coeff.   Orbital     on Fragment
 --------------------------------------------------------------------------------------
     1       1      0.667      -0.024 au  C             0.71      1 P:z             1
                        (      -0.659 eV)               0.71      1 P:z             4
     2       2      0.667      -0.024 au  C             0.71      1 P:z             2
                        (      -0.659 eV)               0.71      1 P:z             5
     3       3      0.667      -0.024 au  C             0.71      1 P:z             3
                        (      -0.659 eV)               0.71      1 P:z            10
     4       4      0.667      -0.024 au  C             0.71      1 P:z             6
                        (      -0.659 eV)               0.71      1 P:z             8
     5       5      0.667      -0.024 au  C             0.71      1 P:z             7
                        (      -0.659 eV)               0.71      1 P:z             9



                                       === B.u ===
 Nr. of SFOs :   25
 Cartesian basis functions that participate in this irrep (total number =    50) :
      1    16     2    17     3     4    18    19     6    21
      7    22     8     9    23    24    11    46    12    47
     13    14    48    49    26    36    27    37    28    29
     38    39    31    41    32    42    33    34    43    44
     51    53    52    60    54    58    55    57    56    59

    SFO  (index         Fragment          Generating    Expansion in Fragment Orbitals
  indx  incl.CFs)   Occup   Orb.Energy   FragmentType  Coeff.   Orbital     on Fragment
 --------------------------------------------------------------------------------------
     1       1      2.000      -9.760 au  C             0.71      1 S               1
                        (    -265.582 eV)              -0.71      1 S               4
     2       2      2.000      -0.363 au  C             0.71      2 S               1
                        (      -9.890 eV)              -0.71      2 S               4
     3       3      0.667      -0.024 au  C             0.71      1 P:x             1
                        (      -0.659 eV)               0.71      1 P:x             4
     4       4      0.667      -0.024 au  C             0.71      1 P:y             1
                        (      -0.659 eV)               0.71      1 P:y             4
     5       5      2.000      -9.760 au  C             0.71      1 S               2
                        (    -265.582 eV)              -0.71      1 S               5
     6       6      2.000      -0.363 au  C             0.71      2 S               2
                        (      -9.890 eV)              -0.71      2 S               5
     7       7      0.667      -0.024 au  C             0.71      1 P:x             2
                        (      -0.659 eV)               0.71      1 P:x             5
     8       8      0.667      -0.024 au  C             0.71      1 P:y             2
                        (      -0.659 eV)               0.71      1 P:y             5
     9       9      2.000      -9.760 au  C             0.71      1 S               3
                        (    -265.582 eV)              -0.71      1 S              10
    10      10      2.000      -0.363 au  C             0.71      2 S               3
                        (      -9.890 eV)              -0.71      2 S              10
    11      11      0.667      -0.024 au  C             0.71      1 P:x             3
                        (      -0.659 eV)               0.71      1 P:x            10
    12      12      0.667      -0.024 au  C             0.71      1 P:y             3
                        (      -0.659 eV)               0.71      1 P:y            10
    13      13      2.000      -9.760 au  C             0.71      1 S               6
                        (    -265.582 eV)              -0.71      1 S               8
    14      14      2.000      -0.363 au  C             0.71      2 S               6
                        (      -9.890 eV)              -0.71      2 S               8
    15      15      0.667      -0.024 au  C             0.71      1 P:x             6
                        (      -0.659 eV)               0.71      1 P:x             8
    16      16      0.667      -0.024 au  C             0.71      1 P:y             6
                        (      -0.659 eV)               0.71      1 P:y             8
    17      17      2.000      -9.760 au  C             0.71      1 S               7
                        (    -265.582 eV)              -0.71      1 S               9
    18      18      2.000      -0.363 au  C             0.71      2 S               7
                        (      -9.890 eV)              -0.71      2 S               9
    19      19      0.667      -0.024 au  C             0.71      1 P:x             7
                        (      -0.659 eV)               0.71      1 P:x             9
    20      20      0.667      -0.024 au  C             0.71      1 P:y             7
                        (      -0.659 eV)               0.71      1 P:y             9
    21      21      1.000      -0.121 au  H             0.71      1 S              11
                        (      -3.288 eV)              -0.71      1 S              13
    22      22      1.000      -0.121 au  H             0.71      1 S              12
                        (      -3.288 eV)              -0.71      1 S              20
    23      23      1.000      -0.121 au  H             0.71      1 S              14
                        (      -3.288 eV)              -0.71      1 S              18
    24      24      1.000      -0.121 au  H             0.71      1 S              15
                        (      -3.288 eV)              -0.71      1 S              17
    25      25      1.000      -0.121 au  H             0.71      1 S              16
                        (      -3.288 eV)              -0.71      1 S              19



 ================================
 (Slater-type)  F U N C T I O N S  ***  (Basis and Fit)  ***
 ================================
  

 Atom Type    1  (C)
 ==============

 Valence Basis Sets:   3
 -----------------------
   1 S    5.670000
   2 S    1.720000
   2 P    1.720000

 Atom Type    2  (H)
 ==============

 Valence Basis Sets:   1
 -----------------------
   1 S    1.240000


 BAS: List of all Elementary Cartesian Basis Functions
 =====================================================

 The numbering in the list below (to the right of the function characteristics) is referred
 to in print-outs of MO eigenvectors and Mulliken populations in the BAS representation
 (as contrasted to the SFO representation).

 Notes:
 1. The functions are characterized by a polynomial prefactor (powers of x,y,z and r) and
    an exponential decay factor alpha.
 2. Since the basis sets are specific for an atom TYPE, the individual functions occur on
    all atoms of that type.
 3. The word 'Core' in the left margin signals that it is a Core Function (CF) : not a
    degree of freedom in the valence set, but only used to ensure orthogonalization of
    the other valence basis functions on the frozen Core Orbitals.


 (power of) X  Y  Z  R     Alpha  on Atom
            ==========     =====     ==========

 C                                    1    2    3    4    5    6    7    8    9   10
                                  ---------------------------------------------------------------------------
            0  0  0  0     5.670      1    6   11   16   21   26   31   36   41   46
            0  0  0  1     1.720      2    7   12   17   22   27   32   37   42   47
            1  0  0  0     1.720      3    8   13   18   23   28   33   38   43   48
            0  1  0  0     1.720      4    9   14   19   24   29   34   39   44   49
            0  0  1  0     1.720      5   10   15   20   25   30   35   40   45   50

 H                                   11   12   13   14   15   16   17   18   19   20
                                  ---------------------------------------------------------------------------
            0  0  0  0     1.240     51   52   53   54   55   56   57   58   59   60

 Total number of charge fitting functions (nprimf)      1340
 Total number of Cartesian basis functions (naos)         60
 Total number of Cartesian core functions  (ncos)          0



 Coordinates (Cartesian)
 =======================

     Atom                    bohr                                 angstrom                 Geometric Variables
                   X           Y           Z              X           Y           Z       (0:frozen, *:LT par.)
 --------------------------------------------------------------------------------------------------------------
     1 C      -2.250122    1.328215    0.000000      -1.190713    0.702861    0.000000      1       2       3
     2 C      -2.250122   -1.301448    0.000000      -1.190713   -0.688696    0.000000      4       5       6
     3 C       0.017383   -2.624380    0.000000       0.009199   -1.388762    0.000000      7       8       9
     4 C       2.250122   -1.328215    0.000000       1.190713   -0.702861    0.000000     10      11      12
     5 C       2.250122    1.301448    0.000000       1.190713    0.688696    0.000000     13      14      15
     6 H      -4.043826   -2.332843    0.000000      -2.139900   -1.234487    0.000000     16      17      18
     7 H       0.005948   -4.695461    0.000000       0.003148   -2.484731    0.000000     19      20      21
     8 H       4.043826    2.332843    0.000000       2.139900    1.234487    0.000000     22      23      24
     9 C       4.684477   -2.727487    0.000000       2.478918   -1.443324    0.000000     25      26      27
    10 C       6.955452   -1.594829    0.000000       3.680666   -0.843947    0.000000     28      29      30
[...]
 <Oct06-2014> <23:08:20>  RunType   : CREATE
 <Oct06-2014> <23:08:20>  Net Charge: 0 (Nuclei minus Electrons)
 <Oct06-2014> <23:08:20>  Symmetry  : ATOM
  Coordinates
    Atom         X           Y           Z   (Angstrom)
    1.H         0.000000    0.000000    0.000000
 <Oct06-2014> <23:08:20>  >>>> CORORT
 <Oct06-2014> <23:08:20>  >>>> CLSMAT
 <Oct06-2014> <23:08:20>  >>>> ORTHON
 <Oct06-2014> <23:08:20>  >>>> GENPT
 <Oct06-2014> <23:08:20>  Block Length=  64
 <Oct06-2014> <23:08:20>  >>>> PTBAS
 <Oct06-2014> <23:08:20>  >>>> CYCLE
 <Oct06-2014> <23:08:20>    1
 <Oct06-2014> <23:08:20>    2  ErrMat   0.00000000  MaxEl  0.00000000
 <Oct06-2014> <23:08:20>  SCF converged
 <Oct06-2014> <23:08:20>    3  ErrMat   0.00000000  MaxEl  0.00000000
 <Oct06-2014> <23:08:20>   Solutions with partially occupied orbitals may not be
 <Oct06-2014> <23:08:20>   lowest in energy. You might consider lowering the
 <Oct06-2014> <23:08:20>   symmetry in the input and explicitly specifying integer
 <Oct06-2014> <23:08:20>   occupations. In that case always check that you obtain
 <Oct06-2014> <23:08:20>   an aufbau solution.
 <Oct06-2014> <23:08:20>  >>>> POPAN
 <Oct06-2014> <23:08:20>  >>>> DEBYE
 <Oct06-2014> <23:08:20>  NORMAL TERMINATION
 <Oct06-2014> <23:08:20>  END
 <Oct06-2014> <23:08:20>  ADF 2014  RunTime: Oct06-2014 23:08:20  Nodes: 1  Procs: 1
 <Oct06-2014> <23:08:20>  Carbon (SZ)
 <Oct06-2014> <23:08:20>  RunType   : CREATE
 <Oct06-2014> <23:08:20>  Net Charge: 0 (Nuclei minus Electrons)
 <Oct06-2014> <23:08:20>  Symmetry  : ATOM
  Coordinates
    Atom         X           Y           Z   (Angstrom)
    1.C         0.000000    0.000000    0.000000
 <Oct06-2014> <23:08:20>  >>>> CORORT
 <Oct06-2014> <23:08:20>  >>>> CLSMAT
 <Oct06-2014> <23:08:20>  >>>> ORTHON
 <Oct06-2014> <23:08:20>  >>>> GENPT
 <Oct06-2014> <23:08:20>  Block Length=  68
 <Oct06-2014> <23:08:20>  >>>> PTBAS
 <Oct06-2014> <23:08:20>  >>>> CYCLE
 <Oct06-2014> <23:08:21>    1
 <Oct06-2014> <23:08:21>    2  ErrMat   0.00000000  MaxEl  0.00000000
 <Oct06-2014> <23:08:21>  SCF converged
 <Oct06-2014> <23:08:21>    3  ErrMat   0.00000000  MaxEl  0.00000000
 <Oct06-2014> <23:08:21>   Solutions with partially occupied orbitals may not be
 <Oct06-2014> <23:08:21>   lowest in energy. You might consider lowering the
 <Oct06-2014> <23:08:21>   symmetry in the input and explicitly specifying integer
 <Oct06-2014> <23:08:21>   occupations. In that case always check that you obtain
 <Oct06-2014> <23:08:21>   an aufbau solution.
 <Oct06-2014> <23:08:21>  >>>> POPAN
 <Oct06-2014> <23:08:21>  >>>> DEBYE
 <Oct06-2014> <23:08:21>  NORMAL TERMINATION
 <Oct06-2014> <23:08:21>  END
 <Oct06-2014> <23:08:21>  ADF 2014  RunTime: Oct06-2014 23:08:21  Nodes: 1  Procs: 1
 <Oct06-2014> <23:08:21>  1,4-divinyl-benzene, SZ, BLYP
 <Oct06-2014> <23:08:21>  RunType   : GEOMETRY OPTIMIZATION
 <Oct06-2014> <23:08:21>  Net Charge: 0 (Nuclei minus Electrons)
 <Oct06-2014> <23:08:21>  Symmetry  : C(2H)
 <Oct06-2014> <23:08:21>  >>>> FRAGM
  Coordinates in Geometry Cycle 1
    Atom         X           Y           Z   (Angstrom)
    1.C        -1.190713    0.702861    0.000000
    2.C        -1.190713   -0.688696    0.000000
    3.C         0.009199   -1.388762    0.000000
    4.C         1.190713   -0.702861    0.000000
    5.C         1.190713    0.688696    0.000000
    6.H        -2.139900   -1.234487    0.000000
    7.H         0.003148   -2.484731    0.000000
    8.H         2.139900    1.234487    0.000000
    9.C         2.478918   -1.443324    0.000000
   10.C         3.680666   -0.843947    0.000000
   11.H         3.739591    0.258027    0.000000
   12.H         2.395090   -2.538418    0.000000
   13.H         4.596385   -1.397444    0.000000
   14.C        -2.478918    1.443324    0.000000
   15.H        -2.395090    2.538418    0.000000
   16.C        -3.680666    0.843947    0.000000
   17.H        -3.739591   -0.258027    0.000000
   18.H        -4.596385    1.397444    0.000000
   19.C        -0.009199    1.388762    0.000000
   20.H        -0.003148    2.484731    0.000000
 <Oct06-2014> <23:08:22>  >>>> CORORT
 <Oct06-2014> <23:08:22>  >>>> CLSMAT
 <Oct06-2014> <23:08:22>  >>>> ORTHON
 <Oct06-2014> <23:08:22>  >>>> GENPT
 <Oct06-2014> <23:08:22>  Block Length= 128
 <Oct06-2014> <23:08:22>  >>>> PTBAS
 <Oct06-2014> <23:08:23>  >>>> CYCLE
 <Oct06-2014> <23:08:25>    1
 <Oct06-2014> <23:08:26>    2  ErrMat   0.11736912  MaxEl -0.02983080
 <Oct06-2014> <23:08:28>    3  ErrMat   0.07142152  MaxEl -0.01614002
 <Oct06-2014> <23:08:29>    4  ErrMat   0.05863795  MaxEl -0.02709341
 <Oct06-2014> <23:08:31>    5  ErrMat   0.02241230  MaxEl -0.00483047
 <Oct06-2014> <23:08:33>    6  ErrMat   0.00253258  MaxEl  0.00068460
 <Oct06-2014> <23:08:34>    7  ErrMat   0.00039731  MaxEl -0.00010161
 <Oct06-2014> <23:08:36>    8  ErrMat   0.00006187  MaxEl  0.00002126
 <Oct06-2014> <23:08:37>    9  ErrMat   0.00000999  MaxEl -0.00000261
 <Oct06-2014> <23:08:39>   10  ErrMat   0.00000590  MaxEl  0.00000192
 <Oct06-2014> <23:08:41>   11  ErrMat   0.00000073  MaxEl  0.00000020
 <Oct06-2014> <23:08:41>  SCF converged
 <Oct06-2014> <23:08:42>   12  ErrMat   0.00000005  MaxEl  0.00000002
 <Oct06-2014> <23:08:42>  >>>> TOTEN
 <Oct06-2014> <23:08:47>  >>>> POPAN
 <Oct06-2014> <23:08:47>  >>>> DEBYE
 <Oct06-2014> <23:08:47>  >>>> AMETS
 <Oct06-2014> <23:08:47>  >>>> ENGRAD
 <Oct06-2014> <23:08:48>  current energy                               -5.14241827 Hartree
 <Oct06-2014> <23:08:48>  energy change                      -5.14241827     0.00100000    F
 <Oct06-2014> <23:08:48>  constrained gradient max            0.10622233     0.00100000    F
 <Oct06-2014> <23:08:48>  constrained gradient rms            0.03176255     0.00066667    F
 <Oct06-2014> <23:08:48>  gradient max                        0.10622233
 <Oct06-2014> <23:08:48>  gradient rms                        0.03176255
 <Oct06-2014> <23:08:48>  cart. step max                      0.15991588     0.01000000    F
 <Oct06-2014> <23:08:48>  cart. step rms                      0.05096011     0.00666667    F
  Coordinates in Geometry Cycle 2
    Atom         X           Y           Z   (Angstrom)
    1.C        -1.242940    0.696171    0.000000
    2.C        -1.208332   -0.725340    0.000000
    3.C         0.023364   -1.411434    0.000000
    4.C         1.242940   -0.696171    0.000000
    5.C         1.208332    0.725340    0.000000
    6.H        -2.145489   -1.296572    0.000000
    7.H         0.031850   -2.510971    0.000000
    8.H         2.145489    1.296572    0.000000
    9.C         2.541386   -1.455141    0.000000
   10.C         3.779766   -0.900224    0.000000
   11.H         3.899507    0.193952    0.000000
   12.H         2.433143   -2.551554    0.000000
   13.H         4.682916   -1.504930    0.000000
   14.C        -2.541386    1.455141    0.000000
   15.H        -2.433143    2.551554    0.000000
   16.C        -3.779766    0.900224    0.000000
   17.H        -3.899507   -0.193952    0.000000
   18.H        -4.682916    1.504930    0.000000
   19.C        -0.023364    1.411434    0.000000
   20.H        -0.031850    2.510971    0.000000
 <Oct06-2014> <23:08:48>  >>>> CORORT
 <Oct06-2014> <23:08:48>  >>>> CLSMAT
 <Oct06-2014> <23:08:48>  >>>> ORTHON
 <Oct06-2014> <23:08:48>  >>>> GENPT
 <Oct06-2014> <23:08:49>  Block Length= 128
 <Oct06-2014> <23:08:49>  >>>> PTBAS
 <Oct06-2014> <23:08:49>  >>>> CYCLE
 <Oct06-2014> <23:08:51>    1
 <Oct06-2014> <23:08:53>    2  ErrMat   0.08560976  MaxEl  0.02519686
 <Oct06-2014> <23:08:54>    3  ErrMat   0.03879852  MaxEl -0.01146929
 <Oct06-2014> <23:08:56>    4  ErrMat   0.04051504  MaxEl  0.01520909
 <Oct06-2014> <23:09:16>    5  ErrMat   0.00583259  MaxEl -0.00132246
 <Oct06-2014> <23:09:18>    6  ErrMat   0.00124521  MaxEl -0.00033044
 <Oct06-2014> <23:09:20>    7  ErrMat   0.00045893  MaxEl -0.00010880
 <Oct06-2014> <23:09:21>    8  ErrMat   0.00006170  MaxEl  0.00001776
 <Oct06-2014> <23:09:23>    9  ErrMat   0.00002666  MaxEl -0.00000772
 <Oct06-2014> <23:09:24>   10  ErrMat   0.00000115  MaxEl -0.00000032
 <Oct06-2014> <23:09:24>  SCF converged
 <Oct06-2014> <23:09:26>   11  ErrMat   0.00000015  MaxEl  0.00000005
 <Oct06-2014> <23:09:26>  >>>> TOTEN
 <Oct06-2014> <23:09:30>  >>>> POPAN
 <Oct06-2014> <23:09:30>  >>>> DEBYE
 <Oct06-2014> <23:09:30>  >>>> AMETS
 <Oct06-2014> <23:09:30>  >>>> ENGRAD
 <Oct06-2014> <23:09:31>  current energy                               -5.16126759 Hartree
 <Oct06-2014> <23:09:31>  energy change                      -0.01884932     0.00100000    F
 <Oct06-2014> <23:09:31>  constrained gradient max            0.03925775     0.00100000    F
 <Oct06-2014> <23:09:31>  constrained gradient rms            0.01126985     0.00066667    F
 <Oct06-2014> <23:09:31>  gradient max                        0.03925775
 <Oct06-2014> <23:09:31>  gradient rms                        0.01126985
 <Oct06-2014> <23:09:31>  cart. step max                      0.08538318     0.01000000    F
 <Oct06-2014> <23:09:31>  cart. step rms                      0.02545125     0.00666667    F
  Coordinates in Geometry Cycle 3
    Atom         X           Y           Z   (Angstrom)
    1.C        -1.270697    0.692178    0.000000
    2.C        -1.210019   -0.741522    0.000000
    3.C         0.033788   -1.415443    0.000000
    4.C         1.270697   -0.692178    0.000000
    5.C         1.210019    0.741522    0.000000
    6.H        -2.142838   -1.330107    0.000000
    7.H         0.053445   -2.519182    0.000000
    8.H         2.142838    1.330107    0.000000
    9.C         2.568838   -1.458621    0.000000
   10.C         3.818100   -0.927563    0.000000
   11.H         3.984891    0.160514    0.000000
   12.H         2.452267   -2.558370    0.000000
   13.H         4.712949   -1.567272    0.000000
   14.C        -2.568838    1.458621    0.000000
   15.H        -2.452267    2.558370    0.000000
   16.C        -3.818100    0.927563    0.000000
   17.H        -3.984891   -0.160514    0.000000
   18.H        -4.712949    1.567272    0.000000
   19.C        -0.033788    1.415443    0.000000
   20.H        -0.053445    2.519182    0.000000
 <Oct06-2014> <23:09:32>  >>>> CORORT
 <Oct06-2014> <23:09:32>  >>>> CLSMAT
 <Oct06-2014> <23:09:32>  >>>> ORTHON
 <Oct06-2014> <23:09:32>  >>>> GENPT
 <Oct06-2014> <23:09:32>  Block Length= 128
 <Oct06-2014> <23:09:32>  >>>> PTBAS
 <Oct06-2014> <23:09:32>  >>>> CYCLE
 <Oct06-2014> <23:09:34>    1
 <Oct06-2014> <23:09:36>    2  ErrMat   0.03219945  MaxEl -0.00825451
 <Oct06-2014> <23:09:37>    3  ErrMat   0.01542300  MaxEl -0.00437032
 <Oct06-2014> <23:09:39>    4  ErrMat   0.01785429  MaxEl  0.00721302
 <Oct06-2014> <23:09:40>    5  ErrMat   0.00195700  MaxEl -0.00055582
 <Oct06-2014> <23:09:42>    6  ErrMat   0.00060562  MaxEl  0.00018862
 <Oct06-2014> <23:09:43>    7  ErrMat   0.00020270  MaxEl -0.00005554
 <Oct06-2014> <23:09:45>    8  ErrMat   0.00001734  MaxEl -0.00000444
 <Oct06-2014> <23:09:46>    9  ErrMat   0.00001203  MaxEl -0.00000351
 <Oct06-2014> <23:09:48>   10  ErrMat   0.00000077  MaxEl -0.00000019
 <Oct06-2014> <23:09:48>  SCF converged
 <Oct06-2014> <23:09:50>   11  ErrMat   0.00000006  MaxEl  0.00000002
 <Oct06-2014> <23:09:50>  >>>> TOTEN
 <Oct06-2014> <23:09:55>  >>>> POPAN
 <Oct06-2014> <23:09:55>  >>>> DEBYE
 <Oct06-2014> <23:09:55>  >>>> AMETS
 <Oct06-2014> <23:09:55>  >>>> ENGRAD
 <Oct06-2014> <23:09:56>  current energy                               -5.16363694 Hartree
 <Oct06-2014> <23:09:56>  energy change                      -0.00236935     0.00100000    F
 <Oct06-2014> <23:09:56>  constrained gradient max            0.00912267     0.00100000    F
 <Oct06-2014> <23:09:56>  constrained gradient rms            0.00253585     0.00066667    F
 <Oct06-2014> <23:09:56>  gradient max                        0.00912267
 <Oct06-2014> <23:09:56>  gradient rms                        0.00253585
 <Oct06-2014> <23:09:56>  cart. step max                      0.03029364     0.01000000    F
 <Oct06-2014> <23:09:56>  cart. step rms                      0.00750550     0.00666667    F
  Coordinates in Geometry Cycle 4
    Atom         X           Y           Z   (Angstrom)
    1.C        -1.276624    0.689761    0.000000
    2.C        -1.210048   -0.745315    0.000000
    3.C         0.035659   -1.414991    0.000000
    4.C         1.276624   -0.689761    0.000000
    5.C         1.210048    0.745315    0.000000
    6.H        -2.140432   -1.338113    0.000000
    7.H         0.058840   -2.518916    0.000000
    8.H         2.140432    1.338113    0.000000
    9.C         2.572930   -1.457286    0.000000
   10.C         3.828453   -0.934459    0.000000
   11.H         4.015184    0.150356    0.000000
   12.H         2.453074   -2.556659    0.000000
   13.H         4.716408   -1.585222    0.000000
   14.C        -2.572930    1.457286    0.000000
   15.H        -2.453074    2.556659    0.000000
   16.C        -3.828453    0.934459    0.000000
   17.H        -4.015184   -0.150356    0.000000
   18.H        -4.716408    1.585222    0.000000
   19.C        -0.035659    1.414991    0.000000
   20.H        -0.058840    2.518916    0.000000
 <Oct06-2014> <23:09:56>  >>>> CORORT
 <Oct06-2014> <23:09:56>  >>>> CLSMAT
 <Oct06-2014> <23:09:56>  >>>> ORTHON
 <Oct06-2014> <23:09:56>  >>>> GENPT
 <Oct06-2014> <23:09:56>  Block Length= 128
 <Oct06-2014> <23:09:57>  >>>> PTBAS
 <Oct06-2014> <23:09:57>  >>>> CYCLE
 <Oct06-2014> <23:09:59>    1
 <Oct06-2014> <23:10:00>    2  ErrMat   0.00510729  MaxEl -0.00129956
 <Oct06-2014> <23:10:02>    3  ErrMat   0.00264337  MaxEl -0.00070121
 <Oct06-2014> <23:10:03>    4  ErrMat   0.00252935  MaxEl  0.00104789
 <Oct06-2014> <23:10:05>    5  ErrMat   0.00073989  MaxEl -0.00028449
 <Oct06-2014> <23:10:07>    6  ErrMat   0.00013652  MaxEl -0.00003304
 <Oct06-2014> <23:10:08>    7  ErrMat   0.00004485  MaxEl  0.00000929
 <Oct06-2014> <23:10:10>    8  ErrMat   0.00000710  MaxEl  0.00000203
 <Oct06-2014> <23:10:12>    9  ErrMat   0.00000284  MaxEl -0.00000074
 <Oct06-2014> <23:10:12>  SCF converged
 <Oct06-2014> <23:10:13>   10  ErrMat   0.00000016  MaxEl -0.00000005
 <Oct06-2014> <23:10:13>  >>>> TOTEN
 <Oct06-2014> <23:10:18>  >>>> POPAN
 <Oct06-2014> <23:10:18>  >>>> DEBYE
 <Oct06-2014> <23:10:18>  >>>> AMETS
 <Oct06-2014> <23:10:18>  >>>> ENGRAD
 <Oct06-2014> <23:10:19>  current energy                               -5.16373850 Hartree
 <Oct06-2014> <23:10:19>  energy change                      -0.00010156     0.00100000    T
 <Oct06-2014> <23:10:19>  constrained gradient max            0.00196414     0.00100000    F
 <Oct06-2014> <23:10:19>  constrained gradient rms            0.00060100     0.00066667    T
 <Oct06-2014> <23:10:19>  gradient max                        0.00196414
 <Oct06-2014> <23:10:19>  gradient rms                        0.00060100
 <Oct06-2014> <23:10:19>  cart. step max                      0.00382778     0.01000000    T
 <Oct06-2014> <23:10:19>  cart. step rms                      0.00097729     0.00666667    T
  Coordinates in Geometry Cycle 5
    Atom         X           Y           Z   (Angstrom)
    1.C        -1.277379    0.689693    0.000000
    2.C        -1.210295   -0.745763    0.000000
    3.C         0.035482   -1.415285    0.000000
    4.C         1.277379   -0.689693    0.000000
    5.C         1.210295    0.745763    0.000000
    6.H        -2.140496   -1.338753    0.000000
    7.H         0.059512   -2.519159    0.000000
    8.H         2.140496    1.338753    0.000000
    9.C         2.572735   -1.456521    0.000000
   10.C         3.827963   -0.934724    0.000000
   11.H         4.019012    0.149370    0.000000
   12.H         2.454127   -2.555963    0.000000
   13.H         4.714569   -1.587513    0.000000
   14.C        -2.572735    1.456521    0.000000
   15.H        -2.454127    2.555963    0.000000
   16.C        -3.827963    0.934724    0.000000
   17.H        -4.019012   -0.149370    0.000000
   18.H        -4.714569    1.587513    0.000000
   19.C        -0.035482    1.415285    0.000000
   20.H        -0.059512    2.519159    0.000000
 <Oct06-2014> <23:10:19>  >>>> CORORT
 <Oct06-2014> <23:10:19>  >>>> CLSMAT
 <Oct06-2014> <23:10:19>  >>>> ORTHON
 <Oct06-2014> <23:10:19>  >>>> GENPT
 <Oct06-2014> <23:10:19>  Block Length= 128
 <Oct06-2014> <23:10:19>  >>>> PTBAS
 <Oct06-2014> <23:10:20>  >>>> CYCLE
 <Oct06-2014> <23:10:22>    1
 <Oct06-2014> <23:10:23>    2  ErrMat   0.00191406  MaxEl  0.00042811
 <Oct06-2014> <23:10:25>    3  ErrMat   0.00096816  MaxEl  0.00021161
 <Oct06-2014> <23:10:26>    4  ErrMat   0.00073673  MaxEl -0.00028709
 <Oct06-2014> <23:10:28>    5  ErrMat   0.00017201  MaxEl  0.00006740
 <Oct06-2014> <23:10:29>    6  ErrMat   0.00006411  MaxEl  0.00001575
 <Oct06-2014> <23:10:31>    7  ErrMat   0.00000663  MaxEl  0.00000167
 <Oct06-2014> <23:10:32>    8  ErrMat   0.00000299  MaxEl -0.00000086
 <Oct06-2014> <23:10:32>  SCF converged
 <Oct06-2014> <23:10:34>    9  ErrMat   0.00000064  MaxEl  0.00000016
 <Oct06-2014> <23:10:34>  >>>> TOTEN
 <Oct06-2014> <23:10:39>  >>>> POPAN
 <Oct06-2014> <23:10:39>  >>>> DEBYE
 <Oct06-2014> <23:10:39>  >>>> AMETS
 <Oct06-2014> <23:10:39>  >>>> ENGRAD
 <Oct06-2014> <23:10:40>  current energy                               -5.16374639 Hartree
 <Oct06-2014> <23:10:40>  energy change                      -0.00000789     0.00100000    T
 <Oct06-2014> <23:10:40>  constrained gradient max            0.00076175     0.00100000    T
 <Oct06-2014> <23:10:40>  constrained gradient rms            0.00021193     0.00066667    T
 <Oct06-2014> <23:10:40>  gradient max                        0.00076175
 <Oct06-2014> <23:10:40>  gradient rms                        0.00021193
 <Oct06-2014> <23:10:40>  cart. step max                      0.00087447     0.01000000    T
 <Oct06-2014> <23:10:40>  cart. step rms                      0.00037535     0.00666667    T
 <Oct06-2014> <23:10:40>  GEOMETRY CONVERGED
 <Oct06-2014> <23:10:40>  Calculating Energy Terms for Final Geometry
  Coordinates in Geometry Cycle 5
    Atom         X           Y           Z   (Angstrom)
    1.C        -1.277379    0.689693    0.000000
    2.C        -1.210295   -0.745763    0.000000
    3.C         0.035482   -1.415285    0.000000
    4.C         1.277379   -0.689693    0.000000
    5.C         1.210295    0.745763    0.000000
    6.H        -2.140496   -1.338753    0.000000
    7.H         0.059512   -2.519159    0.000000
    8.H         2.140496    1.338753    0.000000
    9.C         2.572735   -1.456521    0.000000
   10.C         3.827963   -0.934724    0.000000
   11.H         4.019012    0.149370    0.000000
   12.H         2.454127   -2.555963    0.000000
   13.H         4.714569   -1.587513    0.000000
   14.C        -2.572735    1.456521    0.000000
   15.H        -2.454127    2.555963    0.000000
   16.C        -3.827963    0.934724    0.000000
   17.H        -4.019012   -0.149370    0.000000
   18.H        -4.714569    1.587513    0.000000
   19.C        -0.035482    1.415285    0.000000
   20.H        -0.059512    2.519159    0.000000
 <Oct06-2014> <23:10:40>  >>>> CORORT
 <Oct06-2014> <23:10:40>  >>>> CLSMAT
 <Oct06-2014> <23:10:40>  >>>> ORTHON
 <Oct06-2014> <23:10:40>  >>>> GENPT
 <Oct06-2014> <23:10:40>  Block Length= 128
 <Oct06-2014> <23:10:41>  >>>> PTBAS
 <Oct06-2014> <23:10:41>  >>>> CYCLE
 <Oct06-2014> <23:10:43>    1
 <Oct06-2014> <23:10:44>    2  ErrMat   0.00000006  MaxEl  0.00000002
 <Oct06-2014> <23:10:44>  SCF converged
 <Oct06-2014> <23:10:46>    3  ErrMat   0.00000002  MaxEl  0.00000001
 <Oct06-2014> <23:10:46>  >>>> TOTEN
 <Oct06-2014> <23:10:53>  >>>> POPAN
 <Oct06-2014> <23:10:53>  >>>> DEBYE
 <Oct06-2014> <23:10:53>  >>>> AMETS
 <Oct06-2014> <23:10:53>  >>>> POPUL
 <Oct06-2014> <23:10:53>   Bond Energy          -5.16374639 a.u.
 <Oct06-2014> <23:10:53>   Bond Energy        -140.51268863 eV
 <Oct06-2014> <23:10:53>   Bond Energy       -3240.30       kcal/mol
 <Oct06-2014> <23:10:53>  NORMAL TERMINATION
 <Oct06-2014> <23:10:53>  END
