
                                 *****************
                                 * O   R   C   A *
                                 *****************

           --- An Ab Initio, DFT and Semiempirical electronic structure package ---

                  #######################################################
                  #                        -***-                        #
                  #  Department of molecular theory and spectroscopy    #
                  #              Directorship: Frank Neese              #
                  # Max Planck Institute for Chemical Energy Conversion #
                  #                  D-45470 Muelheim/Ruhr              #
                  #                       Germany                       #
                  #                                                     #
                  #                  All rights reserved                #
                  #                        -***-                        #
                  #######################################################


                         Program Version 3.0.2 -  RELEASE  -


 With contributions from (in alphabetic order):
   Ute Becker             : Parallelization
   Dmytro Bykov           : SCF Hessian
   Dmitry Ganyushin       : Spin-Orbit,Spin-Spin,Magnetic field MRCI
   Andreas Hansen         : Spin unrestricted coupled pair/coupled cluster methods
   Dimitrios Liakos       : Extrapolation schemes; parallel MDCI
   Robert Izsak           : Overlap fitted RIJCOSX, COSX-SCS-MP3
   Christian Kollmar      : KDIIS, OOCD, Brueckner-CCSD(T), CCSD density
   Simone Kossmann        : Meta GGA functionals, TD-DFT gradient, OOMP2, MP2 Hessian
   Taras Petrenko         : DFT Hessian,TD-DFT gradient, ASA and ECA modules, normal mode analysis, Resonance Raman, ABS, FL, XAS/XES, NRVS
   Christoph Reimann      : Effective Core Potentials
   Michael Roemelt        : Restricted open shell CIS
   Christoph Riplinger    : Improved optimizer, TS searches, QM/MM, DLPNO-CCSD
   Barbara Sandhoefer     : DKH picture change effects
   Igor Schapiro          : Molecular dynamics
   Kantharuban Sivalingam : CASSCF convergence, NEVPT2
   Boris Wezisla          : Elementary symmetry handling
   Frank Wennmohs         : Technical directorship


 We gratefully acknowledge several colleagues who have allowed us to
 interface, adapt or use parts of their codes:
   Stefan Grimme, W. Hujo, H. Kruse, T. Risthaus : VdW corrections, initial TS optimization,
                                                   DFT functionals, gCP
   Ed Valeev                                     : LibInt (2-el integral package), F12 methods
   Garnet Chan, S. Sharma, R. Olivares           : DMRG
   Ulf Ekstrom                                   : XCFun DFT Library
   Mihaly Kallay                                 : mrcc  (arbitrary order and MRCC methods)
   Andreas Klamt, Michael Diedenhofen            : otool_cosmo (COSMO solvation model)
   Frank Weinhold                                : gennbo (NPA and NBO analysis)
   Christopher J. Cramer and Donald G. Truhlar   : smd solvation model


 Your calculation uses the libint2 library for the computation of 2-el integrals
 For citations please refer to: http://libint.valeyev.net

 This ORCA versions uses:
   CBLAS   interface :  Fast vector & matrix operations
   LAPACKE interface :  Fast linear algebra routines


Your calculation utilizes the basis: 6-31G
Cite in your paper:
H - He: W.J. Hehre, R. Ditchfield and J.A. Pople, J. Chem. Phys. 56,
Li - Ne: 2257 (1972).  Note: Li and B come from J.D. Dill and J.A.
         Pople, J. Chem. Phys. 62, 2921 (1975).
Na - Ar: M.M. Francl, W.J. Pietro, W.J. Hehre, J.S. Binkley, M.S. Gordon,
         D.J. DeFrees and J.A. Pople, J. Chem. Phys. 77, 3654 (1982)
K  - Zn: V. Rassolov, J.A. Pople, M. Ratner and T.L. Windus, J. Chem. Phys.
         (accepted, 1998)
Note: He and Ne are unpublished basis sets taken from the Gaussian program

================================================================================
                                        WARNINGS
                       Please study these warnings very carefully!
================================================================================
Now building the actual basis set
INFO   : Checking CIS options ...


INFO   : the flag for use of LIBINT has been found!

================================================================================
                                       INPUT FILE
================================================================================
NAME = test.inp
|  1> # ================================================================
|  2> # Orca input file made in Gabedit
|  3> # ================================================================
|  4> %pal nprocs 4 end
|  5> !  UKS   LooseSCF  B3LYP 
|  6> ! PrintBasis 6-31G 
|  7> %tddft
|  8>      nroots 10 # the number of excited states to be calculated.
|  9>      maxdim 30 # the maximum dimension of the expansion space in the Davidson procedure.
| 10>      # dcorr n
| 11>      # n=1-4. The meaning of the four algorithms
| 12>      # algorithm 1 Is perhaps the best for small systems. May use a
| 13>      #             lot of disk space
| 14>      # algorithm 2 Stores less integrals
| 15>      # algorithm 3 Is good if the system is large and only a few
| 16>      #             states are to be made. Safes disk and main memory.
| 17>      # algorithm 4 Uses only transformed RI integrals. May be the
| 18>      #             fastest for large systems and a larger number of states
| 19>      # Triplets true : do triplets states
| 20>      # EWin -3,100  (orbital energy window in Eh)
| 21>      # Etol 1e-3  the required convergence of the energies of the excited states (in Eh)
| 22>      # Rtol 1e-5  required convergence on the norm of the residual vectors.
| 23>                    # essential for metal edges. For ligand edges, the contributions are much smaller.
| 24>  end #tddft
| 25> %output
| 26>      print[p_mos] 1
| 27>  end #output
| 28> * xyz 0 1
| 29>  C 0.000000 0.000000 0.000000
| 30>  C 0.000000 0.000000 1.400000
| 31>  C 1.212436 0.000000 2.100000
| 32>  C 2.424871 0.000000 1.400000
| 33>  C 2.424871 0.000000 0.000000
| 34>  C 1.212436 0.000000 -0.700000
| 35>  H -0.943102 0.000000 1.944500
| 36>  H 1.212436 0.000000 3.189000
| 37>  H 3.367973 0.000000 1.944500
| 38>  H 3.367973 0.000000 -0.544500
| 39>  H 1.212436 0.000000 -1.789000
| 40>  H -0.943102 0.000000 -0.544500
| 41> *                           ****END OF INPUT****
================================================================================

                       ****************************
                       * Single Point Calculation *
                       ****************************

---------------------------------
CARTESIAN COORDINATES (ANGSTROEM)
---------------------------------
  C      0.000000    0.000000    0.000000
  C      0.000000    0.000000    1.400000
  C      1.212436    0.000000    2.100000
  C      2.424871    0.000000    1.400000
  C      2.424871    0.000000    0.000000
  C      1.212436    0.000000   -0.700000
  H     -0.943102    0.000000    1.944500
  H      1.212436    0.000000    3.189000
  H      3.367973    0.000000    1.944500
  H      3.367973    0.000000   -0.544500
  H      1.212436    0.000000   -1.789000
  H     -0.943102    0.000000   -0.544500

----------------------------
CARTESIAN COORDINATES (A.U.)
----------------------------
  NO LB      ZA    FRAG    MASS        X           Y           Z
   0 C     6.0000    0    12.011          0.000000000000000          0.000000000000000          0.000000000000000
   1 C     6.0000    0    12.011          0.000000000000000          0.000000000000000          2.645616587489752
   2 C     6.0000    0    12.011          2.291171994906947          0.000000000000000          3.968424881234629
   3 C     6.0000    0    12.011          4.582342100087759          0.000000000000000          2.645616587489752
   4 C     6.0000    0    12.011          4.582342100087759          0.000000000000000          0.000000000000000
   5 C     6.0000    0    12.011          2.291171994906947          0.000000000000000         -1.322808293744876
   6 H     1.0000    0     1.008         -1.782204496353400          0.000000000000000          3.674572467409874
   7 H     1.0000    0     1.008          2.291171994906947          0.000000000000000          6.026336641074872
   8 H     1.0000    0     1.008          6.364546596441160          0.000000000000000          3.674572467409874
   9 H     1.0000    0     1.008          6.364546596441160          0.000000000000000         -1.028955879920122
  10 H     1.0000    0     1.008          2.291171994906947          0.000000000000000         -3.380720053585119
  11 H     1.0000    0     1.008         -1.782204496353400          0.000000000000000         -1.028955879920122

--------------------------------
INTERNAL COORDINATES (ANGSTROEM)
--------------------------------
 C      0   0   0   0.000000     0.000     0.000
 C      1   0   0   1.400000     0.000     0.000
 C      2   1   0   1.400000   120.000     0.000
 C      3   2   1   1.400000   120.000     0.000
 C      4   3   2   1.400000   120.000     0.000
 C      5   4   3   1.400000   120.000     0.000
 H      2   1   3   1.089000   120.000   180.000
 H      3   2   1   1.089000   120.000   180.000
 H      4   3   2   1.089000   120.000   180.000
 H      5   4   3   1.089000   120.000   180.000
 H      6   5   4   1.089000   120.000   180.000
 H      1   2   3   1.089000   120.000   180.000

---------------------------
INTERNAL COORDINATES (A.U.)
---------------------------
 C      0   0   0   0.000000     0.000     0.000
 C      1   0   0   2.645617     0.000     0.000
 C      2   1   0   2.645617   120.000     0.000
 C      3   2   1   2.645616   120.000     0.000
 C      4   3   2   2.645617   120.000     0.000
 C      5   4   3   2.645616   120.000     0.000
 H      2   1   3   2.057912   120.000   180.000
 H      3   2   1   2.057912   120.000   180.000
 H      4   3   2   2.057912   120.000   180.000
 H      5   4   3   2.057912   120.000   180.000
 H      6   5   4   2.057912   120.000   180.000
 H      1   2   3   2.057912   120.000   180.000

---------------------
BASIS SET INFORMATION
---------------------
There are 2 groups of distinct atoms

 Group   1 Type C   : 10s4p contracted to 3s2p pattern {631/31}
 Group   2 Type H   : 4s contracted to 2s pattern {31}

Atom   0C    basis set group =>   1
Atom   1C    basis set group =>   1
Atom   2C    basis set group =>   1
Atom   3C    basis set group =>   1
Atom   4C    basis set group =>   1
Atom   5C    basis set group =>   1
Atom   6H    basis set group =>   2
Atom   7H    basis set group =>   2
Atom   8H    basis set group =>   2
Atom   9H    basis set group =>   2
Atom  10H    basis set group =>   2
Atom  11H    basis set group =>   2

-------------------------
BASIS SET IN INPUT FORMAT
-------------------------

 # Basis set for element : H 
 NewGTO H 
 S 3 
   1      18.7311370000      0.0334945995
   2       2.8253937000      0.2347269467
   3       0.6401217000      0.8137573184
 S 1 
   1       0.1612778000      1.0000000000
  end;

 # Basis set for element : C 
 NewGTO C 
 S 6 
   1    3047.5249000000      0.0018347002
   2     457.3695100000      0.0140373012
   3     103.9486900000      0.0688426061
   4      29.2101550000      0.2321844206
   5       9.2866630000      0.4679413416
   6       3.1639270000      0.3623120322
 S 3 
   1       7.8682724000     -0.1193324086
   2       1.8812885000     -0.1608542116
   3       0.5442493000      1.1434564826
 P 3 
   1       7.8682724000      0.0689990956
   2       1.8812885000      0.3164239798
   3       0.5442493000      0.7443082524
 S 1 
   1       0.1687144000      1.0000000000
 P 1 
   1       0.1687144000      1.0000000000
  end;



           ************************************************************
           *        Program running with 4 parallel MPI-processes     *
           *              working on a common directory               *
           ************************************************************
------------------------------------------------------------------------------
                           ORCA GTO INTEGRAL CALCULATION
------------------------------------------------------------------------------

                         BASIS SET STATISTICS AND STARTUP INFO

 # of primitive gaussian shells          ...  108
 # of primitive gaussian functions       ...  156
 # of contracted shell                   ...   42
 # of contracted basis functions         ...   66
 Highest angular momentum                ...    1
 Maximum contraction depth               ...    6
 Integral package used                   ... LIBINT
 Integral threshhold            Thresh   ... 1.000e-009
 Primitive cut-off              TCut     ... 1.000e-010


                              INTEGRAL EVALUATION

 One electron integrals                  ... done
 Pre-screening matrix                    ... done
 Shell pair data                         ... done (   0.000 sec)

Timings:
 Total evaluation time               ...     1.326 sec (   0.022 min)
 One electron matrix time            ...     0.031 sec (   0.001 min) =  2.3%
 Schwartz matrix evaluation time     ...     0.172 sec (   0.003 min) = 13.0%

           ************************************************************
           *              Shut down parallel processing               *
           ************************************************************


           ************************************************************
           *        Program running with 4 parallel MPI-processes     *
           *              working on a common directory               *
           ************************************************************
-------------------------------------------------------------------------------
                                 ORCA SCF
-------------------------------------------------------------------------------

------------
SCF SETTINGS
------------
Hamiltonian:
 Density Functional     Method          .... DFT(GTOs)
 Exchange Functional    Exchange        .... B88
   X-Alpha parameter    XAlpha          ....  0.666667
   Becke's b parameter  XBeta           ....  0.004200
 Correlation Functional Correlation     .... LYP
 LDA part of GGA corr.  LDAOpt          .... VWN-5
 Gradients option       PostSCFGGA      .... off
 Hybrid DFT is turned on
   Fraction HF Exchange ScalHFX         ....  0.200000
   Scaling of DF-GGA-X  ScalDFX         ....  0.720000
   Scaling of DF-GGA-C  ScalDFC         ....  0.810000
   Scaling of DF-LDA-C  ScalLDAC        ....  1.000000
   Perturbative correction              ....  0.000000
   NL short-range parameter             ....  4.800000


General Settings:
 Integral files         IntName         .... test
 Hartree-Fock type      HFTyp           .... UHF
 Total Charge           Charge          ....    0
 Multiplicity           Mult            ....    1
 Number of Electrons    NEL             ....   42
 Basis Dimension        Dim             ....   66
 Nuclear Repulsion      ENuc            ....    202.7137056428 Eh

Convergence Acceleration:
 DIIS                   CNVDIIS         .... on
   Start iteration      DIISMaxIt       ....    12
   Startup error        DIISStart       ....  0.200000
   # of expansion vecs  DIISMaxEq       ....     5
   Bias factor          DIISBfac        ....   1.050
   Max. coefficient     DIISMaxC        ....  10.000
 Newton-Raphson         CNVNR           .... off
 SOSCF                  CNVSOSCF        .... off
 Level Shifting         CNVShift        .... on
   Level shift para.    LevelShift      ....    0.2500
   Turn off err/grad.   ShiftErr        ....    0.0010
 Zerner damping         CNVZerner       .... off
 Static damping         CNVDamp         .... on
   Fraction old density DampFac         ....    0.7000
   Max. Damping (<1)    DampMax         ....    0.9800
   Min. Damping (>=0)   DampMin         ....    0.0000
   Turn off err/grad.   DampErr         ....    0.1000
 Fernandez-Rico         CNVRico         .... off

SCF Procedure:
 Maximum # iterations   MaxIter         ....   125
 SCF integral mode      SCFMode         .... Direct
   Integral package                     .... LIBINT
 Reset frequeny         DirectResetFreq ....    20
 Integral Threshold     Thresh          .... 1.000e-009 Eh
 Primitive CutOff       TCut            .... 1.000e-010 Eh

Convergence Tolerance:
 Convergence Check Mode ConvCheckMode   .... Total+1el-Energy
 Energy Change          TolE            .... 1.000e-005 Eh
 1-El. energy change                    .... 1.000e-002 Eh
 DIIS Error             TolErr          .... 5.000e-004


Diagonalization of the overlap matrix:
Smallest eigenvalue                        ... 7.201e-004
Time for diagonalization                   ...    4.461 sec
Threshold for overlap eigenvalues          ... 1.000e-008
Number of eigenvalues below threshold      ... 0
Time for construction of square roots      ...    0.000 sec
Total time needed                          ...    4.461 sec

-------------------
DFT GRID GENERATION
-------------------

General Integration Accuracy     IntAcc      ...  4.340
Radial Grid Type                 RadialGrid  ... Gauss-Chebyshev
Angular Grid (max. acc.)         AngularGrid ... Lebedev-110
Angular grid pruning method      GridPruning ... 3 (G Style)
Weight generation scheme         WeightScheme... Becke
Basis function cutoff            BFCut       ...   1.0000e-010
Integration weight cutoff        WCut        ...   1.0000e-014
Grids for H and He will be reduced by one unit

# of grid points (after initial pruning)     ...  14700 (   0.0 sec)
# of grid points (after weights+screening)   ...  13744 (   0.0 sec)
nearest neighbour list constructed           ...    0.0 sec
Grid point re-assignment to atoms done       ...    0.0 sec
Grid point division into batches done        ...    0.0 sec
Reduced shell lists constructed in    0.0 sec

Total number of grid points                  ...    13744
Total number of batches                      ...      218
Average number of points per batch           ...       63
Average number of grid points per atom       ...     1145
Average number of shells per batch           ...    36.82 (87.67%)
Average number of basis functions per batch  ...    60.39 (91.50%)
Average number of large shells per batch     ...    33.21 (90.20%)
Average number of large basis fcns per batch ...    56.36 (93.32%)
Maximum spatial batch extension              ...   3.50, 38.86,  3.45 au
Average spatial batch extension              ...   0.48,  1.31,  0.45 au

Time for grid setup =    0.094 sec

------------------------------
INITIAL GUESS: MODEL POTENTIAL
------------------------------
Loading Hartree-Fock densities                     ... done
Calculating cut-offs                               ... done
Setting up the integral package                    ... done
Initializing the effective Hamiltonian             ... done
Starting the Coulomb interaction                   ... done (  22.2 sec)
Reading the grid                                   ... done
Mapping shells                                     ... done
Starting the XC term evaluation                    ... done (   5.8 sec)
  promolecular density results
     # of electrons  =     42.003714039
     EX              =    -32.594354920
     EC              =     -1.376099648
     EX+EC           =    -33.970454567
Transforming the Hamiltonian                       ... done (   0.0 sec)
Diagonalizing the Hamiltonian                      ... done (   0.0 sec)
Back transforming the eigenvectors                 ... done (   0.0 sec)
Now organizing SCF variables                       ... done
                      ------------------
                      INITIAL GUESS DONE (  39.3 sec)
                      ------------------
--------------
SCF ITERATIONS
--------------
ITER       Energy         Delta-E        Max-DP      RMS-DP      [F,P]     Damp
               ***  Starting incremental Fock matrix formation  ***
  0   -231.9165360658   0.000000000000 0.02013382  0.00187373  0.1133967 0.7000
  1   -231.9725209246  -0.055984858811 0.01416607  0.00143089  0.0644837 0.7000
                               ***Turning on DIIS***
  2   -231.9982265283  -0.025705603728 0.02539118  0.00251668  0.0290394 0.0000
  3   -232.0339397544  -0.035713226098 0.01137606  0.00106994  0.0384589 0.0000
  4   -232.0434793693  -0.009539614879 0.00378386  0.00027496  0.0065382 0.0000
  5   -232.0438252615  -0.000345892186 0.00116509  0.00008731  0.0014150 0.0000
                            ***DIIS convergence achieved***

               *****************************************************
               *                     SUCCESS                       *
               *           SCF CONVERGED AFTER   6 CYCLES          *
               *****************************************************

Setting up the final grid:

General Integration Accuracy     IntAcc      ...  4.670
Radial Grid Type                 RadialGrid  ... Gauss-Chebyshev
Angular Grid (max. acc.)         AngularGrid ... Lebedev-302
Angular grid pruning method      GridPruning ... 3 (G Style)
Weight generation scheme         WeightScheme... Becke
Basis function cutoff            BFCut       ...   1.0000e-010
Integration weight cutoff        WCut        ...   1.0000e-014
Grids for H and He will be reduced by one unit

# of grid points (after initial pruning)     ...  57636 (   0.0 sec)
# of grid points (after weights+screening)   ...  53432 (   0.1 sec)
nearest neighbour list constructed           ...    0.0 sec
Grid point re-assignment to atoms done       ...    0.0 sec
Grid point division into batches done        ...    0.2 sec
Reduced shell lists constructed in    0.4 sec

Total number of grid points                  ...    53432
Total number of batches                      ...      842
Average number of points per batch           ...       63
Average number of grid points per atom       ...     4453
Average number of shells per batch           ...    35.99 (85.68%)
Average number of basis functions per batch  ...    59.42 (90.03%)
Average number of large shells per batch     ...    31.59 (87.78%)
Average number of large basis fcns per batch ...    53.73 (90.43%)
Maximum spatial batch extension              ...   3.48, 23.18,  3.62 au
Average spatial batch extension              ...   0.34,  0.51,  0.32 au

Final grid set up in    1.0 sec
Final integration                            ... done (   0.3 sec)
Change in XC energy                          ...    -0.000489135
Integrated number of electrons               ...    41.999933182
Previous integrated no of electrons          ...    42.001541040

----------------
TOTAL SCF ENERGY
----------------

Total Energy       :         -232.04433173 Eh           -6314.24728 eV

Components:
Nuclear Repulsion  :          202.71370564 Eh            5516.12036 eV
Electronic Energy  :         -434.75803737 Eh          -11830.36764 eV

One Electron Energy:         -712.62716326 Eh          -19391.57096 eV
Two Electron Energy:          277.86912589 Eh            7561.20332 eV

Virial components:
Potential Energy   :         -462.86194904 Eh          -12595.11396 eV
Kinetic Energy     :          230.81761732 Eh            6280.86668 eV
Virial Ratio       :            2.00531465


DFT components:
N(Alpha)           :       20.999966590784 electrons
N(Beta)            :       20.999966590784 electrons
N(Total)           :       41.999933181569 electrons
E(X)               :      -26.354322767405 Eh       
E(C)               :       -1.632457556415 Eh       
E(XC)              :      -27.986780323821 Eh       

---------------
SCF CONVERGENCE
---------------

  Last Energy change         ...  -1.7331e-005  Tolerance :  1.0000e-005
  Last MAX-Density change    ...   4.8223e-004  Tolerance :  1.0000e-003
  Last RMS-Density change    ...   3.8552e-005  Tolerance :  1.0000e-004
  Last DIIS Error            ...   3.2944e-004  Tolerance :  5.0000e-004

             **** THE GBW FILE WAS UPDATED (test.gbw) ****
             **** DENSITY FILE WAS UPDATED (test.scfp.tmp) ****
             **** ENERGY FILE WAS UPDATED (test.en.tmp) ****
----------------------
UHF SPIN CONTAMINATION
----------------------

Warning: in a DFT calculation there is little theoretical justification to 
         calculate <S**2> as in Hartree-Fock theory. We will do it anyways
         but you should keep in mind that the values have only limited relevance

Expectation value of <S**2>     :    -0.000000
Ideal value S*(S+1) for S=0.0   :     0.000000
Deviation                       :    -0.000000

----------------
ORBITAL ENERGIES
----------------
                 SPIN UP ORBITALS
  NO   OCC          E(Eh)            E(eV) 
   0   1.0000     -10.182570      -277.0818 
   1   1.0000     -10.182430      -277.0780 
   2   1.0000     -10.182291      -277.0742 
   3   1.0000     -10.181953      -277.0650 
   4   1.0000     -10.181839      -277.0619 
   5   1.0000     -10.181699      -277.0581 
   6   1.0000      -0.848360       -23.0851 
   7   1.0000      -0.740686       -20.1551 
   8   1.0000      -0.740662       -20.1544 
   9   1.0000      -0.597564       -16.2605 
  10   1.0000      -0.597529       -16.2596 
  11   1.0000      -0.518989       -14.1224 
  12   1.0000      -0.456299       -12.4165 
  13   1.0000      -0.440768       -11.9939 
  14   1.0000      -0.418111       -11.3774 
  15   1.0000      -0.418067       -11.3762 
  16   1.0000      -0.358420        -9.7531 
  17   1.0000      -0.338848        -9.2205 
  18   1.0000      -0.338839        -9.2203 
  19   1.0000      -0.245164        -6.6712 
  20   1.0000      -0.245094        -6.6693 
  21   0.0000       0.006735         0.1833 
  22   0.0000       0.007109         0.1935 
  23   0.0000       0.094828         2.5804 
  24   0.0000       0.145316         3.9543 
  25   0.0000       0.147227         4.0063 
  26   0.0000       0.163439         4.4474 
  27   0.0000       0.183813         5.0018 
  28   0.0000       0.184010         5.0072 
  29   0.0000       0.192513         5.2386 
  30   0.0000       0.305457         8.3119 
  31   0.0000       0.306360         8.3365 
  32   0.0000       0.324004         8.8166 
  33   0.0000       0.324788         8.8379 
  34   0.0000       0.499894        13.6028 
  35   0.0000       0.529374        14.4050 
  36   0.0000       0.544677        14.8214 
  37   0.0000       0.562169        15.2974 
  38   0.0000       0.594911        16.1884 
  39   0.0000       0.613080        16.6828 
  40   0.0000       0.613666        16.6987 
  41   0.0000       0.624848        17.0030 
  42   0.0000       0.625262        17.0143 
  43   0.0000       0.637520        17.3478 
  44   0.0000       0.668287        18.1850 
  45   0.0000       0.669807        18.2264 
  46   0.0000       0.670100        18.2343 
  47   0.0000       0.670197        18.2370 
  48   0.0000       0.741831        20.1863 
  49   0.0000       0.846684        23.0394 
  50   0.0000       0.860261        23.4089 
  51   0.0000       0.860663        23.4198 
  52   0.0000       0.903838        24.5947 
  53   0.0000       0.904088        24.6015 
  54   0.0000       0.970990        26.4220 
  55   0.0000       0.977105        26.5884 
  56   0.0000       1.008293        27.4370 
  57   0.0000       1.009385        27.4668 
  58   0.0000       1.130203        30.7544 
  59   0.0000       1.131106        30.7789 
  60   0.0000       1.192162        32.4404 
  61   0.0000       1.193332        32.4722 
  62   0.0000       1.223460        33.2920 
  63   0.0000       1.463018        39.8107 
  64   0.0000       1.464307        39.8458 
  65   0.0000       1.910093        51.9763 

                 SPIN DOWN ORBITALS
  NO   OCC          E(Eh)            E(eV) 
   0   1.0000     -10.182570      -277.0818 
   1   1.0000     -10.182430      -277.0780 
   2   1.0000     -10.182291      -277.0742 
   3   1.0000     -10.181953      -277.0650 
   4   1.0000     -10.181839      -277.0619 
   5   1.0000     -10.181699      -277.0581 
   6   1.0000      -0.848360       -23.0851 
   7   1.0000      -0.740686       -20.1551 
   8   1.0000      -0.740662       -20.1544 
   9   1.0000      -0.597564       -16.2605 
  10   1.0000      -0.597529       -16.2596 
  11   1.0000      -0.518989       -14.1224 
  12   1.0000      -0.456299       -12.4165 
  13   1.0000      -0.440768       -11.9939 
  14   1.0000      -0.418111       -11.3774 
  15   1.0000      -0.418067       -11.3762 
  16   1.0000      -0.358420        -9.7531 
  17   1.0000      -0.338848        -9.2205 
  18   1.0000      -0.338839        -9.2203 
  19   1.0000      -0.245164        -6.6712 
  20   1.0000      -0.245094        -6.6693 
  21   0.0000       0.006735         0.1833 
  22   0.0000       0.007109         0.1935 
  23   0.0000       0.094828         2.5804 
  24   0.0000       0.145316         3.9543 
  25   0.0000       0.147227         4.0063 
  26   0.0000       0.163439         4.4474 
  27   0.0000       0.183813         5.0018 
  28   0.0000       0.184010         5.0072 
  29   0.0000       0.192513         5.2386 
  30   0.0000       0.305457         8.3119 
  31   0.0000       0.306360         8.3365 
  32   0.0000       0.324004         8.8166 
  33   0.0000       0.324788         8.8379 
  34   0.0000       0.499894        13.6028 
  35   0.0000       0.529374        14.4050 
  36   0.0000       0.544677        14.8214 
  37   0.0000       0.562169        15.2974 
  38   0.0000       0.594911        16.1884 
  39   0.0000       0.613080        16.6828 
  40   0.0000       0.613666        16.6987 
  41   0.0000       0.624848        17.0030 
  42   0.0000       0.625262        17.0143 
  43   0.0000       0.637520        17.3478 
  44   0.0000       0.668287        18.1850 
  45   0.0000       0.669807        18.2264 
  46   0.0000       0.670100        18.2343 
  47   0.0000       0.670197        18.2370 
  48   0.0000       0.741831        20.1863 
  49   0.0000       0.846684        23.0394 
  50   0.0000       0.860261        23.4089 
  51   0.0000       0.860663        23.4198 
  52   0.0000       0.903838        24.5947 
  53   0.0000       0.904088        24.6015 
  54   0.0000       0.970990        26.4220 
  55   0.0000       0.977105        26.5884 
  56   0.0000       1.008293        27.4370 
  57   0.0000       1.009385        27.4668 
  58   0.0000       1.130203        30.7544 
  59   0.0000       1.131106        30.7789 
  60   0.0000       1.192162        32.4404 
  61   0.0000       1.193332        32.4722 
  62   0.0000       1.223460        33.2920 
  63   0.0000       1.463018        39.8107 
  64   0.0000       1.464307        39.8458 
  65   0.0000       1.910093        51.9763 
------------------
MOLECULAR ORBITALS
------------------
                      0         1         2         3         4         5   
                 -10.18257 -10.18243 -10.18229 -10.18195 -10.18184 -10.18170
                   1.00000   1.00000   1.00000   1.00000   1.00000   1.00000
                  --------  --------  --------  --------  --------  --------
  0C   1s         0.359253  0.234417  0.497564  0.344211 -0.497714  0.439056
  0C   2s         0.010991  0.007664  0.017144  0.012797 -0.019110  0.018419
  0C   1pz       -0.000180  0.000773 -0.000424 -0.000329 -0.000546  0.000443
  0C   1px       -0.000469 -0.000494  0.000334  0.000482 -0.000333  0.000539
  0C   1py        0.000000 -0.000000  0.000000  0.000000 -0.000000  0.000000
  0C   3s        -0.003254 -0.000964 -0.010267 -0.013130  0.021663 -0.039965
  0C   2pz        0.000324 -0.001859  0.001070  0.001144  0.004339 -0.008620
  0C   2px        0.001478  0.002853 -0.001681 -0.004164  0.003927 -0.014168
  0C   2py       -0.000000  0.000000 -0.000000 -0.000000  0.000000 -0.000000
  1C   1s         0.359254 -0.234416  0.497563  0.344212  0.497715 -0.439056
  1C   2s         0.010991 -0.007664  0.017144  0.012797  0.019110 -0.018419
  1C   1pz        0.000180  0.000773  0.000424  0.000329 -0.000546  0.000443
  1C   1px       -0.000469  0.000494  0.000334  0.000482  0.000333 -0.000539
  1C   1py       -0.000000 -0.000000  0.000000 -0.000000  0.000000 -0.000000
  1C   3s        -0.003254  0.000964 -0.010267 -0.013130 -0.021663  0.039965
  1C   2pz       -0.000324 -0.001859 -0.001070 -0.001144  0.004339 -0.008620
  1C   2px        0.001478 -0.002853 -0.001681 -0.004164 -0.003927  0.014168
  1C   2py        0.000000  0.000000  0.000000  0.000000  0.000000  0.000000
  2C   1s         0.486690 -0.620689 -0.000039 -0.508283 -0.000044  0.331788
  2C   2s         0.015880 -0.021795 -0.000001 -0.019933 -0.000002  0.014722
  2C   1pz        0.000354  0.000173  0.000000  0.000707  0.000000 -0.000671
  2C   1px        0.000000 -0.000000  0.001068 -0.000000  0.000614  0.000000
  2C   1py       -0.000000  0.000000 -0.000000  0.000000 -0.000000 -0.000000
  2C   3s        -0.008792  0.016677  0.000001  0.023972  0.000004 -0.037751
  2C   2pz       -0.000024 -0.003121 -0.000000 -0.006503 -0.000002  0.016382
  2C   2px       -0.000000  0.000000 -0.003534  0.000000 -0.003587 -0.000000
  2C   2py       -0.000000 -0.000000  0.000000 -0.000000  0.000000  0.000000
  3C   1s         0.359213 -0.234404 -0.497567  0.344248 -0.497624 -0.439166
  3C   2s         0.010989 -0.007663 -0.017144  0.012799 -0.019106 -0.018424
  3C   1pz        0.000180  0.000773 -0.000424  0.000329  0.000546  0.000444
  3C   1px        0.000469 -0.000494  0.000334 -0.000482  0.000332  0.000539
  3C   1py       -0.000000  0.000000  0.000000 -0.000000  0.000000  0.000000
  3C   3s        -0.003253  0.000963  0.010266 -0.013131  0.021654  0.039970
  3C   2pz       -0.000324 -0.001858  0.001070 -0.001144 -0.004337 -0.008621
  3C   2px       -0.001478  0.002853 -0.001681  0.004164 -0.003924 -0.014169
  3C   2py        0.000000 -0.000000 -0.000000  0.000000 -0.000000 -0.000000
  4C   1s         0.359213  0.234406 -0.497567  0.344248  0.497623  0.439165
  4C   2s         0.010989  0.007664 -0.017144  0.012799  0.019106  0.018424
  4C   1pz       -0.000180  0.000773  0.000424 -0.000329  0.000546  0.000444
  4C   1px        0.000469  0.000494  0.000334 -0.000482 -0.000332 -0.000539
  4C   1py        0.000000  0.000000 -0.000000 -0.000000  0.000000 -0.000000
  4C   3s        -0.003253 -0.000963  0.010266 -0.013131 -0.021654 -0.039970
  4C   2pz        0.000324 -0.001858 -0.001070  0.001144 -0.004337 -0.008621
  4C   2px       -0.001478 -0.002853 -0.001681  0.004164  0.003924  0.014169
  4C   2py       -0.000000 -0.000000  0.000000 -0.000000  0.000000  0.000000
  5C   1s         0.486688  0.620689 -0.000038 -0.508284  0.000044 -0.331788
  5C   2s         0.015880  0.021795 -0.000001 -0.019933  0.000002 -0.014722
  5C   1pz       -0.000354  0.000173 -0.000000 -0.000707  0.000000 -0.000671
  5C   1px        0.000000  0.000000  0.001068 -0.000000 -0.000614 -0.000000
  5C   1py       -0.000000 -0.000000  0.000000 -0.000000 -0.000000 -0.000000
  5C   3s        -0.008792 -0.016677  0.000001  0.023972 -0.000004  0.037751
  5C   2pz        0.000024 -0.003121  0.000000  0.006503 -0.000002  0.016382
  5C   2px       -0.000000 -0.000000 -0.003534  0.000000  0.003587  0.000000
  5C   2py        0.000000  0.000000 -0.000000  0.000000 -0.000000  0.000000
  6H   1s        -0.000470  0.000299 -0.000677 -0.000419 -0.000597  0.000755
  6H   2s         0.002121 -0.001158  0.001645  0.000808  0.000840  0.001606
  7H   1s        -0.000622  0.000864  0.000000  0.000604  0.000000 -0.000609
  7H   2s         0.002339 -0.001670 -0.000000 -0.000631  0.000000 -0.001961
  8H   1s        -0.000470  0.000299  0.000677 -0.000419  0.000597  0.000755
  8H   2s         0.002121 -0.001158 -0.001645  0.000809 -0.000840  0.001606
  9H   1s        -0.000470 -0.000299  0.000677 -0.000419 -0.000597 -0.000755
  9H   2s         0.002121  0.001158 -0.001645  0.000809  0.000840 -0.001606
 10H   1s        -0.000622 -0.000864  0.000000  0.000604 -0.000000  0.000609
 10H   2s         0.002339  0.001670 -0.000000 -0.000631 -0.000000  0.001961
 11H   1s        -0.000470 -0.000299 -0.000677 -0.000419  0.000597 -0.000755
 11H   2s         0.002121  0.001158  0.001645  0.000808 -0.000840 -0.001606
                      6         7         8         9        10        11   
                  -0.84836  -0.74069  -0.74066  -0.59756  -0.59753  -0.51899
                   1.00000   1.00000   1.00000   1.00000   1.00000   1.00000
                  --------  --------  --------  --------  --------  --------
  0C   1s        -0.093370 -0.065036  0.112650  0.050918 -0.088187 -0.009953
  0C   2s         0.180679  0.130398 -0.225991 -0.104998  0.181838  0.022366
  0C   1pz        0.031685 -0.079266 -0.061854 -0.139332 -0.118498 -0.099178
  0C   1px        0.054910  0.061848  0.007887  0.118423  0.002469 -0.172030
  0C   1py       -0.000000  0.000000 -0.000000  0.000000 -0.000000 -0.000000
  0C   3s         0.108510  0.096893 -0.165628 -0.083413  0.144133  0.035142
  0C   2pz        0.004864 -0.010127 -0.001749 -0.024581 -0.041235 -0.034581
  0C   2px        0.008445  0.002384  0.008677  0.041485 -0.023579 -0.059986
  0C   2py        0.000000 -0.000000 -0.000000 -0.000000  0.000000  0.000000
  1C   1s        -0.093370  0.065042  0.112646  0.050915  0.088189 -0.009953
  1C   2s         0.180679 -0.130411 -0.225983 -0.104992 -0.181842  0.022366
  1C   1pz       -0.031685 -0.079262  0.061858  0.139335 -0.118494  0.099178
  1C   1px        0.054910 -0.061848  0.007890  0.118423 -0.002466 -0.172030
  1C   1py        0.000000 -0.000000  0.000000 -0.000000 -0.000000  0.000000
  1C   3s         0.108510 -0.096903 -0.165622 -0.083408 -0.144136  0.035142
  1C   2pz       -0.004864 -0.010127  0.001750  0.024582 -0.041235  0.034581
  1C   2px        0.008445 -0.002383  0.008677  0.041484  0.023580 -0.059987
  1C   2py       -0.000000  0.000000 -0.000000  0.000000 -0.000000 -0.000000
  2C   1s        -0.093369  0.130066 -0.000004 -0.101843 -0.000001 -0.009861
  2C   2s         0.180658 -0.260821  0.000007  0.209647  0.000003  0.022009
  2C   1pz       -0.063483  0.027946 -0.000001  0.065977  0.000001  0.198361
  2C   1px        0.000000  0.000003  0.114979 -0.000003  0.207692  0.000000
  2C   1py       -0.000000  0.000000 -0.000000 -0.000000 -0.000000 -0.000000
  2C   3s         0.108305 -0.190820  0.000005  0.167583  0.000002  0.034945
  2C   2pz       -0.008962 -0.009151  0.000000  0.047787  0.000001  0.072026
  2C   2px       -0.000000  0.000000  0.011789 -0.000001  0.049394  0.000000
  2C   2py       -0.000000 -0.000000 -0.000000 -0.000000  0.000000  0.000000
  3C   1s        -0.093371  0.065036 -0.112650  0.050918 -0.088187 -0.009953
  3C   2s         0.180680 -0.130399  0.225990 -0.104998  0.181838  0.022366
  3C   1pz       -0.031685 -0.079266 -0.061853  0.139332  0.118498  0.099178
  3C   1px       -0.054910  0.061848  0.007887 -0.118423 -0.002469  0.172031
  3C   1py       -0.000000  0.000000 -0.000000 -0.000000 -0.000000  0.000000
  3C   3s         0.108510 -0.096893  0.165627 -0.083413  0.144133  0.035142
  3C   2pz       -0.004864 -0.010127 -0.001749  0.024581  0.041235  0.034581
  3C   2px       -0.008445  0.002383  0.008677 -0.041485  0.023579  0.059987
  3C   2py        0.000000 -0.000000  0.000000  0.000000 -0.000000  0.000000
  4C   1s        -0.093371 -0.065042 -0.112646  0.050915  0.088189 -0.009953
  4C   2s         0.180680  0.130411  0.225983 -0.104992 -0.181842  0.022366
  4C   1pz        0.031685 -0.079263  0.061858 -0.139336  0.118494 -0.099178
  4C   1px       -0.054910 -0.061848  0.007890 -0.118423  0.002466  0.172031
  4C   1py        0.000000 -0.000000 -0.000000  0.000000 -0.000000  0.000000
  4C   3s         0.108510  0.096903  0.165622 -0.083409 -0.144135  0.035142
  4C   2pz        0.004864 -0.010127  0.001750 -0.024582  0.041234 -0.034581
  4C   2px       -0.008445 -0.002383  0.008677 -0.041484 -0.023580  0.059987
  4C   2py       -0.000000 -0.000000 -0.000000 -0.000000  0.000000  0.000000
  5C   1s        -0.093369 -0.130066  0.000004 -0.101843 -0.000002 -0.009861
  5C   2s         0.180658  0.260821 -0.000008  0.209647  0.000003  0.022009
  5C   1pz        0.063483  0.027946 -0.000001 -0.065977 -0.000001 -0.198361
  5C   1px        0.000000  0.000004  0.114979  0.000003 -0.207692  0.000000
  5C   1py        0.000000 -0.000000 -0.000000 -0.000000  0.000000 -0.000000
  5C   3s         0.108305  0.190820 -0.000005  0.167583  0.000003  0.034945
  5C   2pz        0.008962 -0.009151  0.000000 -0.047787 -0.000001 -0.072026
  5C   2px       -0.000000  0.000000  0.011789  0.000001 -0.049394  0.000000
  5C   2py       -0.000000  0.000000  0.000000  0.000000 -0.000000 -0.000000
  6H   1s         0.036098 -0.039060 -0.067601 -0.057307 -0.099403  0.108061
  6H   2s         0.007188 -0.008658 -0.014655 -0.021332 -0.036825  0.064915
  7H   1s         0.036058 -0.077998  0.000002  0.114761  0.000002  0.107881
  7H   2s         0.006812 -0.016200  0.000000  0.042219  0.000001  0.062936
  8H   1s         0.036098 -0.039056  0.067603 -0.057310  0.099401  0.108061
  8H   2s         0.007188 -0.008658  0.014656 -0.021333  0.036824  0.064915
  9H   1s         0.036098  0.039060  0.067600 -0.057307 -0.099403  0.108061
  9H   2s         0.007188  0.008658  0.014655 -0.021332 -0.036825  0.064915
 10H   1s         0.036058  0.077998 -0.000002  0.114761  0.000002  0.107881
 10H   2s         0.006812  0.016200 -0.000000  0.042219  0.000001  0.062936
 11H   1s         0.036098  0.039056 -0.067603 -0.057310  0.099401  0.108061
 11H   2s         0.007188  0.008658 -0.014656 -0.021333  0.036824  0.064915
                     12        13        14        15        16        17   
                  -0.45630  -0.44077  -0.41811  -0.41807  -0.35842  -0.33885
                   1.00000   1.00000   1.00000   1.00000   1.00000   1.00000
                  --------  --------  --------  --------  --------  --------
  0C   1s         0.058755  0.000018  0.010890 -0.018961 -0.000000 -0.003288
  0C   2s        -0.123075  0.000042 -0.025969  0.044961 -0.000000  0.012345
  0C   1pz        0.066147 -0.239898 -0.015421  0.170128 -0.000000 -0.018706
  0C   1px        0.114420  0.138449 -0.170280  0.211964  0.000000  0.238184
  0C   1py        0.000000 -0.000000 -0.000000  0.000000 -0.223381  0.000000
  0C   3s        -0.128441 -0.000887 -0.049525  0.089465  0.000000 -0.011236
  0C   2pz        0.031466 -0.077953 -0.048387  0.025910  0.000000 -0.015532
  0C   2px        0.054292  0.044837 -0.026032  0.079244  0.000000  0.072211
  0C   2py        0.000000  0.000000 -0.000000  0.000000 -0.129430 -0.000000
  1C   1s        -0.058755  0.000018 -0.010890 -0.018961  0.000000  0.003288
  1C   2s         0.123075  0.000042  0.025970  0.044961  0.000000 -0.012345
  1C   1pz        0.066147  0.239898 -0.015423 -0.170128 -0.000000 -0.018707
  1C   1px       -0.114420  0.138449  0.170283  0.211962 -0.000000 -0.238184
  1C   1py       -0.000000  0.000000 -0.000000  0.000000 -0.223381  0.000000
  1C   3s         0.128442 -0.000887  0.049526  0.089464 -0.000000  0.011235
  1C   2pz        0.031466  0.077953 -0.048387 -0.025909  0.000000 -0.015533
  1C   2px       -0.054292  0.044837  0.026034  0.079244 -0.000000 -0.072211
  1C   2py        0.000000 -0.000000 -0.000000  0.000000 -0.129430  0.000000
  2C   1s         0.058699 -0.000000 -0.021933  0.000000 -0.000000  0.000000
  2C   2s        -0.122705  0.000000  0.052406 -0.000000 -0.000000 -0.000000
  2C   1pz       -0.132447  0.000000 -0.309820  0.000002  0.000000  0.000001
  2C   1px        0.000000 -0.276880 -0.000000 -0.082969  0.000000  0.270466
  2C   1py        0.000000 -0.000000 -0.000000  0.000000 -0.223292  0.000000
  2C   3s        -0.129086  0.000000  0.101720 -0.000000  0.000000 -0.000000
  2C   2pz       -0.063512 -0.000000 -0.097073  0.000000 -0.000000  0.000000
  2C   2px       -0.000000 -0.091548  0.000000  0.034350 -0.000000  0.103103
  2C   2py       -0.000000  0.000000 -0.000000 -0.000000 -0.129523  0.000000
  3C   1s        -0.058755 -0.000018 -0.010890  0.018961  0.000000 -0.003288
  3C   2s         0.123075 -0.000042  0.025969 -0.044961  0.000000  0.012345
  3C   1pz        0.066147 -0.239898 -0.015421  0.170128  0.000000  0.018706
  3C   1px        0.114420  0.138449 -0.170280  0.211964 -0.000000 -0.238183
  3C   1py        0.000000  0.000000 -0.000000  0.000000 -0.223381  0.000000
  3C   3s         0.128441  0.000887  0.049524 -0.089465 -0.000000 -0.011235
  3C   2pz        0.031466 -0.077953 -0.048387  0.025910  0.000000  0.015532
  3C   2px        0.054292  0.044837 -0.026032  0.079244  0.000000 -0.072211
  3C   2py        0.000000 -0.000000  0.000000 -0.000000 -0.129430  0.000000
  4C   1s         0.058755 -0.000018  0.010890  0.018961 -0.000000  0.003288
  4C   2s        -0.123075 -0.000042 -0.025970 -0.044961 -0.000000 -0.012345
  4C   1pz        0.066147  0.239898 -0.015423 -0.170128 -0.000000  0.018707
  4C   1px       -0.114420  0.138449  0.170283  0.211962  0.000000  0.238184
  4C   1py        0.000000 -0.000000 -0.000000  0.000000 -0.223381  0.000000
  4C   3s        -0.128441  0.000887 -0.049526 -0.089464  0.000000  0.011235
  4C   2pz        0.031466  0.077953 -0.048387 -0.025909  0.000000  0.015533
  4C   2px       -0.054292  0.044837  0.026034  0.079244 -0.000000  0.072211
  4C   2py       -0.000000  0.000000 -0.000000 -0.000000 -0.129430  0.000000
  5C   1s        -0.058699 -0.000000  0.021933 -0.000000  0.000000  0.000000
  5C   2s         0.122705  0.000000 -0.052406  0.000000  0.000000 -0.000000
  5C   1pz       -0.132447 -0.000000 -0.309820  0.000002  0.000000 -0.000000
  5C   1px       -0.000000 -0.276880 -0.000001 -0.082969 -0.000000 -0.270466
  5C   1py        0.000000  0.000000  0.000000  0.000000 -0.223292  0.000000
  5C   3s         0.129086  0.000000 -0.101720  0.000001 -0.000000  0.000001
  5C   2pz       -0.063512 -0.000000 -0.097073  0.000001 -0.000000  0.000000
  5C   2px       -0.000000 -0.091548  0.000000  0.034350 -0.000000 -0.103103
  5C   2py       -0.000000 -0.000000  0.000000 -0.000000 -0.129523  0.000000
  6H   1s         0.144105  0.000071 -0.084766 -0.146533  0.000000  0.153311
  6H   2s         0.089618 -0.000032 -0.078188 -0.136007  0.000000  0.158239
  7H   1s        -0.144225  0.000000 -0.168963  0.000001  0.000000  0.000001
  7H   2s        -0.089205  0.000000 -0.154119  0.000001  0.000000  0.000001
  8H   1s         0.144105 -0.000071 -0.084765  0.146534 -0.000000 -0.153312
  8H   2s         0.089618  0.000032 -0.078187  0.136008 -0.000000 -0.158239
  9H   1s        -0.144105 -0.000071  0.084767  0.146533  0.000000  0.153311
  9H   2s        -0.089618  0.000032  0.078188  0.136007  0.000000  0.158239
 10H   1s         0.144225  0.000000  0.168963 -0.000001 -0.000000  0.000000
 10H   2s         0.089205  0.000000  0.154119 -0.000001 -0.000000  0.000000
 11H   1s        -0.144105  0.000071  0.084764 -0.146534 -0.000000 -0.153312
 11H   2s        -0.089618 -0.000032  0.078186 -0.136008  0.000000 -0.158239
                     18        19        20        21        22        23   
                  -0.33884  -0.24516  -0.24509   0.00674   0.00711   0.09483
                   1.00000   1.00000   1.00000   0.00000   0.00000   0.00000
                  --------  --------  --------  --------  --------  --------
  0C   1s         0.001936  0.000000 -0.000000 -0.000000 -0.000000 -0.039393
  0C   2s        -0.006997  0.000000 -0.000000 -0.000000  0.000000  0.064769
  0C   1pz       -0.259815 -0.000000  0.000000  0.000000 -0.000000 -0.064803
  0C   1px        0.018711  0.000000 -0.000000  0.000000  0.000000 -0.110460
  0C   1py        0.000000 -0.296332 -0.171159  0.184202  0.319534  0.000000
  0C   3s         0.005391 -0.000000 -0.000000 -0.000000 -0.000000  0.533335
  0C   2pz       -0.091853 -0.000000 -0.000000 -0.000000 -0.000000 -0.150631
  0C   2px        0.016448 -0.000000 -0.000000 -0.000000 -0.000000 -0.248582
  0C   2py        0.000000 -0.214086 -0.122877  0.250214  0.432383 -0.000000
  1C   1s         0.001936 -0.000000  0.000000  0.000000 -0.000000 -0.039393
  1C   2s        -0.006997 -0.000000 -0.000000 -0.000000 -0.000000  0.064768
  1C   1pz        0.259815  0.000000  0.000000  0.000000  0.000000  0.064803
  1C   1px        0.018710  0.000000  0.000000  0.000000 -0.000000 -0.110461
  1C   1py        0.000000 -0.296333  0.171158  0.184202 -0.319534  0.000000
  1C   3s         0.005391 -0.000000  0.000000  0.000000  0.000000  0.533346
  1C   2pz        0.091853 -0.000000 -0.000000 -0.000000 -0.000000  0.150627
  1C   2px        0.016448  0.000000  0.000000  0.000000  0.000000 -0.248576
  1C   2py        0.000000 -0.214087  0.122876  0.250214 -0.432383  0.000000
  2C   1s        -0.003825  0.000000 -0.000000  0.000000 -0.000000 -0.037628
  2C   2s         0.014465  0.000000  0.000000  0.000000  0.000000  0.064467
  2C   1pz       -0.227251 -0.000000 -0.000000 -0.000000  0.000000  0.125701
  2C   1px        0.000000  0.000000 -0.000000 -0.000000  0.000000  0.000000
  2C   1py        0.000000 -0.000000  0.342049 -0.367970 -0.000000 -0.000000
  2C   3s        -0.012502 -0.000000 -0.000000 -0.000000 -0.000000  0.493802
  2C   2pz       -0.064256 -0.000000  0.000000  0.000000  0.000000  0.284074
  2C   2px        0.000000 -0.000000 -0.000000 -0.000000  0.000000  0.000000
  2C   2py        0.000000 -0.000000  0.247984 -0.500766 -0.000000 -0.000000
  3C   1s         0.001936 -0.000000 -0.000000 -0.000000  0.000000 -0.039393
  3C   2s        -0.006997 -0.000000 -0.000000 -0.000000  0.000000  0.064768
  3C   1pz        0.259815  0.000000 -0.000000 -0.000000  0.000000  0.064803
  3C   1px       -0.018711 -0.000000  0.000000  0.000000 -0.000000  0.110461
  3C   1py       -0.000000  0.296332  0.171160  0.184202  0.319534  0.000000
  3C   3s         0.005391  0.000000  0.000000  0.000000 -0.000000  0.533346
  3C   2pz        0.091853  0.000000 -0.000000 -0.000000 -0.000000  0.150627
  3C   2px       -0.016448  0.000000  0.000000 -0.000000 -0.000000  0.248576
  3C   2py       -0.000000  0.214086  0.122877  0.250214  0.432383  0.000000
  4C   1s         0.001936 -0.000000  0.000000  0.000000 -0.000000 -0.039393
  4C   2s        -0.006997 -0.000000  0.000000  0.000000 -0.000000  0.064769
  4C   1pz       -0.259815 -0.000000 -0.000000  0.000000  0.000000 -0.064803
  4C   1px       -0.018710  0.000000  0.000000 -0.000000 -0.000000  0.110461
  4C   1py       -0.000000  0.296332 -0.171159  0.184202 -0.319534  0.000000
  4C   3s         0.005391  0.000000 -0.000000 -0.000000  0.000000  0.533336
  4C   2pz       -0.091853 -0.000000 -0.000000 -0.000000 -0.000000 -0.150631
  4C   2px       -0.016448  0.000000  0.000000  0.000000  0.000000  0.248584
  4C   2py        0.000000  0.214086 -0.122877  0.250215 -0.432383 -0.000000
  5C   1s        -0.003825 -0.000000 -0.000000  0.000000  0.000000 -0.037628
  5C   2s         0.014465 -0.000000 -0.000000  0.000000  0.000000  0.064466
  5C   1pz        0.227251  0.000000 -0.000000  0.000000  0.000000 -0.125701
  5C   1px       -0.000001  0.000000  0.000000  0.000000 -0.000000  0.000000
  5C   1py        0.000000  0.000000 -0.342049 -0.367970 -0.000000  0.000000
  5C   3s        -0.012502  0.000000  0.000000  0.000000 -0.000000  0.493812
  5C   2pz        0.064256  0.000000  0.000000  0.000000  0.000000 -0.284065
  5C   2px       -0.000000 -0.000000  0.000000  0.000000 -0.000000 -0.000000
  5C   2py       -0.000000  0.000000 -0.247984 -0.500766  0.000000  0.000000
  6H   1s         0.088504  0.000000 -0.000000  0.000000  0.000000 -0.061853
  6H   2s         0.091888  0.000000  0.000000  0.000000 -0.000000 -0.751395
  7H   1s        -0.176926 -0.000000 -0.000000 -0.000000 -0.000000 -0.062464
  7H   2s        -0.181857  0.000000 -0.000000 -0.000000 -0.000000 -0.727835
  8H   1s         0.088504  0.000000  0.000000  0.000000  0.000000 -0.061853
  8H   2s         0.091888 -0.000000 -0.000000  0.000000  0.000000 -0.751395
  9H   1s         0.088505 -0.000000 -0.000000  0.000000 -0.000000 -0.061853
  9H   2s         0.091889 -0.000000  0.000000  0.000000 -0.000000 -0.751399
 10H   1s        -0.176926 -0.000000  0.000000  0.000000  0.000000 -0.062464
 10H   2s        -0.181857  0.000000  0.000000  0.000000  0.000000 -0.727832
 11H   1s         0.088504  0.000000 -0.000000 -0.000000 -0.000000 -0.061853
 11H   2s         0.091888 -0.000000 -0.000000 -0.000000 -0.000000 -0.751397
                     24        25        26        27        28        29   
                   0.14532   0.14723   0.16344   0.18381   0.18401   0.19251
                   0.00000   0.00000   0.00000   0.00000   0.00000   0.00000
                  --------  --------  --------  --------  --------  --------
  0C   1s        -0.033208 -0.019630  0.000000  0.077516 -0.044149  0.056458
  0C   2s         0.033543  0.021030 -0.000000 -0.111918  0.062963 -0.150049
  0C   1pz       -0.095839 -0.085113  0.000000  0.015049 -0.094229  0.035925
  0C   1px       -0.195082 -0.096473  0.000000  0.112020 -0.013691  0.064156
  0C   1py       -0.000000  0.000000 -0.294089  0.000000 -0.000000  0.000000
  0C   3s         0.809412  0.464685 -0.000000 -1.392013  0.794956  0.065574
  0C   2pz       -0.344410 -0.025700  0.000000  0.024437 -0.455891  0.559365
  0C   2px       -0.410642 -0.346360  0.000000  0.497788 -0.030305  0.989152
  0C   2py       -0.000000  0.000000 -0.545655  0.000000 -0.000000  0.000000
  1C   1s        -0.033208  0.019631 -0.000000 -0.077519 -0.044144 -0.056458
  1C   2s         0.033543 -0.021030  0.000000  0.111922  0.062956  0.150049
  1C   1pz        0.095838 -0.085115 -0.000000  0.015055  0.094228  0.035924
  1C   1px       -0.195080  0.096476  0.000000 -0.112020 -0.013684 -0.064156
  1C   1py        0.000000 -0.000000  0.294089 -0.000000  0.000000 -0.000000
  1C   3s         0.809406 -0.464699 -0.000000  1.392069  0.794858 -0.065576
  1C   2pz        0.344411 -0.025706 -0.000000  0.024468  0.455894  0.559364
  1C   2px       -0.410634  0.346366 -0.000000 -0.497787 -0.030277 -0.989151
  1C   2py        0.000000 -0.000000  0.545655 -0.000000  0.000000 -0.000000
  2C   1s         0.000000  0.037607  0.000000  0.000003  0.089842  0.056596
  2C   2s        -0.000000 -0.039452 -0.000000 -0.000006 -0.131238 -0.151461
  2C   1pz       -0.000002 -0.250165 -0.000000 -0.000005 -0.123065 -0.077332
  2C   1px       -0.027886  0.000000  0.000000  0.086032 -0.000003 -0.000000
  2C   1py       -0.000000  0.000000 -0.292845  0.000000 -0.000000  0.000000
  2C   3s        -0.000010 -0.918567  0.000000 -0.000052 -1.606278  0.073498
  2C   2pz       -0.000004 -0.601821 -0.000000 -0.000026 -0.518688 -1.145766
  2C   2px        0.184151 -0.000002  0.000000  0.434248 -0.000014 -0.000003
  2C   2py       -0.000000  0.000000 -0.546532  0.000000 -0.000000  0.000000
  3C   1s         0.033208  0.019630  0.000000  0.077515 -0.044150 -0.056459
  3C   2s        -0.033543 -0.021029  0.000000 -0.111915  0.062964  0.150050
  3C   1pz       -0.095839 -0.085113 -0.000000 -0.015048  0.094229  0.035924
  3C   1px       -0.195082 -0.096473 -0.000000 -0.112019  0.013692  0.064157
  3C   1py        0.000000 -0.000000  0.294089 -0.000000  0.000000 -0.000000
  3C   3s        -0.809413 -0.464682 -0.000000 -1.392021  0.794953 -0.065559
  3C   2pz       -0.344410 -0.025701  0.000000 -0.024429  0.455893  0.559363
  3C   2px       -0.410642 -0.346358  0.000000 -0.497770  0.030312  0.989157
  3C   2py        0.000000 -0.000000  0.545655 -0.000000  0.000000 -0.000000
  4C   1s         0.033207 -0.019631 -0.000000 -0.077518 -0.044144  0.056459
  4C   2s        -0.033543  0.021030 -0.000000  0.111920  0.062956 -0.150051
  4C   1pz        0.095837 -0.085115 -0.000000 -0.015055 -0.094228  0.035925
  4C   1px       -0.195080  0.096476  0.000000  0.112020  0.013684 -0.064157
  4C   1py       -0.000000  0.000000 -0.294089  0.000000 -0.000000  0.000000
  4C   3s        -0.809404  0.464696  0.000000  1.392077  0.794859  0.065557
  4C   2pz        0.344410 -0.025707  0.000000 -0.024460 -0.455891  0.559364
  4C   2px       -0.410632  0.346366  0.000000  0.497772  0.030272 -0.989159
  4C   2py       -0.000000  0.000000 -0.545655  0.000000 -0.000000  0.000000
  5C   1s        -0.000000 -0.037607 -0.000000  0.000003  0.089842 -0.056596
  5C   2s         0.000000  0.039452  0.000000 -0.000003 -0.131237  0.151462
  5C   1pz       -0.000002 -0.250165 -0.000000  0.000004  0.123065 -0.077333
  5C   1px       -0.027886  0.000000 -0.000000 -0.086032  0.000003  0.000000
  5C   1py        0.000000 -0.000000  0.292845 -0.000000  0.000000 -0.000000
  5C   3s         0.000011  0.918568  0.000000 -0.000061 -1.606281 -0.073494
  5C   2pz       -0.000004 -0.601820 -0.000000  0.000006  0.518682 -1.145771
  5C   2px        0.184150 -0.000002 -0.000000 -0.434247  0.000015  0.000002
  5C   2py        0.000000 -0.000000  0.546532 -0.000000  0.000000 -0.000000
  6H   1s        -0.040693  0.024657  0.000000 -0.014489 -0.006686 -0.047231
  6H   2s        -1.064976  0.623959  0.000000 -1.073387 -0.612233 -1.177215
  7H   1s         0.000000  0.048524  0.000000  0.000001  0.018114  0.048822
  7H   2s         0.000010  1.217105  0.000000  0.000051  1.249722  1.192238
  8H   1s         0.040693  0.024656  0.000000  0.014488 -0.006687 -0.047231
  8H   2s         1.064986  0.623940  0.000000  1.073331 -0.612307 -1.177227
  9H   1s         0.040693 -0.024657 -0.000000 -0.014489 -0.006685  0.047231
  9H   2s         1.064972 -0.623958 -0.000000 -1.073373 -0.612228  1.177230
 10H   1s        -0.000000 -0.048524 -0.000000  0.000000  0.018114 -0.048822
 10H   2s        -0.000010 -1.217104 -0.000000  0.000033  1.249717 -1.192245
 11H   1s        -0.040693 -0.024656  0.000000  0.014489 -0.006686  0.047231
 11H   2s        -1.064986 -0.623942  0.000000  1.073348 -0.612300  1.177217
                     30        31        32        33        34        35   
                   0.30546   0.30636   0.32400   0.32479   0.49989   0.52937
                   0.00000   0.00000   0.00000   0.00000   0.00000   0.00000
                  --------  --------  --------  --------  --------  --------
  0C   1s         0.066300  0.038440 -0.046318  0.026430  0.000182  0.000000
  0C   2s        -0.067349 -0.038605  0.031984 -0.017941  0.000388  0.000000
  0C   1pz       -0.126248 -0.050518 -0.113352 -0.240892 -0.307030 -0.000000
  0C   1px       -0.197540 -0.127986  0.112040  0.112793  0.175468 -0.000000
  0C   1py        0.000000  0.000000  0.000000 -0.000000 -0.000000 -0.425601
  0C   3s        -1.774869 -1.026872  1.759953 -1.007292 -0.004835 -0.000000
  0C   2pz       -1.066618  0.258610 -0.784159 -1.604042  0.462508 -0.000000
  0C   2px       -0.999871 -1.081031  0.700858  0.784737 -0.266238 -0.000000
  0C   2py       -0.000000 -0.000000 -0.000000  0.000000  0.000000  0.302929
  1C   1s        -0.066298  0.038443 -0.046320 -0.026427  0.000182 -0.000000
  1C   2s         0.067348 -0.038606  0.031985  0.017939  0.000388  0.000000
  1C   1pz       -0.126246  0.050524  0.113338 -0.240898  0.307030 -0.000000
  1C   1px        0.197534 -0.127994  0.112035 -0.112800  0.175468  0.000000
  1C   1py        0.000000 -0.000000 -0.000000 -0.000000 -0.000000 -0.425601
  1C   3s         1.774817 -1.026963  1.760017  1.007191 -0.004842  0.000000
  1C   2pz       -1.066632 -0.258555  0.784063 -1.604087 -0.462505 -0.000000
  1C   2px        0.999823 -1.081079  0.700817 -0.784779 -0.266243  0.000000
  1C   2py       -0.000000  0.000000  0.000000  0.000000 -0.000000  0.302929
  2C   1s        -0.000002 -0.076925 -0.000002 -0.054143 -0.000000  0.000000
  2C   2s         0.000001  0.079448  0.000002  0.040275 -0.000001 -0.000000
  2C   1pz       -0.000006 -0.269803 -0.000003 -0.043190  0.000000  0.000000
  2C   1px        0.021716 -0.000003  0.303231 -0.000009 -0.359140  0.000000
  2C   1py        0.000000  0.000000  0.000000 -0.000000 -0.000000 -0.429484
  2C   3s         0.000044  2.050319  0.000080  2.032736  0.000005 -0.000000
  2C   2pz       -0.000035 -1.616630 -0.000022 -0.251596 -0.000004  0.000000
  2C   2px        0.901810 -0.000035  2.066256 -0.000059  0.528858  0.000000
  2C   2py       -0.000000 -0.000000 -0.000000  0.000000  0.000000  0.308639
  3C   1s         0.066300  0.038439  0.046319 -0.026430 -0.000182 -0.000000
  3C   2s        -0.067349 -0.038603 -0.031984  0.017941 -0.000389  0.000000
  3C   1pz        0.126248  0.050521 -0.113350 -0.240892 -0.307030  0.000000
  3C   1px        0.197539  0.127984  0.112043  0.112793  0.175469 -0.000000
  3C   1py       -0.000000 -0.000000 -0.000000 -0.000000 -0.000000 -0.425601
  3C   3s        -1.774860 -1.026863 -1.759984  1.007288  0.004835  0.000000
  3C   2pz        1.066619 -0.258587 -0.784160 -1.604040  0.462509 -0.000000
  3C   2px        0.999868  1.081028  0.700881  0.784738 -0.266238 -0.000000
  3C   2py        0.000000  0.000000  0.000000  0.000000  0.000000  0.302930
  4C   1s        -0.066298  0.038442  0.046320  0.026427 -0.000182  0.000000
  4C   2s         0.067348 -0.038607 -0.031985 -0.017940 -0.000389  0.000000
  4C   1pz        0.126246 -0.050526  0.113337 -0.240898  0.307030 -0.000000
  4C   1px       -0.197534  0.127992  0.112036 -0.112799  0.175469  0.000000
  4C   1py        0.000000  0.000000  0.000000  0.000000 -0.000000 -0.425601
  4C   3s         1.774826 -1.026919 -1.760032 -1.007192  0.004843 -0.000000
  4C   2pz        1.066626  0.258553  0.784076 -1.604083 -0.462506 -0.000000
  4C   2px       -0.999826  1.081062  0.700833 -0.784775 -0.266243  0.000000
  4C   2py       -0.000000 -0.000000 -0.000000 -0.000000  0.000000  0.302930
  5C   1s        -0.000002 -0.076925  0.000001  0.054142  0.000000 -0.000000
  5C   2s         0.000002  0.079450 -0.000000 -0.040274 -0.000001  0.000000
  5C   1pz        0.000006  0.269803  0.000001 -0.043189 -0.000000  0.000000
  5C   1px       -0.021718 -0.000002  0.303231 -0.000008 -0.359140 -0.000000
  5C   1py       -0.000000 -0.000000 -0.000000 -0.000000 -0.000000 -0.429484
  5C   3s         0.000041  2.050310 -0.000035 -2.032731 -0.000003  0.000000
  5C   2pz        0.000033  1.616620  0.000007 -0.251592 -0.000002  0.000000
  5C   2px       -0.901820  0.000002  2.066253 -0.000056  0.528858 -0.000000
  5C   2py        0.000000  0.000000 -0.000000  0.000000 -0.000000  0.308639
  6H   1s         0.014861 -0.008176  0.121946  0.070655 -0.001112 -0.000000
  6H   2s         0.859762 -0.494868 -0.100841 -0.057004  0.001703  0.000000
  7H   1s         0.000000  0.017664  0.000004  0.140476 -0.000000  0.000000
  7H   2s         0.000021  0.990911  0.000004 -0.120722  0.000001 -0.000000
  8H   1s        -0.014861 -0.008174 -0.121943  0.070661  0.001113 -0.000000
  8H   2s        -0.859782 -0.494834  0.100831 -0.057009 -0.001707  0.000000
  9H   1s         0.014861 -0.008174 -0.121947 -0.070654  0.001113  0.000000
  9H   2s         0.859761 -0.494866  0.100838  0.057002 -0.001705 -0.000000
 10H   1s         0.000000  0.017665 -0.000004 -0.140476  0.000000 -0.000000
 10H   2s         0.000020  0.990907  0.000011  0.120725 -0.000001  0.000000
 11H   1s        -0.014862 -0.008175  0.121942 -0.070662 -0.001112  0.000000
 11H   2s        -0.859782 -0.494828 -0.100842  0.057008  0.001706 -0.000000
                     36        37        38        39        40        41   
                   0.54468   0.56217   0.59491   0.61308   0.61367   0.62485
                   0.00000   0.00000   0.00000   0.00000   0.00000   0.00000
                  --------  --------  --------  --------  --------  --------
  0C   1s        -0.112009 -0.000602 -0.007462  0.000000 -0.000000  0.060470
  0C   2s         0.103213 -0.000106  0.426292  0.000000  0.000000 -0.050795
  0C   1pz        0.094138  0.275963  0.139446 -0.000000 -0.000000 -0.344845
  0C   1px        0.160249 -0.155057  0.240259 -0.000000  0.000000 -0.032255
  0C   1py       -0.000000 -0.000000 -0.000000 -0.304985 -0.536464  0.000000
  0C   3s         3.842852  0.004620 -0.222950 -0.000000  0.000000  0.056345
  0C   2pz        1.459867  2.880550 -0.134825 -0.000000  0.000000  0.263399
  0C   2px        2.527156 -1.660137 -0.233764 -0.000000  0.000000 -0.175767
  0C   2py        0.000000  0.000000  0.000000  0.290977  0.522992 -0.000000
  1C   1s         0.112009  0.000602 -0.007462 -0.000000  0.000000 -0.060470
  1C   2s        -0.103211  0.000107  0.426292  0.000000 -0.000000  0.050794
  1C   1pz        0.094137  0.275963 -0.139447  0.000000  0.000000 -0.344852
  1C   1px       -0.160250  0.155057  0.240259  0.000000  0.000000  0.032249
  1C   1py        0.000000  0.000000 -0.000000  0.304985 -0.536464 -0.000000
  1C   3s        -3.842855 -0.004621 -0.222949  0.000000 -0.000000 -0.056345
  1C   2pz        1.459869  2.880551  0.134824 -0.000000  0.000000  0.263407
  1C   2px       -2.527156  1.660137 -0.233764  0.000000 -0.000000  0.175771
  1C   2py       -0.000000 -0.000000  0.000000 -0.290977  0.522993  0.000000
  2C   1s        -0.111829 -0.000002 -0.007544  0.000000 -0.000000 -0.000001
  2C   2s         0.104231  0.000002  0.424453 -0.000000  0.000000  0.000002
  2C   1pz       -0.185247 -0.000002 -0.280923  0.000000 -0.000000 -0.000002
  2C   1px       -0.000005  0.309072 -0.000000  0.000000 -0.000000  0.576163
  2C   1py        0.000000 -0.000000  0.000000  0.624183  0.000000 -0.000000
  2C   3s         3.838676  0.000060 -0.219123 -0.000000  0.000000  0.000009
  2C   2pz       -2.919216 -0.000043  0.273522  0.000000 -0.000000 -0.000007
  2C   2px       -0.000044  3.328462 -0.000000 -0.000000 -0.000000 -0.570154
  2C   2py       -0.000000  0.000000 -0.000000 -0.614804 -0.000000  0.000000
  3C   1s         0.112009 -0.000599 -0.007462 -0.000000  0.000000  0.060471
  3C   2s        -0.103210 -0.000110  0.426293  0.000000  0.000000 -0.050794
  3C   1pz        0.094144 -0.275961 -0.139448  0.000000  0.000000  0.344848
  3C   1px        0.160245  0.155061 -0.240258 -0.000000  0.000000  0.032254
  3C   1py       -0.000000  0.000000  0.000000  0.304985  0.536463 -0.000000
  3C   3s        -3.842863  0.004513 -0.222949  0.000000 -0.000000  0.056328
  3C   2pz        1.459950 -2.880517  0.134827 -0.000000 -0.000000 -0.263399
  3C   2px        2.527113  1.660210  0.233762 -0.000000  0.000000  0.175782
  3C   2py        0.000000 -0.000000 -0.000000 -0.290978 -0.522992  0.000000
  4C   1s        -0.112009  0.000599 -0.007462  0.000000 -0.000000 -0.060470
  4C   2s         0.103213  0.000109  0.426293 -0.000000  0.000000  0.050793
  4C   1pz        0.094145 -0.275960  0.139448 -0.000000 -0.000000  0.344854
  4C   1px       -0.160246 -0.155061 -0.240258  0.000000 -0.000000 -0.032248
  4C   1py       -0.000000  0.000000  0.000000 -0.304985  0.536463  0.000000
  4C   3s         3.842861 -0.004512 -0.222951 -0.000000 -0.000000 -0.056328
  4C   2pz        1.459948 -2.880518 -0.134827 -0.000000  0.000000 -0.263407
  4C   2px       -2.527111 -1.660209  0.233764  0.000000 -0.000000 -0.175787
  4C   2py        0.000000 -0.000000 -0.000000  0.290978 -0.522992 -0.000000
  5C   1s         0.111829  0.000002 -0.007544 -0.000000  0.000000 -0.000000
  5C   2s        -0.104230 -0.000002  0.424453 -0.000000  0.000000 -0.000002
  5C   1pz       -0.185249 -0.000003  0.280924  0.000000 -0.000000  0.000002
  5C   1px        0.000006 -0.309072 -0.000000 -0.000000 -0.000000 -0.576163
  5C   1py       -0.000000 -0.000000 -0.000000 -0.624183  0.000000  0.000000
  5C   3s        -3.838677 -0.000061 -0.219122  0.000000 -0.000000 -0.000010
  5C   2pz       -2.919211 -0.000042 -0.273521  0.000000 -0.000000 -0.000007
  5C   2px        0.000043 -3.328462  0.000000  0.000000  0.000000  0.570154
  5C   2py        0.000000  0.000000  0.000000  0.614804 -0.000000 -0.000000
  6H   1s         0.159451  0.000908 -0.160579 -0.000000  0.000000 -0.221101
  6H   2s        -1.186796 -0.002303  0.087565  0.000000 -0.000000  0.083147
  7H   1s        -0.159162 -0.000002 -0.160600  0.000000  0.000000 -0.000002
  7H   2s         1.188253  0.000017  0.086055 -0.000000  0.000000  0.000004
  8H   1s         0.159450 -0.000903 -0.160579 -0.000000  0.000000  0.221105
  8H   2s        -1.186797  0.002270  0.087565  0.000000 -0.000000 -0.083153
  9H   1s        -0.159450  0.000903 -0.160579  0.000000  0.000000 -0.221103
  9H   2s         1.186796 -0.002270  0.087565 -0.000000  0.000000  0.083152
 10H   1s         0.159162  0.000002 -0.160600  0.000000  0.000000 -0.000003
 10H   2s        -1.188251 -0.000016  0.086055  0.000000 -0.000000 -0.000002
 11H   1s        -0.159450 -0.000908 -0.160579  0.000000 -0.000000  0.221103
 11H   2s         1.186796  0.002303  0.087565 -0.000000  0.000000 -0.083148
                     42        43        44        45        46        47   
                   0.62526   0.63752   0.66829   0.66981   0.67010   0.67020
                   0.00000   0.00000   0.00000   0.00000   0.00000   0.00000
                  --------  --------  --------  --------  --------  --------
  0C   1s         0.034680  0.007789  0.000000 -0.018444 -0.032315 -0.000000
  0C   2s        -0.043496  0.463965  0.000000 -0.238955 -0.411750 -0.000001
  0C   1pz        0.371780 -0.004566  0.000000  0.414223 -0.244790 -0.000000
  0C   1px       -0.346260 -0.037908 -0.000000 -0.243739  0.134067  0.000000
  0C   1py       -0.000000  0.000000  0.318822  0.000000 -0.000001  0.548957
  0C   3s         0.050593 -0.574304 -0.000000  0.155535  0.251973  0.000000
  0C   2pz       -0.451294  0.093907 -0.000000 -0.469372  0.253044  0.000000
  0C   2px        0.241589  0.197205  0.000000  0.249702 -0.188244 -0.000000
  0C   2py        0.000000 -0.000000 -0.515284 -0.000000  0.000001 -0.891024
  1C   1s         0.034681  0.007789  0.000000  0.018444 -0.032315 -0.000000
  1C   2s        -0.043497  0.463966  0.000000  0.238957 -0.411748 -0.000001
  1C   1pz       -0.371774  0.004566 -0.000000  0.414222  0.244792  0.000000
  1C   1px       -0.346260 -0.037908 -0.000000  0.243738  0.134069  0.000000
  1C   1py       -0.000000 -0.000000  0.318822 -0.000000  0.000001 -0.548957
  1C   3s         0.050595 -0.574302 -0.000000 -0.155536  0.251971  0.000000
  1C   2pz        0.451290 -0.093909 -0.000000 -0.469370 -0.253047 -0.000000
  1C   2px        0.241586  0.197207  0.000000 -0.249701 -0.188246 -0.000000
  1C   2py        0.000000  0.000000 -0.515284  0.000000 -0.000001  0.891023
  2C   1s        -0.069782  0.004690  0.000000  0.037334 -0.000000 -0.000000
  2C   2s         0.041471  0.468757  0.000000  0.479147  0.000002 -0.000000
  2C   1pz       -0.232102  0.031110 -0.000000 -0.001825 -0.000001  0.000000
  2C   1px       -0.000007 -0.000001 -0.000000 -0.000004  0.555634  0.000001
  2C   1py        0.000000  0.000000 -0.632733  0.000000 -0.000000 -0.000000
  2C   3s        -0.045637 -0.582404 -0.000000 -0.305174 -0.000000  0.000000
  2C   2pz       -0.012126 -0.239504 -0.000000 -0.057874 -0.000001  0.000000
  2C   2px        0.000011  0.000001  0.000000 -0.000000 -0.622806 -0.000001
  2C   2py       -0.000000 -0.000000  1.026996 -0.000000  0.000000  0.000000
  3C   1s         0.034679  0.007789 -0.000000  0.018444  0.032316  0.000000
  3C   2s        -0.043499  0.463965 -0.000000  0.238955  0.411750  0.000001
  3C   1pz       -0.371778  0.004566  0.000000  0.414221 -0.244793 -0.000000
  3C   1px        0.346258  0.037907 -0.000000 -0.243740  0.134072  0.000000
  3C   1py        0.000000 -0.000000  0.318823  0.000000 -0.000001  0.548957
  3C   3s         0.050591 -0.574302  0.000000 -0.155535 -0.251974 -0.000000
  3C   2pz        0.451289 -0.093908 -0.000000 -0.469363  0.253047  0.000000
  3C   2px       -0.241585 -0.197206  0.000000  0.249699 -0.188247 -0.000000
  3C   2py       -0.000000  0.000000 -0.515284 -0.000000  0.000001 -0.891023
  4C   1s         0.034680  0.007789 -0.000000 -0.018444  0.032315  0.000000
  4C   2s        -0.043500  0.463965 -0.000000 -0.238957  0.411748  0.000001
  4C   1pz        0.371771 -0.004567  0.000000  0.414220  0.244796  0.000000
  4C   1px        0.346259  0.037908 -0.000000  0.243739  0.134073  0.000000
  4C   1py        0.000000 -0.000000  0.318823 -0.000000  0.000001 -0.548957
  4C   3s         0.050591 -0.574304  0.000000  0.155537 -0.251974 -0.000000
  4C   2pz       -0.451285  0.093908 -0.000000 -0.469361 -0.253050 -0.000000
  4C   2px       -0.241582 -0.197205  0.000000 -0.249698 -0.188248 -0.000000
  4C   2py       -0.000000  0.000000 -0.515285  0.000000 -0.000001  0.891023
  5C   1s        -0.069782  0.004690 -0.000000 -0.037334 -0.000000  0.000000
  5C   2s         0.041471  0.468758 -0.000000 -0.479146 -0.000001  0.000000
  5C   1pz        0.232102 -0.031109 -0.000000 -0.001825  0.000001  0.000000
  5C   1px        0.000003 -0.000001 -0.000000  0.000000  0.555634  0.000001
  5C   1py       -0.000000  0.000000 -0.632733  0.000000 -0.000000  0.000000
  5C   3s        -0.045636 -0.582402  0.000000  0.305173  0.000002  0.000000
  5C   2pz        0.012126  0.239505  0.000000 -0.057874  0.000001 -0.000000
  5C   2px        0.000001  0.000001  0.000000  0.000004 -0.622807 -0.000001
  5C   2py        0.000000 -0.000000  1.026996 -0.000000  0.000000  0.000000
  6H   1s         0.118493  0.376225  0.000000  0.171585 -0.298227 -0.000000
  6H   2s        -0.050013  0.060708  0.000000  0.023263 -0.038573 -0.000000
  7H   1s        -0.266120  0.364676  0.000000  0.345248  0.000000 -0.000000
  7H   2s         0.089881  0.077561  0.000000  0.055194  0.000001  0.000000
  8H   1s         0.118486  0.376224 -0.000000  0.171581  0.298231  0.000000
  8H   2s        -0.050011  0.060708 -0.000000  0.023263  0.038573  0.000000
  9H   1s         0.118490  0.376225 -0.000000 -0.171583  0.298229  0.000000
  9H   2s        -0.050013  0.060707 -0.000000 -0.023263  0.038572  0.000000
 10H   1s        -0.266120  0.364675 -0.000000 -0.345248 -0.000002  0.000000
 10H   2s         0.089882  0.077562 -0.000000 -0.055194  0.000000 -0.000000
 11H   1s         0.118489  0.376225  0.000000 -0.171583 -0.298228 -0.000000
 11H   2s        -0.050011  0.060707  0.000000 -0.023263 -0.038573 -0.000000
                     48        49        50        51        52        53   
                   0.74183   0.84668   0.86026   0.86066   0.90384   0.90409
                   0.00000   0.00000   0.00000   0.00000   0.00000   0.00000
                  --------  --------  --------  --------  --------  --------
  0C   1s         0.000000  0.005345  0.014068 -0.024487  0.011831 -0.020339
  0C   2s         0.000000 -0.005654 -0.094512  0.162813 -0.350427  0.615451
  0C   1pz        0.000000  0.272595  0.184246 -0.273662  0.068095 -0.264373
  0C   1px        0.000000  0.469767  0.276226 -0.505476  0.271249 -0.370464
  0C   1py        0.449161 -0.000000 -0.000000 -0.000000  0.000000 -0.000000
  0C   3s        -0.000000 -2.307581 -0.127970  0.223310  0.963045 -1.693069
  0C   2pz       -0.000000 -1.488117 -0.592249  1.038822  0.257365  0.809286
  0C   2px       -0.000000 -2.561504 -1.052919  1.811428 -0.833909  0.669194
  0C   2py       -1.173916  0.000000  0.000000 -0.000000 -0.000000  0.000000
  1C   1s         0.000000 -0.005345  0.014063  0.024490 -0.011822 -0.020344
  1C   2s        -0.000000  0.005653 -0.094479 -0.162835  0.350161  0.615602
  1C   1pz       -0.000000  0.272596 -0.184193 -0.273698  0.067980  0.264402
  1C   1px        0.000000 -0.469769  0.276126  0.505528 -0.271087 -0.370581
  1C   1py       -0.449161  0.000000  0.000000  0.000000 -0.000000 -0.000000
  1C   3s         0.000000  2.307588 -0.127912 -0.223321 -0.962313 -1.693484
  1C   2pz        0.000000 -1.488123  0.592043  1.038936  0.257715 -0.809174
  1C   2px       -0.000000  2.561516 -1.052553 -1.811623  0.833618  0.669552
  1C   2py        1.173916 -0.000000 -0.000000 -0.000000  0.000000  0.000000
  2C   1s         0.000000  0.005821 -0.028316 -0.000003 -0.023529 -0.000005
  2C   2s        -0.000000 -0.010286  0.189641  0.000017  0.701237  0.000151
  2C   1pz        0.000000 -0.552770  0.664501  0.000056  0.521824  0.000113
  2C   1px       -0.000000 -0.000000  0.000002 -0.020657 -0.000020  0.089011
  2C   1py        0.440218  0.000000 -0.000000  0.000000  0.000000  0.000000
  2C   3s         0.000000 -2.281434  0.252916  0.000005 -1.968601 -0.000425
  2C   2pz       -0.000000  2.983288 -2.416525 -0.000196 -1.129370 -0.000244
  2C   2px        0.000000  0.000006  0.000003 -0.032204  0.000164 -0.734694
  2C   2py       -1.164802 -0.000000  0.000000 -0.000000 -0.000000 -0.000000
  3C   1s        -0.000000 -0.005345  0.014068 -0.024487 -0.011831  0.020339
  3C   2s         0.000000  0.005651 -0.094511  0.162816  0.350427 -0.615450
  3C   1pz       -0.000000  0.272593 -0.184242  0.273669  0.068096 -0.264372
  3C   1px       -0.000000  0.469760 -0.276219  0.505484  0.271248 -0.370463
  3C   1py       -0.449162  0.000000  0.000000 -0.000000 -0.000000 -0.000000
  3C   3s        -0.000000  2.307584 -0.127949  0.223340 -0.963043  1.693072
  3C   2pz        0.000000 -1.488115  0.592233 -1.038855  0.257353  0.809280
  3C   2px        0.000000 -2.561483  1.052887 -1.811471 -0.833905  0.669190
  3C   2py        1.173917 -0.000000 -0.000000  0.000000  0.000000  0.000000
  4C   1s        -0.000000  0.005344  0.014063  0.024490  0.011822  0.020345
  4C   2s         0.000000 -0.005650 -0.094482 -0.162831 -0.350160 -0.615602
  4C   1pz       -0.000000  0.272590  0.184196  0.273702  0.067982  0.264404
  4C   1px       -0.000000 -0.469757 -0.276132 -0.505535 -0.271087 -0.370582
  4C   1py        0.449162 -0.000000 -0.000000  0.000000  0.000000  0.000000
  4C   3s        -0.000000 -2.307584 -0.127931 -0.223372  0.962310  1.693483
  4C   2pz        0.000000 -1.488105 -0.592061 -1.038959  0.257705 -0.809182
  4C   2px        0.000000  2.561467  1.052582  1.811664  0.833613  0.669558
  4C   2py       -1.173917  0.000000  0.000000 -0.000000 -0.000000 -0.000000
  5C   1s        -0.000000 -0.005821 -0.028316 -0.000003  0.023529  0.000005
  5C   2s        -0.000000  0.010283  0.189643  0.000019 -0.701238 -0.000151
  5C   1pz       -0.000000 -0.552760 -0.664508 -0.000066  0.521824  0.000113
  5C   1px       -0.000000 -0.000000 -0.000001  0.020656 -0.000018  0.089012
  5C   1py       -0.440218  0.000000  0.000000 -0.000000 -0.000000  0.000000
  5C   3s         0.000000  2.281432  0.252937  0.000038  1.968603  0.000425
  5C   2pz        0.000000  2.983253  2.416559  0.000248 -1.129372 -0.000243
  5C   2px        0.000000 -0.000003 -0.000006  0.032211  0.000153 -0.734697
  5C   2py        1.164801 -0.000000 -0.000000  0.000000  0.000000 -0.000000
  6H   1s         0.000000 -0.119224  0.188784  0.334215 -0.180647 -0.307436
[...]
      py      :     0.000000
  2 C s       :    -0.000000  s :    -0.000000
      pz      :     0.000000  p :    -0.000000
      px      :     0.000000
      py      :    -0.000000
  3 C s       :    -0.000000  s :    -0.000000
      pz      :    -0.000000  p :    -0.000000
      px      :     0.000000
      py      :    -0.000000
  4 C s       :     0.000000  s :     0.000000
      pz      :     0.000000  p :     0.000000
      px      :     0.000000
      py      :     0.000000
  5 C s       :     0.000000  s :     0.000000
      pz      :     0.000000  p :    -0.000000
      px      :    -0.000000
      py      :     0.000000
  6 H s       :    -0.000000  s :    -0.000000
  7 H s       :     0.000000  s :     0.000000
  8 H s       :    -0.000000  s :    -0.000000
  9 H s       :     0.000000  s :     0.000000
 10 H s       :    -0.000000  s :    -0.000000
 11 H s       :     0.000000  s :     0.000000


                      *****************************
                      * MAYER POPULATION ANALYSIS *
                      *****************************

  NA   - Mulliken gross atomic population
  ZA   - Total nuclear charge
  QA   - Mulliken gross atomic charge
  VA   - Mayer's total valence
  BVA  - Mayer's bonded valence
  FA   - Mayer's free valence

  ATOM       NA         ZA         QA         VA         BVA        FA
  0 C      6.1215     6.0000    -0.1215     3.9050     3.9050    -0.0000
  1 C      6.1215     6.0000    -0.1215     3.9050     3.9050    -0.0000
  2 C      6.1302     6.0000    -0.1302     3.9036     3.9036     0.0000
  3 C      6.1215     6.0000    -0.1215     3.9050     3.9050     0.0000
  4 C      6.1215     6.0000    -0.1215     3.9050     3.9050     0.0000
  5 C      6.1302     6.0000    -0.1302     3.9036     3.9036    -0.0000
  6 H      0.8775     1.0000     0.1225     0.9440     0.9440     0.0000
  7 H      0.8718     1.0000     0.1282     0.9425     0.9425     0.0000
  8 H      0.8775     1.0000     0.1225     0.9440     0.9440    -0.0000
  9 H      0.8775     1.0000     0.1225     0.9440     0.9440     0.0000
 10 H      0.8718     1.0000     0.1282     0.9425     0.9425     0.0000
 11 H      0.8775     1.0000     0.1225     0.9440     0.9440    -0.0000

  Mayer bond orders larger than 0.1
B(  0-C ,  1-C ) :   1.4470 B(  0-C ,  3-C ) :   0.1031 B(  0-C ,  5-C ) :   1.4465 
B(  0-C , 11-H ) :   0.9347 B(  1-C ,  2-C ) :   1.4465 B(  1-C ,  4-C ) :   0.1031 
B(  1-C ,  6-H ) :   0.9347 B(  2-C ,  3-C ) :   1.4465 B(  2-C ,  5-C ) :   0.1036 
B(  2-C ,  7-H ) :   0.9336 B(  3-C ,  4-C ) :   1.4470 B(  3-C ,  8-H ) :   0.9347 
B(  4-C ,  5-C ) :   1.4465 B(  4-C ,  9-H ) :   0.9347 B(  5-C , 10-H ) :   0.9336 


-------
TIMINGS
-------

Total SCF time: 0 days 0 hours 0 min 17 sec 

Total time                  ....      17.051 sec
Sum of individual times     ....      54.787 sec  (321.3%)

Fock matrix formation       ....      12.886 sec  ( 75.6%)
  Coulomb formation         ....       6.349 sec  ( 49.3% of F)
  XC integration            ....       1.201 sec  (  9.3% of F)
    Basis function eval.    ....       0.108 sec  (  9.0% of XC)
    Density eval.           ....       0.234 sec  ( 19.5% of XC)
    XC-Functional eval.     ....       0.156 sec  ( 13.0% of XC)
    XC-Potential eval.      ....       0.281 sec  ( 23.4% of XC)
Diagonalization             ....       0.048 sec  (  0.3%)
Density matrix formation    ....       0.000 sec  (  0.0%)
Population analysis         ....       0.109 sec  (  0.6%)
Initial guess               ....      39.671 sec  (232.7%)
Orbital Transformation      ....       0.000 sec  (  0.0%)
Orbital Orthonormalization  ....       0.000 sec  (  0.0%)
DIIS solution               ....       0.950 sec  (  5.6%)
Grid generation             ....       1.123 sec  (  6.6%)
           ************************************************************
           *              Shut down parallel processing               *
           ************************************************************


           ************************************************************
           *        Program running with 4 parallel MPI-processes     *
           *              working on a common directory               *
           ************************************************************
------------------------------------------------------------------------------
                        ORCA TD-DFT/TDA CALCULATION
------------------------------------------------------------------------------

Input orbitals are from        ... test.gbw
CI-vector output               ... test.cis
Tamm-Dancoff approximation     ... operative
CIS-Integral strategy          ... AO-integrals
Integral handling              ... AO integral Direct
Max. core memory used          ... 512 MB
Reference state                ... UHF
Number of operators            ... 2
Orbital ranges used for CIS calculation:
 Operator 0:  Orbitals   6... 20  to  21... 65
 Operator 1:  Orbitals   6... 20  to  21... 65
XAS localization array:
 Operator 0:  Orbitals  -1... -1
 Operator 1:  Orbitals  -1... -1
-------------------
XC-INTEGRATION GRID
-------------------

General Integration Accuracy     IntAcc      ...  3.670
Radial Grid Type                 RadialGrid  ... Gauss-Chebyshev
Angular Grid (max. acc.)         AngularGrid ... Lebedev-50
Angular grid pruning method      GridPruning ... 3 (G Style)
Weight generation scheme         WeightScheme... Becke
Basis function cutoff            BFCut       ...   1.0000e-010
Integration weight cutoff        WCut        ...   1.0000e-014
Grids for H and He will be reduced by one unit

# of grid points (after initial pruning)     ...   6852 (   0.0 sec)
# of grid points (after weights+screening)   ...   6458 (   0.0 sec)
nearest neighbour list constructed           ...    0.0 sec
Grid point re-assignment to atoms done       ...    0.0 sec
Grid point division into batches done        ...    0.0 sec
Reduced shell lists constructed in    0.0 sec

Total number of grid points                  ...     6458
Total number of batches                      ...      104
Average number of points per batch           ...       62
Average number of grid points per atom       ...      538
Average number of shells per batch           ...    37.33 (88.89%)
Average number of basis functions per batch  ...    60.44 (91.58%)
Average number of large shells per batch     ...    33.11 (88.69%)
Average number of large basis fcns per batch ...    55.70 (92.16%)
Maximum spatial batch extension              ...   3.54, 33.72,  3.57 au
Average spatial batch extension              ...   0.50,  1.80,  0.55 au


---------------
TD-DFT XC SETUP
---------------

DFT calculation                         ... on
Name of the grid file                   ... test.grid_cis.tmp
Exchange functional (SCF)               ... B88
Exchange functional (TD-DFT)            ... B88
   X-Alpha parameter    XAlpha (SCF)    ...  0.666667
   X-Alpha parameter    XAlpha (TD-DFT) ...  0.666667
   Becke's b parameter  XBeta (SCF)     ...  0.004200
   Becke's b parameter  XBeta (TD-DFT)  ...  0.004200
Correlation functional (SCF)            ... LYP
Correlation functional (TD-DFT)         ... LYP
 LDA part of GGA corr.  LDAOpt (SCF)    ... VWN-5
 LDA part of GGA corr.  LDAOpt (TD-DFT) ... VWN-5
Hybrid DFT                              ... on
   Exchange mixing (SCF)                ...  0.200
   Exchange mixing (TD-DFT)             ...  0.200
   GGA exch. scaling(SCF)               ...  0.720
   GGA exch. scaling (TD-DFT)           ...  0.720
   GGA corr. scaling (SCF)              ...  0.810
   GGA corr. scaling (TD-DFT)           ...  0.810

Building densities             ... done
Calculating rho(r) on the grid ... done
Building xc-kernel on the grid ... done
                    *** TD-DFT CALCULATION INITIALIZED ***


------------------------
DAVIDSON-DIAGONALIZATION
------------------------

Dimension of the eigenvalue problem            ...   1350
Number of roots to be determined               ...     10
Maximum size of the expansion space            ...     30
Convergence tolerance for the residual         ...   3.330e-005
Convergence tolerance for the energies         ...   3.330e-005
Orthogonality tolerance                        ...   1.000e-014
Level Shift                                    ...   0.000e+000
Constructing the preconditioner                ... o.k.
Building the initial guess                     ... o.k.
Number of trial vectors determined             ...     20


                       ****Iteration    0****

   Memory handling for direct AO based CIS:
   Memory per vector needed      ...     1 MB
   Memory needed                 ...     4 MB
   Memory available              ...   512 MB
   Number of vectors per batch   ...   512
   Number of batches             ...     1
   Time for densities:     0.015
   Using LibInt in JK Direct
   Time for J+K (Direct):    21.903
   Time for XC-Integration:     2.137
   Time for Sigma-Completion:     0.000
   Size of expansion space: 20
   Lowest Energy          :     0.163145330287
   Maximum Energy change  :     0.288687224214 (vector 9)
   Maximum residual norm  :     0.035823393944

                       ****Iteration    1****
   Time for densities:     0.000
   Using LibInt in JK Direct
   Time for J+K (Direct):     1.560
   Time for XC-Integration:     0.296
   Time for Sigma-Completion:     0.000
   Size of expansion space: 30
   Lowest Energy          :     0.154963267190
   Maximum Energy change  :     0.030403257378 (vector 5)
   Maximum residual norm  :     0.000118720308
   Rebuilding the expansion space

                       ****Iteration    2****
   Time for densities:     0.000
   Using LibInt in JK Direct
   Time for J+K (Direct):     3.885
   Time for XC-Integration:     0.546
   Time for Sigma-Completion:     0.015
   Size of expansion space: 20
   Lowest Energy          :     0.154922840794
   Maximum Energy change  :     0.000199626737 (vector 5)
   Maximum residual norm  :     0.000003601333

      *** CONVERGENCE OF RESIDUAL NORM REACHED ***

Storing the converged CI vectors               ... test.cis1

                 *** DAVIDSON DONE ***

Total time for solving the CIS problem:    34.866sec

-------------------------
TD-DFT/TDA EXCITED STATES
-------------------------

the weight of the individual excitations are printed if larger than 0.01

STATE  1:  E=   0.154923 au      4.216 eV    34001.6 cm**-1
    19a ->  22a  :     0.240032 (c= -0.48993016)
    20a ->  21a  :     0.248075 (c= -0.49807171)
    19b ->  22b  :     0.240032 (c=  0.48993016)
    20b ->  21b  :     0.248075 (c=  0.49807171)

STATE  2:  E=   0.180431 au      4.910 eV    39600.1 cm**-1
    19a ->  22a  :     0.253609 (c= -0.50359647)
    20a ->  21a  :     0.245601 (c=  0.49558149)
    19b ->  22b  :     0.253609 (c=  0.50359647)
    20b ->  21b  :     0.245601 (c= -0.49558149)

STATE  3:  E=   0.180443 au      4.910 eV    39602.6 cm**-1
    19a ->  21a  :     0.253877 (c=  0.50386227)
    20a ->  22a  :     0.245330 (c=  0.49530832)
    19b ->  21b  :     0.253877 (c= -0.50386227)
    20b ->  22b  :     0.245330 (c= -0.49530832)

STATE  4:  E=   0.197091 au      5.363 eV    43256.4 cm**-1
    19a ->  21a  :     0.245702 (c= -0.49568341)
    20a ->  22a  :     0.254246 (c=  0.50422843)
    19b ->  21b  :     0.245702 (c=  0.49568341)
    20b ->  22b  :     0.254246 (c= -0.50422843)

STATE  5:  E=   0.205698 au      5.597 eV    45145.4 cm**-1
    19a ->  21a  :     0.250255 (c= -0.50025477)
    20a ->  22a  :     0.249076 (c=  0.49907466)
    19b ->  21b  :     0.250255 (c= -0.50025477)
    20b ->  22b  :     0.249076 (c=  0.49907466)

STATE  6:  E=   0.246501 au      6.708 eV    54100.6 cm**-1
    19a ->  22a  :     0.240437 (c= -0.49034334)
    20a ->  21a  :     0.243599 (c= -0.49355759)
    19b ->  22b  :     0.240437 (c= -0.49034334)
    20b ->  21b  :     0.243599 (c= -0.49355759)

STATE  7:  E=   0.284238 au      7.735 eV    62383.0 cm**-1
    17a ->  22a  :     0.153540 (c= -0.39184138)
    18a ->  21a  :     0.342796 (c=  0.58548771)
    17b ->  22b  :     0.153540 (c= -0.39184138)
    18b ->  21b  :     0.342796 (c= -0.58548771)

STATE  8:  E=   0.285006 au      7.755 eV    62551.5 cm**-1
    17a ->  21a  :     0.476845 (c=  0.69053993)
    18a ->  22a  :     0.017543 (c= -0.13244915)
    17b ->  21b  :     0.476845 (c=  0.69053993)
    18b ->  22b  :     0.017543 (c=  0.13244915)

STATE  9:  E=   0.285145 au      7.759 eV    62582.2 cm**-1
    17a ->  22a  :     0.342034 (c= -0.58483672)
    18a ->  21a  :     0.152864 (c= -0.39097829)
    17b ->  22b  :     0.342034 (c= -0.58483672)
    18b ->  21b  :     0.152864 (c=  0.39097829)

STATE 10:  E=   0.285349 au      7.765 eV    62627.0 cm**-1
    17a ->  21a  :     0.017260 (c= -0.13137671)
    18a ->  22a  :     0.476533 (c= -0.69031346)
    17b ->  21b  :     0.017260 (c= -0.13137671)
    18b ->  22b  :     0.476533 (c=  0.69031346)


-----------------------------
TD-DFT/TDA-EXCITATION SPECTRA
-----------------------------

Center of mass = (  2.2912,  0.0000,  1.3228)
Calculating the Dipole integrals                  ... done
Transforming integrals                            ... done
Calculating the Linear Momentum integrals         ... done
Transforming integrals                            ... done
Calculating angular momentum integrals            ... done
Transforming integrals                            ... done

-----------------------------------------------------------------------------
         ABSORPTION SPECTRUM VIA TRANSITION ELECTRIC DIPOLE MOMENTS
-----------------------------------------------------------------------------
State   Energy  Wavelength   fosc         T2         TX        TY        TZ  
        (cm-1)    (nm)                  (au**2)     (au)      (au)      (au) 
-----------------------------------------------------------------------------
   1   34001.6    294.1   0.000000000   0.00000  -0.00000  -0.00000   0.00000
   2   39600.1    252.5   0.000000000   0.00000   0.00000  -0.00000   0.00000
   3   39602.6    252.5   0.000000000   0.00000  -0.00000  -0.00000   0.00000
   4   43256.4    231.2   0.000000000   0.00000   0.00000   0.00000   0.00000
   5   45145.4    221.5   0.000001725   0.00001  -0.00355   0.00000   0.00000
   6   54100.6    184.8   0.000009683   0.00006  -0.00000  -0.00000   0.00768
   7   62383.0    160.3   0.000000000   0.00000   0.00000  -0.00000   0.00000
   8   62551.5    159.9   0.000000000   0.00000  -0.00000   0.00000  -0.00000
   9   62582.2    159.8   0.000000000   0.00000  -0.00000  -0.00000   0.00000
  10   62627.0    159.7   0.000000000   0.00000   0.00000   0.00000  -0.00000

-----------------------------------------------------------------------------
         ABSORPTION SPECTRUM VIA TRANSITION VELOCITY DIPOLE MOMENTS
-----------------------------------------------------------------------------
State   Energy  Wavelength   fosc         P2         PX        PY        PZ  
        (cm-1)    (nm)                  (au**2)     (au)      (au)      (au) 
-----------------------------------------------------------------------------
   1   34001.6    294.1   0.000000000   0.00000   0.00000   0.00000  -0.00000
   2   39600.1    252.5   0.000000000   0.00000   0.00000  -0.00000  -0.00000
   3   39602.6    252.5   0.000000000   0.00000  -0.00000   0.00000  -0.00000
   4   43256.4    231.2   0.000000000   0.00000  -0.00000  -0.00000  -0.00000
   5   45145.4    221.5   0.000000061   0.00000   0.00014   0.00000   0.00000
   6   54100.6    184.8   0.000000045   0.00000  -0.00000   0.00000  -0.00013
   7   62383.0    160.3   0.000000000   0.00000  -0.00000   0.00000  -0.00000
   8   62551.5    159.9   0.000000000   0.00000  -0.00000  -0.00000   0.00000
   9   62582.2    159.8   0.000000000   0.00000   0.00000  -0.00000  -0.00000
  10   62627.0    159.7   0.000000000   0.00000  -0.00000  -0.00000   0.00000

-------------------------------------------------------------------
                             CD SPECTRUM
-------------------------------------------------------------------
State   Energy Wavelength       R         MX        MY        MZ   
        (cm-1)   (nm)       (1e40*sgs)   (au)      (au)      (au)  
-------------------------------------------------------------------
   1   34001.6    294.1      0.00000  -0.00000   0.00000   0.00000
   2   39600.1    252.5      0.00000  -0.00000  -0.00000   0.00000
   3   39602.6    252.5      0.00000  -0.00000  -0.00000  -0.00000
   4   43256.4    231.2      0.00000  -0.00000  -0.00000   0.00000
   5   45145.4    221.5     -0.00000   0.00000  -0.00000  -0.00000
   6   54100.6    184.8     -0.00000  -0.00000  -0.00000  -0.00000
   7   62383.0    160.3     -0.00000  -0.00000  -0.00000  -0.00000
   8   62551.5    159.9      0.00000   0.00000  -0.00000  -0.00000
   9   62582.2    159.8      0.00000  -0.00000  -0.00000  -0.00000
  10   62627.0    159.7     -0.00000  -0.00000  -0.00000   0.00000

Total run time:       37.503 sec

           *** ORCA-CIS/TD-DFT FINISHED WITHOUT ERROR ***
           ************************************************************
           *              Shut down parallel processing               *
           ************************************************************

-----------------------
CIS/TD-DFT TOTAL ENERGY
-----------------------

    E(SCF)  =   -232.044331727 Eh
    DE(CIS) =      0.154922841 Eh (Root  1)
    ----------------------------- ---------
    E(tot)  =   -231.889408886 Eh


-------------------------   --------------------
FINAL SINGLE POINT ENERGY      -231.889408886362
-------------------------   --------------------


                            ***************************************
                            *     ORCA property calculations      *
                            ***************************************

                                    ---------------------
                                    Active property flags
                                    ---------------------
   (+) Dipole Moment


------------------------------------------------------------------------------
                       ORCA ELECTRIC PROPERTIES CALCULATION
------------------------------------------------------------------------------

Dipole Moment Calculation                       ... on
Quadrupole Moment Calculation                   ... off
Polarizability Calculation                      ... off
GBWName                                         ... test.gbw
Electron density file                           ... test.scfp.tmp

-------------
DIPOLE MOMENT
-------------
                                X             Y             Z
Electronic contribution:     -0.00000      -0.00000      -0.00000
Nuclear contribution   :     -0.00000       0.00000      -0.00000
                        -----------------------------------------
Total Dipole Moment    :     -0.00000      -0.00000      -0.00000
                        -----------------------------------------
Magnitude (a.u.)       :      0.00000
Magnitude (Debye)      :      0.00000


Timings for individual modules:

Sum of individual times         ...      125.752 sec (=   2.096 min)
GTO integral calculation        ...       12.012 sec (=   0.200 min)   9.6 %
SCF iterations                  ...       71.183 sec (=   1.186 min)  56.6 %
CIS module                      ...       42.557 sec (=   0.709 min)  33.8 %
                             ****ORCA TERMINATED NORMALLY****
TOTAL RUN TIME: 0 days 0 hours 2 minutes 13 seconds 332 msec
