
                                 *****************
                                 * O   R   C   A *
                                 *****************

           --- An Ab Initio, DFT and Semiempirical electronic structure package ---

                  #######################################################
                  #                        -***-                        #
                  #  Department of molecular theory and spectroscopy    #
                  #              Directorship: Frank Neese              #
                  # Max Planck Institute for Chemical Energy Conversion #
                  #                  D-45470 Muelheim/Ruhr              #
                  #                       Germany                       #
                  #                                                     #
                  #                  All rights reserved                #
                  #                        -***-                        #
                  #######################################################


                         Program Version 3.0.2 -  RELEASE  -


 With contributions from (in alphabetic order):
   Ute Becker             : Parallelization
   Dmytro Bykov           : SCF Hessian
   Dmitry Ganyushin       : Spin-Orbit,Spin-Spin,Magnetic field MRCI
   Andreas Hansen         : Spin unrestricted coupled pair/coupled cluster methods
   Dimitrios Liakos       : Extrapolation schemes; parallel MDCI
   Robert Izsak           : Overlap fitted RIJCOSX, COSX-SCS-MP3
   Christian Kollmar      : KDIIS, OOCD, Brueckner-CCSD(T), CCSD density
   Simone Kossmann        : Meta GGA functionals, TD-DFT gradient, OOMP2, MP2 Hessian
   Taras Petrenko         : DFT Hessian,TD-DFT gradient, ASA and ECA modules, normal mode analysis, Resonance Raman, ABS, FL, XAS/XES, NRVS
   Christoph Reimann      : Effective Core Potentials
   Michael Roemelt        : Restricted open shell CIS
   Christoph Riplinger    : Improved optimizer, TS searches, QM/MM, DLPNO-CCSD
   Barbara Sandhoefer     : DKH picture change effects
   Igor Schapiro          : Molecular dynamics
   Kantharuban Sivalingam : CASSCF convergence, NEVPT2
   Boris Wezisla          : Elementary symmetry handling
   Frank Wennmohs         : Technical directorship


 We gratefully acknowledge several colleagues who have allowed us to
 interface, adapt or use parts of their codes:
   Stefan Grimme, W. Hujo, H. Kruse, T. Risthaus : VdW corrections, initial TS optimization,
                                                   DFT functionals, gCP
   Ed Valeev                                     : LibInt (2-el integral package), F12 methods
   Garnet Chan, S. Sharma, R. Olivares           : DMRG
   Ulf Ekstrom                                   : XCFun DFT Library
   Mihaly Kallay                                 : mrcc  (arbitrary order and MRCC methods)
   Andreas Klamt, Michael Diedenhofen            : otool_cosmo (COSMO solvation model)
   Frank Weinhold                                : gennbo (NPA and NBO analysis)
   Christopher J. Cramer and Donald G. Truhlar   : smd solvation model


 Your calculation uses the libint2 library for the computation of 2-el integrals
 For citations please refer to: http://libint.valeyev.net

 This ORCA versions uses:
   CBLAS   interface :  Fast vector & matrix operations
   LAPACKE interface :  Fast linear algebra routines
   SCALAPACK package :  Parallel linear algebra routines


Your calculation utilizes the basis: 6-31G
Cite in your paper:
H - He: W.J. Hehre, R. Ditchfield and J.A. Pople, J. Chem. Phys. 56,
Li - Ne: 2257 (1972).  Note: Li and B come from J.D. Dill and J.A.
         Pople, J. Chem. Phys. 62, 2921 (1975).
Na - Ar: M.M. Francl, W.J. Pietro, W.J. Hehre, J.S. Binkley, M.S. Gordon,
         D.J. DeFrees and J.A. Pople, J. Chem. Phys. 77, 3654 (1982)
K  - Zn: V. Rassolov, J.A. Pople, M. Ratner and T.L. Windus, J. Chem. Phys.
         (accepted, 1998)
Note: He and Ne are unpublished basis sets taken from the Gaussian program

================================================================================
                                        WARNINGS
                       Please study these warnings very carefully!
================================================================================
Now building the actual basis set

WARNING: Geometry Optimization
  ===> : Switching off AutoStart
         For restart on a previous wavefunction, please use MOREAD


INFO   : the flag for use of LIBINT has been found!

================================================================================
                                       INPUT FILE
================================================================================
NAME = ethanol.inp
|  1> !CHELPG OPT B3LYP 6-31G* TIGHTSCF
|  2> 
|  3> *xyz 0 1
|  4>  C                 -2.37864069   -1.36893202    0.00000000
|  5>  H                 -2.02196785   -0.86453383   -0.87365150
|  6>  H                 -3.44864069   -1.36891883    0.00000000
|  7>  O                 -1.90199038   -2.71715473    0.00000000
|  8>  H                 -2.22033499   -3.16959416    0.78457331
|  9>  C                 -1.86529847   -0.64297574    1.25740497
| 10>  H                 -2.15595985    0.38606473    1.21878300
| 11>  H                 -2.28504015   -1.09967656    2.12926579
| 12>  H                 -0.79822266   -0.71091744    1.29781724
| 13> *
| 14> 
| 15>                          ****END OF INPUT****
================================================================================

                       *****************************
                       * Geometry Optimization Run *
                       *****************************

Geometry optimization settings:
Update method            Update   .... BFGS
Choice of coordinates    CoordSys .... Redundant Internals
Initial Hessian          InHess   .... Almoef's Model

Convergence Tolerances:
Energy Change            TolE     ....  5.0000e-06 Eh
Max. Gradient            TolMAXG  ....  3.0000e-04 Eh/bohr
RMS Gradient             TolRMSG  ....  1.0000e-04 Eh/bohr
Max. Displacement        TolMAXD  ....  4.0000e-03 bohr
RMS Displacement         TolRMSD  ....  2.0000e-03 bohr

------------------------------------------------------------------------------
                        ORCA OPTIMIZATION COORDINATE SETUP
------------------------------------------------------------------------------

The optimization will be done in new redundant internal coordinates
Making redundant internal coordinates   ...  (new redundants) done
Evaluating the initial hessian          ...  (Almloef) done
Evaluating the coordinates              ...  done
Calculating the B-matrix                .... done
Calculating the G-matrix                .... done
Diagonalizing the G-matrix              .... done
The first mode is                       ....   12
The number of degrees of freedom        ....   21

    -----------------------------------------------------------------
                    Redundant Internal Coordinates


    -----------------------------------------------------------------
         Definition                    Initial Value    Approx d2E/dq
    -----------------------------------------------------------------
      1. B(H   1,C   0)                  1.0700         0.387554   
      2. B(H   2,C   0)                  1.0700         0.387554   
      3. B(O   3,C   0)                  1.4300         0.483123   
      4. B(H   4,O   3)                  0.9600         0.519956   
      5. B(C   5,C   0)                  1.5400         0.360100   
      6. B(H   6,C   5)                  1.0700         0.387554   
      7. B(H   7,C   5)                  1.0700         0.387554   
      8. B(H   8,C   5)                  1.0700         0.387554   
      9. A(H   1,C   0,H   2)          109.4712         0.297665   
     10. A(H   1,C   0,O   3)          109.4712         0.340517   
     11. A(H   2,C   0,O   3)          109.4712         0.340517   
     12. A(H   2,C   0,C   5)          109.4712         0.326284   
     13. A(H   1,C   0,C   5)          109.4713         0.326284   
     14. A(O   3,C   0,C   5)          109.4712         0.375013   
     15. A(C   0,O   3,H   4)          109.5000         0.354684   
     16. A(H   7,C   5,H   8)          109.4712         0.297665   
     17. A(H   6,C   5,H   8)          109.4712         0.297665   
     18. A(C   0,C   5,H   8)          109.4712         0.326284   
     19. A(H   6,C   5,H   7)          109.4713         0.297665   
     20. A(C   0,C   5,H   7)          109.4712         0.326284   
     21. A(C   0,C   5,H   6)          109.4712         0.326284   
     22. D(H   4,O   3,C   0,H   2)    -60.1111         0.018418   
     23. D(H   4,O   3,C   0,H   1)    179.8889         0.018418   
     24. D(H   4,O   3,C   0,C   5)     59.8889         0.018418   
     25. D(H   6,C   5,C   0,O   3)    175.5066         0.010403   
     26. D(H   8,C   5,C   0,O   3)     55.5066         0.010403   
     27. D(H   7,C   5,C   0,H   1)    175.5066         0.010403   
     28. D(H   6,C   5,C   0,H   2)    -64.4934         0.010403   
     29. D(H   7,C   5,C   0,O   3)    -64.4934         0.010403   
     30. D(H   8,C   5,C   0,H   1)    -64.4934         0.010403   
     31. D(H   8,C   5,C   0,H   2)    175.5066         0.010403   
     32. D(H   7,C   5,C   0,H   2)     55.5066         0.010403   
     33. D(H   6,C   5,C   0,H   1)     55.5066         0.010403   
    -----------------------------------------------------------------

Number of atoms                         .... 9
Number of degrees of freedom            .... 33

         *************************************************************
         *                GEOMETRY OPTIMIZATION CYCLE   1            *
         *************************************************************
---------------------------------
CARTESIAN COORDINATES (ANGSTROEM)
---------------------------------
  C     -2.378641   -1.368932    0.000000
  H     -2.021968   -0.864534   -0.873651
  H     -3.448641   -1.368919    0.000000
  O     -1.901990   -2.717155    0.000000
  H     -2.220335   -3.169594    0.784573
  C     -1.865298   -0.642976    1.257405
  H     -2.155960    0.386065    1.218783
  H     -2.285040   -1.099677    2.129266
  H     -0.798223   -0.710917    1.297817

----------------------------
CARTESIAN COORDINATES (A.U.)
----------------------------
  NO LB      ZA    FRAG    MASS        X           Y           Z
   0 C     6.0000    0    12.011         -4.494979475101479         -2.586906613755609          0.000000000000000
   1 H     1.0000    0     1.008         -3.820965488093565         -1.633732172210032         -1.650962071489502
   2 H     1.0000    0     1.008         -6.516986438397217         -2.586881688267903          0.000000000000000
   3 O     8.0000    0    15.999         -3.594240927552812         -5.134678303188742          0.000000000000000
   4 H     1.0000    0     1.008         -4.195825056662781         -5.989664918076177          1.482628687884100
   5 C     6.0000    0    12.011         -3.524903266322326         -1.215048059355356          2.376151032731467
   6 H     1.0000    0     1.008         -4.074173672229941          0.729556609666252          2.303166086678945
   7 H     1.0000    0     1.008         -4.318100088514337         -2.078087534292621          4.023729209427479
   8 H     1.0000    0     1.008         -1.508422221290138         -1.343439265428393          2.452519155481550

--------------------------------
INTERNAL COORDINATES (ANGSTROEM)
--------------------------------
 C      0   0   0   0.000000     0.000     0.000
 H      1   0   0   1.070000     0.000     0.000
 H      1   2   0   1.070000   109.471     0.000
 O      1   2   3   1.430000   109.471   120.000
 H      4   1   2   0.960000   109.500   179.889
 C      1   2   3   1.540000   109.471   240.000
 H      6   1   2   1.070000   109.471    55.507
 H      6   1   2   1.070000   109.471   175.507
 H      6   1   2   1.070000   109.471   295.507

---------------------------
INTERNAL COORDINATES (A.U.)
---------------------------
 C      0   0   0   0.000000     0.000     0.000
 H      1   0   0   2.022007     0.000     0.000
 H      1   2   0   2.022007   109.471     0.000
 O      1   2   3   2.702308   109.471   120.000
 H      4   1   2   1.814137   109.500   179.889
 C      1   2   3   2.910178   109.471   240.000
 H      6   1   2   2.022007   109.471    55.507
 H      6   1   2   2.022007   109.471   175.507
 H      6   1   2   2.022007   109.471   295.507

---------------------
BASIS SET INFORMATION
---------------------
There are 3 groups of distinct atoms

 Group   1 Type C   : 10s4p1d contracted to 3s2p1d pattern {631/31/1}
 Group   2 Type H   : 4s contracted to 2s pattern {31}
 Group   3 Type O   : 10s4p1d contracted to 3s2p1d pattern {631/31/1}

Atom   0C    basis set group =>   1
Atom   1H    basis set group =>   2
Atom   2H    basis set group =>   2
Atom   3O    basis set group =>   3
Atom   4H    basis set group =>   2
Atom   5C    basis set group =>   1
Atom   6H    basis set group =>   2
Atom   7H    basis set group =>   2
Atom   8H    basis set group =>   2
------------------------------------------------------------------------------
                           ORCA GTO INTEGRAL CALCULATION
------------------------------------------------------------------------------

                         BASIS SET STATISTICS AND STARTUP INFO

 # of primitive gaussian shells          ...   69
 # of primitive gaussian functions       ...  105
 # of contracted shell                   ...   30
 # of contracted basis functions         ...   54
 Highest angular momentum                ...    2
 Maximum contraction depth               ...    6
 Integral package used                   ... LIBINT
 Integral threshhold            Thresh   ...  2.500e-11
 Primitive cut-off              TCut     ...  2.500e-12


                              INTEGRAL EVALUATION

 One electron integrals                  ... done
 Pre-screening matrix                    ... done
 Shell pair data                         ... done (   0.000 sec)

-------------------------------------------------------------------------------
                                 ORCA SCF
-------------------------------------------------------------------------------

------------
SCF SETTINGS
------------
Hamiltonian:
 Density Functional     Method          .... DFT(GTOs)
 Exchange Functional    Exchange        .... B88
   X-Alpha parameter    XAlpha          ....  0.666667
   Becke's b parameter  XBeta           ....  0.004200
 Correlation Functional Correlation     .... LYP
 LDA part of GGA corr.  LDAOpt          .... VWN-5
 Gradients option       PostSCFGGA      .... off
 Hybrid DFT is turned on
   Fraction HF Exchange ScalHFX         ....  0.200000
   Scaling of DF-GGA-X  ScalDFX         ....  0.720000
   Scaling of DF-GGA-C  ScalDFC         ....  0.810000
   Scaling of DF-LDA-C  ScalLDAC        ....  1.000000
   Perturbative correction              ....  0.000000
   NL short-range parameter             ....  4.800000


General Settings:
 Integral files         IntName         .... ethanol
 Hartree-Fock type      HFTyp           .... RHF
 Total Charge           Charge          ....    0
 Multiplicity           Mult            ....    1
 Number of Electrons    NEL             ....   26
 Basis Dimension        Dim             ....   54
 Nuclear Repulsion      ENuc            ....     82.0218252264 Eh

Convergence Acceleration:
 DIIS                   CNVDIIS         .... on
   Start iteration      DIISMaxIt       ....    12
   Startup error        DIISStart       ....  0.200000
   # of expansion vecs  DIISMaxEq       ....     5
   Bias factor          DIISBfac        ....   1.050
   Max. coefficient     DIISMaxC        ....  10.000
 Newton-Raphson         CNVNR           .... off
 SOSCF                  CNVSOSCF        .... on
   Start iteration      SOSCFMaxIt      ....   150
   Startup grad/error   SOSCFStart      ....  0.003300
 Level Shifting         CNVShift        .... on
   Level shift para.    LevelShift      ....    0.2500
   Turn off err/grad.   ShiftErr        ....    0.0010
 Zerner damping         CNVZerner       .... off
 Static damping         CNVDamp         .... on
   Fraction old density DampFac         ....    0.7000
   Max. Damping (<1)    DampMax         ....    0.9800
   Min. Damping (>=0)   DampMin         ....    0.0000
   Turn off err/grad.   DampErr         ....    0.1000
 Fernandez-Rico         CNVRico         .... off

SCF Procedure:
 Maximum # iterations   MaxIter         ....   125
 SCF integral mode      SCFMode         .... Direct
   Integral package                     .... LIBINT
 Reset frequeny         DirectResetFreq ....    20
 Integral Threshold     Thresh          ....  2.500e-11 Eh
 Primitive CutOff       TCut            ....  2.500e-12 Eh

Convergence Tolerance:
 Convergence Check Mode ConvCheckMode   .... Total+1el-Energy
 Energy Change          TolE            ....  1.000e-08 Eh
 1-El. energy change                    ....  1.000e-05 Eh
 Orbital Gradient       TolG            ....  1.000e-05
 Orbital Rotation angle TolX            ....  1.000e-05
 DIIS Error             TolErr          ....  5.000e-07


Diagonalization of the overlap matrix:
Smallest eigenvalue                        ... 7.263e-03
Time for diagonalization                   ...    0.001 sec
Threshold for overlap eigenvalues          ... 1.000e-08
Number of eigenvalues below threshold      ... 0
Time for construction of square roots      ...    0.000 sec
Total time needed                          ...    0.002 sec

-------------------
DFT GRID GENERATION
-------------------

General Integration Accuracy     IntAcc      ...  4.340
Radial Grid Type                 RadialGrid  ... Gauss-Chebyshev
Angular Grid (max. acc.)         AngularGrid ... Lebedev-110
Angular grid pruning method      GridPruning ... 3 (G Style)
Weight generation scheme         WeightScheme... Becke
Basis function cutoff            BFCut       ...    1.0000e-11
Integration weight cutoff        WCut        ...    1.0000e-14
Grids for H and He will be reduced by one unit

# of grid points (after initial pruning)     ...   9792 (   0.0 sec)
# of grid points (after weights+screening)   ...   9352 (   0.0 sec)
nearest neighbour list constructed           ...    0.0 sec
Grid point re-assignment to atoms done       ...    0.0 sec
Grid point division into batches done        ...    0.0 sec
Reduced shell lists constructed in    0.1 sec

Total number of grid points                  ...     9352
Total number of batches                      ...      152
Average number of points per batch           ...       61
Average number of grid points per atom       ...     1039
Average number of shells per batch           ...    25.89 (86.30%)
Average number of basis functions per batch  ...    47.43 (87.84%)
Average number of large shells per batch     ...    22.92 (88.51%)
Average number of large basis fcns per batch ...    42.48 (89.57%)
Maximum spatial batch extension              ...  23.20, 25.60, 20.65 au
Average spatial batch extension              ...   4.24,  4.18,  4.21 au

Time for grid setup =    0.117 sec

------------------------------
INITIAL GUESS: MODEL POTENTIAL
------------------------------
Loading Hartree-Fock densities                     ... done
Calculating cut-offs                               ... done
Setting up the integral package                    ... done
Initializing the effective Hamiltonian             ... done
Starting the Coulomb interaction                   ... done (   0.0 sec)
Reading the grid                                   ... done
Mapping shells                                     ... done
Starting the XC term evaluation                    ... done (   0.1 sec)
  promolecular density results
     # of electrons  =     26.002508642
     EX              =    -20.266969531
     EC              =     -0.847780969
     EX+EC           =    -21.114750500
Transforming the Hamiltonian                       ... done (   0.0 sec)
Diagonalizing the Hamiltonian                      ... done (   0.0 sec)
Back transforming the eigenvectors                 ... done (   0.0 sec)
Now organizing SCF variables                       ... done
                      ------------------
                      INITIAL GUESS DONE (   0.4 sec)
                      ------------------
--------------
SCF ITERATIONS
--------------
ITER       Energy         Delta-E        Max-DP      RMS-DP      [F,P]     Damp
               ***  Starting incremental Fock matrix formation  ***
  0   -154.7930292636   0.000000000000 0.07761772  0.00491546  0.2545210 0.7000
  1   -154.8577576622  -0.064728398606 0.04514345  0.00342351  0.1108712 0.7000
                               ***Turning on DIIS***
  2   -154.8835212792  -0.025763616964 0.06617084  0.00552111  0.0374152 0.0000
  3   -154.9224214298  -0.038900150658 0.03076548  0.00229496  0.0582092 0.0000
  4   -154.9317093176  -0.009287887763 0.00899728  0.00065383  0.0107875 0.0000
  5   -154.9320881809  -0.000378863255 0.00268022  0.00022280  0.0050785 0.0000
                      *** Initiating the SOSCF procedure ***
                           *** Shutting down DIIS ***
                      *** Re-Reading the Fockian *** 
                      *** Removing any level shift *** 
ITER      Energy       Delta-E        Grad      Rot      Max-DP    RMS-DP
  6   -154.93212508  -0.0000369014  0.000153  0.000153  0.001276  0.000095
               *** Restarting incremental Fock matrix formation ***
  7   -154.93212612  -0.0000010368  0.000049  0.000055  0.000166  0.000011
  8   -154.93212610   0.0000000145  0.000072  0.000030  0.000108  0.000007
  9   -154.93212617  -0.0000000616  0.000006  0.000009  0.000024  0.000002
 10   -154.93212617   0.0000000003  0.000007  0.000005  0.000014  0.000001
                 **** Energy Check signals convergence ****
              ***Rediagonalizing the Fockian in SOSCF/NRSCF***

               *****************************************************
               *                     SUCCESS                       *
               *           SCF CONVERGED AFTER  11 CYCLES          *
               *****************************************************

Setting up the final grid:

General Integration Accuracy     IntAcc      ...  4.670
Radial Grid Type                 RadialGrid  ... Gauss-Chebyshev
Angular Grid (max. acc.)         AngularGrid ... Lebedev-302
Angular grid pruning method      GridPruning ... 3 (G Style)
Weight generation scheme         WeightScheme... Becke
Basis function cutoff            BFCut       ...    1.0000e-11
Integration weight cutoff        WCut        ...    1.0000e-14
Grids for H and He will be reduced by one unit

# of grid points (after initial pruning)     ...  39000 (   0.0 sec)
# of grid points (after weights+screening)   ...  36920 (   0.1 sec)
nearest neighbour list constructed           ...    0.0 sec
Grid point re-assignment to atoms done       ...    0.0 sec
Grid point division into batches done        ...    0.2 sec
Reduced shell lists constructed in    0.5 sec

Total number of grid points                  ...    36920
Total number of batches                      ...      581
Average number of points per batch           ...       63
Average number of grid points per atom       ...     4102
Average number of shells per batch           ...    24.04 (80.13%)
Average number of basis functions per batch  ...    44.13 (81.72%)
Average number of large shells per batch     ...    20.82 (86.62%)
Average number of large basis fcns per batch ...    38.48 (87.19%)
Maximum spatial batch extension              ...  17.61, 18.28, 19.91 au
Average spatial batch extension              ...   2.80,  2.81,  2.87 au

Final grid set up in    0.6 sec
Final integration                            ... done (   0.4 sec)
Change in XC energy                          ...     0.000464634
Integrated number of electrons               ...    25.999993056
Previous integrated no of electrons          ...    26.004557669

----------------
TOTAL SCF ENERGY
----------------

Total Energy       :         -154.93166153 Eh           -4215.90484 eV

Components:
Nuclear Repulsion  :           82.02182523 Eh            2231.92733 eV
Electronic Energy  :         -236.95348676 Eh           -6447.83218 eV

One Electron Energy:         -372.26682445 Eh          -10129.89529 eV
Two Electron Energy:          135.31333769 Eh            3682.06311 eV

Virial components:
Potential Energy   :         -309.18091781 Eh           -8413.24049 eV
Kinetic Energy     :          154.24925628 Eh            4197.33565 eV
Virial Ratio       :            2.00442404


DFT components:
N(Alpha)           :       12.999996528015 electrons
N(Beta)            :       12.999996528015 electrons
N(Total)           :       25.999993056030 electrons
E(X)               :      -16.499277219033 Eh       
E(C)               :       -1.009331602143 Eh       
E(XC)              :      -17.508608821175 Eh       

---------------
SCF CONVERGENCE
---------------

  Last Energy change         ...   -1.0949e-09  Tolerance :   1.0000e-08
  Last MAX-Density change    ...    1.0987e-06  Tolerance :   1.0000e-07
  Last RMS-Density change    ...    1.2229e-07  Tolerance :   5.0000e-09
  Last Orbital Gradient      ...    5.2941e-07  Tolerance :   1.0000e-05
  Last Orbital Rotation      ...    5.0549e-07  Tolerance :   1.0000e-05

             **** THE GBW FILE WAS UPDATED (ethanol.gbw) ****
             **** DENSITY FILE WAS UPDATED (ethanol.scfp.tmp) ****
             **** ENERGY FILE WAS UPDATED (ethanol.en.tmp) ****
----------------
ORBITAL ENERGIES
----------------

  NO   OCC          E(Eh)            E(eV) 
   0   2.0000     -19.122277      -520.3436 
   1   2.0000     -10.212654      -277.9004 
   2   2.0000     -10.156680      -276.3773 
   3   2.0000      -1.002537       -27.2804 
   4   2.0000      -0.742102       -20.1936 
   5   2.0000      -0.622470       -16.9383 
   6   2.0000      -0.495189       -13.4748 
   7   2.0000      -0.452453       -12.3119 
   8   2.0000      -0.419844       -11.4245 
   9   2.0000      -0.376761       -10.2522 
  10   2.0000      -0.370273       -10.0756 
  11   2.0000      -0.313862        -8.5406 
  12   2.0000      -0.255085        -6.9412 
  13   0.0000       0.082643         2.2488 
  14   0.0000       0.129808         3.5323 
  15   0.0000       0.158599         4.3157 
  16   0.0000       0.170655         4.6438 
  17   0.0000       0.182207         4.9581 
  18   0.0000       0.200068         5.4441 
  19   0.0000       0.222471         6.0538 
  20   0.0000       0.240457         6.5432 
  21   0.0000       0.529439        14.4068 
  22   0.0000       0.549250        14.9458 
  23   0.0000       0.562255        15.2997 
  24   0.0000       0.583824        15.8867 
  25   0.0000       0.651505        17.7284 
  26   0.0000       0.674993        18.3675 
  27   0.0000       0.820362        22.3232 
  28   0.0000       0.885902        24.1066 
  29   0.0000       0.898316        24.4444 
  30   0.0000       0.914597        24.8874 
  31   0.0000       0.924632        25.1605 
  32   0.0000       0.979531        26.6544 
  33   0.0000       1.026404        27.9299 
  34   0.0000       1.044166        28.4132 
  35   0.0000       1.063839        28.9485 
  36   0.0000       1.149920        31.2909 
  37   0.0000       1.393717        37.9250 
  38   0.0000       1.449436        39.4412 
  39   0.0000       1.516384        41.2629 
  40   0.0000       1.672341        45.5067 
  41   0.0000       1.759949        47.8907 
  42   0.0000       1.837229        49.9935 
  43   0.0000       1.933004        52.5997 
  44   0.0000       1.950140        53.0660 
  45   0.0000       2.095522        57.0220 
  46   0.0000       2.146797        58.4173 
  47   0.0000       2.245596        61.1058 
  48   0.0000       2.307856        62.8000 
  49   0.0000       2.396923        65.2236 
  50   0.0000       2.422606        65.9225 
  51   0.0000       2.523326        68.6632 
  52   0.0000       2.623455        71.3878 
  53   0.0000       2.830460        77.0207 

                    ********************************
                    * MULLIKEN POPULATION ANALYSIS *
                    ********************************

-----------------------
MULLIKEN ATOMIC CHARGES
-----------------------
   0 C :   -0.014616
   1 H :    0.148974
   2 H :    0.128582
   3 O :   -0.635097
   4 H :    0.393600
   5 C :   -0.467587
   6 H :    0.143038
   7 H :    0.136343
   8 H :    0.166764
Sum of atomic charges:   -0.0000000

--------------------------------
MULLIKEN REDUCED ORBITAL CHARGES
--------------------------------
  0 C s       :     3.178053  s :     3.178053
      pz      :     1.022077  p :     2.771349
      px      :     1.003996
      py      :     0.745275
      dz2     :     0.012526  d :     0.065214
      dxz     :     0.004304
      dyz     :     0.015550
      dx2y2   :     0.020769
      dxy     :     0.012066
  1 H s       :     0.851026  s :     0.851026
  2 H s       :     0.871418  s :     0.871418
  3 O s       :     3.868082  s :     3.868082
      pz      :     1.586841  p :     4.741117
      px      :     1.812216
      py      :     1.342061
      dz2     :     0.006114  d :     0.025898
      dxz     :     0.004898
      dyz     :     0.006263
      dx2y2   :     0.003274
      dxy     :     0.005349
  4 H s       :     0.606400  s :     0.606400
  5 C s       :     3.284837  s :     3.284837
      pz      :     1.012431  p :     3.148595
      px      :     1.083697
      py      :     1.052466
      dz2     :     0.009385  d :     0.034155
      dxz     :     0.004872
      dyz     :     0.005787
      dx2y2   :     0.010907
      dxy     :     0.003204
  6 H s       :     0.856962  s :     0.856962
  7 H s       :     0.863657  s :     0.863657
  8 H s       :     0.833236  s :     0.833236


                     *******************************
                     * LOEWDIN POPULATION ANALYSIS *
                     *******************************

----------------------
LOEWDIN ATOMIC CHARGES
----------------------
   0 C :   -0.106513
   1 H :    0.125136
   2 H :    0.106787
   3 O :   -0.425809
   4 H :    0.307591
   5 C :   -0.392150
   6 H :    0.128620
   7 H :    0.121473
   8 H :    0.134865

-------------------------------
LOEWDIN REDUCED ORBITAL CHARGES
-------------------------------
  0 C s       :     2.925299  s :     2.925299
      pz      :     1.093371  p :     3.042972
      px      :     1.082438
      py      :     0.867163
      dz2     :     0.026214  d :     0.138242
      dxz     :     0.008415
      dyz     :     0.034275
      dx2y2   :     0.042489
      dxy     :     0.026850
  1 H s       :     0.874864  s :     0.874864
  2 H s       :     0.893213  s :     0.893213
  3 O s       :     3.563004  s :     3.563004
      pz      :     1.602627  p :     4.814980
      px      :     1.825882
      py      :     1.386471
      dz2     :     0.010242  d :     0.047825
      dxz     :     0.006036
      dyz     :     0.012887
      dx2y2   :     0.007889
      dxy     :     0.010770
  4 H s       :     0.692409  s :     0.692409
  5 C s       :     2.977639  s :     2.977639
      pz      :     1.093475  p :     3.347381
      px      :     1.137738
      py      :     1.116167
      dz2     :     0.018456  d :     0.067130
      dxz     :     0.009893
      dyz     :     0.012457
      dx2y2   :     0.020404
      dxy     :     0.005920
  6 H s       :     0.871380  s :     0.871380
  7 H s       :     0.878527  s :     0.878527
  8 H s       :     0.865135  s :     0.865135


                      *****************************
                      * MAYER POPULATION ANALYSIS *
                      *****************************

  NA   - Mulliken gross atomic population
  ZA   - Total nuclear charge
  QA   - Mulliken gross atomic charge
  VA   - Mayer's total valence
  BVA  - Mayer's bonded valence
  FA   - Mayer's free valence

  ATOM       NA         ZA         QA         VA         BVA        FA
  0 C      6.0146     6.0000    -0.0146     3.8526     3.8526    -0.0000
  1 H      0.8510     1.0000     0.1490     0.9290     0.9290     0.0000
  2 H      0.8714     1.0000     0.1286     0.9225     0.9225    -0.0000
  3 O      8.6351     8.0000    -0.6351     1.7824     1.7824    -0.0000
  4 H      0.6064     1.0000     0.3936     0.8076     0.8076     0.0000
  5 C      6.4676     6.0000    -0.4676     3.8563     3.8563     0.0000
  6 H      0.8570     1.0000     0.1430     0.9338     0.9338     0.0000
  7 H      0.8637     1.0000     0.1363     0.9380     0.9380     0.0000
  8 H      0.8332     1.0000     0.1668     0.9321     0.9321    -0.0000

  Mayer bond orders larger than 0.1
B(  0-C ,  1-H ) :   0.9442 B(  0-C ,  2-H ) :   0.9398 B(  0-C ,  3-O ) :   0.9613 
B(  0-C ,  5-C ) :   1.0199 B(  3-O ,  4-H ) :   0.7877 B(  5-C ,  6-H ) :   0.9430 
B(  5-C ,  7-H ) :   0.9557 B(  5-C ,  8-H ) :   0.9491 

-------
TIMINGS
-------

Total SCF time: 0 days 0 hours 0 min 8 sec 

Total time                  ....       8.607 sec
Sum of individual times     ....       9.111 sec  (105.9%)

Fock matrix formation       ....       7.965 sec  ( 92.5%)
  Coulomb formation         ....       6.114 sec  ( 76.8% of F)
  XC integration            ....       1.847 sec  ( 23.2% of F)
    Basis function eval.    ....       0.929 sec  ( 50.3% of XC)
    Density eval.           ....       0.253 sec  ( 13.7% of XC)
    XC-Functional eval.     ....       0.283 sec  ( 15.3% of XC)
    XC-Potential eval.      ....       0.338 sec  ( 18.3% of XC)
Diagonalization             ....       0.007 sec  (  0.1%)
Density matrix formation    ....       0.001 sec  (  0.0%)
Population analysis         ....       0.003 sec  (  0.0%)
Initial guess               ....       0.421 sec  (  4.9%)
Orbital Transformation      ....       0.000 sec  (  0.0%)
Orbital Orthonormalization  ....       0.000 sec  (  0.0%)
DIIS solution               ....       0.002 sec  (  0.0%)
SOSCF solution              ....       0.004 sec  (  0.0%)
Grid generation             ....       0.709 sec  (  8.2%)

-------------------------   --------------------
FINAL SINGLE POINT ENERGY      -154.931661532517
-------------------------   --------------------

------------------------------------------------------------------------------
                         ORCA SCF GRADIENT CALCULATION
------------------------------------------------------------------------------

Gradient of the Kohn-Sham DFT energy:
Kohn-Sham wavefunction type      ... RKS
Hartree-Fock exchange scaling    ...    0.200
Number of operators              ...    1
Number of atoms                  ...    9
Basis set dimensions             ...   54
Integral neglect threshold       ... 2.5e-11
Integral primitive cutoff        ... 2.5e-12

Nuclear repulsion gradient       ... done
One Electron Gradient            ... done
Pre-screening matrix             ... done
Starting the two electron gradient:
Two electron gradient done
Exchange-correlation gradient    ... done

------------------
CARTESIAN GRADIENT
------------------

   1   C   :   -0.014739882    0.013553525   -0.035743134
   2   H   :   -0.006861793   -0.000738409    0.016646587
   3   H   :    0.021216829   -0.003517787    0.003742752
   4   O   :   -0.007619256   -0.004203636    0.021077934
   5   H   :    0.005102075   -0.000097140   -0.008015654
   6   C   :    0.009560818    0.007228307    0.024248835
   7   H   :    0.004426258   -0.018770513   -0.003493266
   8   H   :    0.006242372    0.005911222   -0.016862407
   9   H   :   -0.017327420    0.000634430   -0.001601647

Norm of the cartesian gradient     ...    0.069766406
RMS gradient                       ...    0.013426551
MAX gradient                       ...    0.035743134

-------
TIMINGS
-------

Total SCF gradient time            ...        3.578 sec

One electron gradient       ....       0.034 sec  (  1.0%)
Prescreening matrices       ....       0.044 sec  (  1.2%)
Two electron gradient       ....       1.255 sec  ( 35.1%)
XC gradient                 ....       2.053 sec  ( 57.4%)
------------------------------------------------------------------------------
                         ORCA GEOMETRY RELAXATION STEP
------------------------------------------------------------------------------

Reading the OPT-File                    .... done
Getting information on internals        .... done
Copying old internal coords+grads       .... done
Making the new internal coordinates     .... (new redundants).... done
Validating the new internal coordinates .... (new redundants).... done
Calculating the B-matrix                .... done
Calculating the G,G- and P matrices     .... done
Transforming gradient to internals      .... done
Projecting the internal gradient        .... done
Number of atoms                         ....   9
Number of internal coordinates          ....  33
Current Energy                          ....  -154.931661533 Eh
Current gradient norm                   ....     0.069766406 Eh/bohr
Maximum allowed component of the step   ....  0.300
Current trust radius                    ....  0.300
Evaluating the initial hessian          ....  (Almloef) done
Projecting the Hessian                  .... done
Forming the augmented Hessian           .... done
Diagonalizing the augmented Hessian     .... done
Last element of RFO vector              ....  0.989209117
Lowest eigenvalues of augmented Hessian:
 -0.006541403  0.010416770  0.018419031  0.110107156  0.112092516
Length of the computed step             ....  0.148108711
The final length of the internal step   ....  0.148108711
Converting the step to cartesian space:
 Initial RMS(Int)=    0.0257824173
Transforming coordinates:
 Iter   0:  RMS(Cart)=    0.0308519073 RMS(Int)=    1.0912811243
 Iter   1:  RMS(Cart)=    0.0004847424 RMS(Int)=    0.0003830501
 Iter   2:  RMS(Cart)=    0.0000090150 RMS(Int)=    0.0000079041
 Iter   3:  RMS(Cart)=    0.0000003179 RMS(Int)=    0.0000002323
 Iter   4:  RMS(Cart)=    0.0000000059 RMS(Int)=    0.0000000045
done
Storing new coordinates                 .... done

                                .--------------------.
          ----------------------|Geometry convergence|---------------------
          Item                value                 Tolerance   Converged
          -----------------------------------------------------------------
          RMS gradient        0.00839002            0.00010000      NO
          MAX gradient        0.02121380            0.00030000      NO
          RMS step            0.02578242            0.00200000      NO
          MAX step            0.05382915            0.00400000      NO
          ....................................................
          Max(Bonds)      0.0285      Max(Angles)    2.67
          Max(Dihed)        1.74      Max(Improp)    0.00
          -----------------------------------------------------------------

The optimization has not yet converged - more geometry cycles are needed


    ---------------------------------------------------------------------------
                         Redundant Internal Coordinates
                            (Angstroem and degrees)

        Definition                    Value    dE/dq     Step     New-Value
    ----------------------------------------------------------------------------
     1. B(H   1,C   0)                1.0700 -0.016232  0.0218    1.0918   
     2. B(H   2,C   0)                1.0700 -0.021214  0.0285    1.0985   
     3. B(O   3,C   0)                1.4300  0.003221 -0.0035    1.4265   
     4. B(H   4,O   3)                0.9600 -0.008191  0.0082    0.9682   
     5. B(C   5,C   0)                1.5400  0.000476 -0.0007    1.5393   
     6. B(H   6,C   5)                1.0700 -0.019124  0.0257    1.0957   
     7. B(H   7,C   5)                1.0700 -0.018718  0.0251    1.0951   
     8. B(H   8,C   5)                1.0700 -0.017380  0.0233    1.0933   
     9. A(H   1,C   0,H   2)          109.47  0.000995   -0.91    108.56   
    10. A(H   1,C   0,O   3)          109.47  0.010981   -2.67    106.80   
    11. A(H   2,C   0,O   3)          109.47  0.000869    0.75    110.22   
    12. A(H   2,C   0,C   5)          109.47  0.001930    0.40    109.87   
    13. A(H   1,C   0,C   5)          109.47 -0.002103    0.17    109.64   
    14. A(O   3,C   0,C   5)          109.47 -0.012670    2.26    111.73   
    15. A(C   0,O   3,H   4)          109.50  0.008715   -1.38    108.12   
    16. A(H   7,C   5,H   8)          109.47  0.001852   -0.43    109.04   
    17. A(H   6,C   5,H   8)          109.47  0.002230   -0.30    109.17   
    18. A(C   0,C   5,H   8)          109.47 -0.000093    0.03    109.51   
    19. A(H   6,C   5,H   7)          109.47  0.003969   -0.72    108.75   
    20. A(C   0,C   5,H   7)          109.47 -0.002785    0.46    109.93   
    21. A(C   0,C   5,H   6)          109.47 -0.005174    0.96    110.43   
    22. D(H   4,O   3,C   0,H   2)    -60.11  0.004355   -1.33    -61.44   
    23. D(H   4,O   3,C   0,H   1)    179.89 -0.004119    0.96    180.85   
    24. D(H   4,O   3,C   0,C   5)     59.89 -0.000509    1.00     60.89   
    25. D(H   6,C   5,C   0,O   3)    175.51  0.002981   -0.81    174.70   
    26. D(H   8,C   5,C   0,O   3)     55.51  0.003475   -1.05     54.46   
    27. D(H   7,C   5,C   0,H   1)    175.51 -0.001433    0.96    176.47   
    28. D(H   6,C   5,C   0,H   2)    -64.49 -0.002533    1.74    -62.75   
    29. D(H   7,C   5,C   0,O   3)    -64.49  0.002969   -0.82    -65.32   
    30. D(H   8,C   5,C   0,H   1)    -64.49 -0.000926    0.74    -63.75   
    31. D(H   8,C   5,C   0,H   2)    175.51 -0.002038    1.50    177.01   
    32. D(H   7,C   5,C   0,H   2)     55.51 -0.002545    1.72     57.23   
    33. D(H   6,C   5,C   0,H   1)     55.51 -0.001421    0.98     56.49   
    ----------------------------------------------------------------------------

         *************************************************************
         *                GEOMETRY OPTIMIZATION CYCLE   2            *
         *************************************************************
---------------------------------
CARTESIAN COORDINATES (ANGSTROEM)
---------------------------------
  C     -2.375985   -1.382369    0.015398
  H     -2.006540   -0.888938   -0.885742
  H     -3.474220   -1.368871   -0.003805
  O     -1.899733   -2.726411   -0.025723
  H     -2.228151   -3.186403    0.760421
  C     -1.866073   -0.635353    1.260966
  H     -2.165142    0.418078    1.224178
  H     -2.284934   -1.088741    2.165572
  H     -0.775317   -0.697630    1.302927

----------------------------
CARTESIAN COORDINATES (A.U.)
----------------------------
  NO LB      ZA    FRAG    MASS        X           Y           Z
   0 C     6.0000    0    12.011         -4.489961725941186         -2.612299405265426          0.029098001325752
   1 H     1.0000    0     1.008         -3.791811913528333         -1.679848962081715         -1.673810026774314
   2 H     1.0000    0     1.008         -6.565323867025675         -2.586790806915576         -0.007190341218604
   3 O     8.0000    0    15.999         -3.589975237259857         -5.152170770168271         -0.048609598213090
   4 H     1.0000    0     1.008         -4.210595292949766         -6.021429328346930          1.436988111968675
   5 C     6.0000    0    12.011         -3.526367334567038         -1.200643047459310          2.382879991245527
   6 H     1.0000    0     1.008         -4.091525129543840          0.790053804129823          2.313361746918226
   7 H     1.0000    0     1.008         -4.317898648698166         -2.057423197190849          4.092338345525301
   8 H     1.0000    0     1.008         -1.465137484650734         -1.318330231610330          2.462175869936566

--------------------------------
INTERNAL COORDINATES (ANGSTROEM)
--------------------------------
 C      0   0   0   0.000000     0.000     0.000
 H      1   0   0   1.091796     0.000     0.000
 H      1   2   0   1.098485   108.562     0.000
 O      1   2   3   1.426519   106.801   118.776
 H      4   1   2   0.968232   108.118   180.825
 C      1   2   3   1.539313   109.661   239.992
 H      6   1   2   1.095679   110.426    56.484
 H      6   1   2   1.095134   109.925   176.468
 H      6   1   2   1.093338   109.505   296.243

---------------------------
INTERNAL COORDINATES (A.U.)
---------------------------
 C      0   0   0   0.000000     0.000     0.000
 H      1   0   0   2.063195     0.000     0.000
 H      1   2   0   2.075836   108.562     0.000
 O      1   2   3   2.695730   106.801   118.776
 H      4   1   2   1.829694   108.118   180.825
 C      1   2   3   2.908879   109.661   239.992
 H      6   1   2   2.070534   110.426    56.484
 H      6   1   2   2.069503   109.925   176.468
 H      6   1   2   2.066109   109.505   296.243


Diagonalization of the overlap matrix:
Smallest eigenvalue                        ... 7.503e-03
Time for diagonalization                   ...    0.001 sec
Threshold for overlap eigenvalues          ... 1.000e-08
Number of eigenvalues below threshold      ... 0
Time for construction of square roots      ...    0.001 sec
Total time needed                          ...    0.002 sec

-------------------
DFT GRID GENERATION
-------------------

General Integration Accuracy     IntAcc      ...  4.340
Radial Grid Type                 RadialGrid  ... Gauss-Chebyshev
Angular Grid (max. acc.)         AngularGrid ... Lebedev-110
Angular grid pruning method      GridPruning ... 3 (G Style)
Weight generation scheme         WeightScheme... Becke
Basis function cutoff            BFCut       ...    1.0000e-11
Integration weight cutoff        WCut        ...    1.0000e-14
Grids for H and He will be reduced by one unit

# of grid points (after initial pruning)     ...   9792 (   0.0 sec)
# of grid points (after weights+screening)   ...   9357 (   0.0 sec)
nearest neighbour list constructed           ...    0.0 sec
Grid point re-assignment to atoms done       ...    0.0 sec
Grid point division into batches done        ...    0.0 sec
Reduced shell lists constructed in    0.1 sec

Total number of grid points                  ...     9357
Total number of batches                      ...      152
Average number of points per batch           ...       61
Average number of grid points per atom       ...     1040
Average number of shells per batch           ...    25.84 (86.14%)
Average number of basis functions per batch  ...    47.32 (87.63%)
Average number of large shells per batch     ...    22.75 (88.04%)
Average number of large basis fcns per batch ...    42.27 (89.32%)
Maximum spatial batch extension              ...  23.21, 25.60, 21.84 au
Average spatial batch extension              ...   4.26,  4.26,  4.27 au

Time for grid setup =    0.117 sec

--------------
SCF ITERATIONS
--------------
ITER       Energy         Delta-E        Max-DP      RMS-DP      [F,P]     Damp
               ***  Starting incremental Fock matrix formation  ***
  0   -154.9349630101   0.000000000000 0.00375412  0.00027017  0.0092314 0.7000
                      *** Initiating the SOSCF procedure ***
                      *** Re-Reading the Fockian *** 
                      *** Removing any level shift *** 
ITER      Energy       Delta-E        Grad      Rot      Max-DP    RMS-DP
  1   -154.93522456  -0.0002615547  0.000873  0.000873  0.009536  0.000774
               *** Restarting incremental Fock matrix formation ***
  2   -154.93574542  -0.0005208556  0.001381  0.002232  0.006310  0.000419
  3   -154.93573743   0.0000079947  0.001656  0.001275  0.003521  0.000207
  4   -154.93580105  -0.0000636264  0.000178  0.000140  0.000600  0.000033
  5   -154.93580085   0.0000002064  0.000256  0.000085  0.000370  0.000019
  6   -154.93580135  -0.0000005049  0.000011  0.000012  0.000024  0.000003
  7   -154.93580135  -0.0000000027  0.000005  0.000005  0.000013  0.000001
                  ***Gradient check signals convergence***
              ***Rediagonalizing the Fockian in SOSCF/NRSCF***

               *****************************************************
               *                     SUCCESS                       *
               *           SCF CONVERGED AFTER   8 CYCLES          *
               *****************************************************

Setting up the final grid:

General Integration Accuracy     IntAcc      ...  4.670
Radial Grid Type                 RadialGrid  ... Gauss-Chebyshev
Angular Grid (max. acc.)         AngularGrid ... Lebedev-302
Angular grid pruning method      GridPruning ... 3 (G Style)
Weight generation scheme         WeightScheme... Becke
Basis function cutoff            BFCut       ...    1.0000e-11
Integration weight cutoff        WCut        ...    1.0000e-14
Grids for H and He will be reduced by one unit

# of grid points (after initial pruning)     ...  39000 (   0.0 sec)
# of grid points (after weights+screening)   ...  36942 (   0.1 sec)
nearest neighbour list constructed           ...    0.0 sec
Grid point re-assignment to atoms done       ...    0.0 sec
Grid point division into batches done        ...    0.2 sec
Reduced shell lists constructed in    0.5 sec

Total number of grid points                  ...    36942
Total number of batches                      ...      580
Average number of points per batch           ...       63
Average number of grid points per atom       ...     4105
Average number of shells per batch           ...    23.99 (79.97%)
Average number of basis functions per batch  ...    44.01 (81.50%)
Average number of large shells per batch     ...    20.68 (86.20%)
Average number of large basis fcns per batch ...    38.25 (86.91%)
Maximum spatial batch extension              ...  17.61, 17.51, 19.27 au
Average spatial batch extension              ...   2.77,  2.83,  2.90 au

Final grid set up in    0.6 sec
Final integration                            ... done (   0.4 sec)
Change in XC energy                          ...     0.000351325
Integrated number of electrons               ...    25.999983653
Previous integrated no of electrons          ...    26.003772007
Total Energy       :         -154.93545003 Eh           -4216.00793 eV
  Last Energy change         ...   -1.2375e-09  Tolerance :   1.0000e-08
  Last MAX-Density change    ...    3.4137e-06  Tolerance :   1.0000e-07
             **** THE GBW FILE WAS UPDATED (ethanol.gbw) ****
             **** DENSITY FILE WAS UPDATED (ethanol.scfp.tmp) ****
             **** ENERGY FILE WAS UPDATED (ethanol.en.tmp) ****
Total SCF time: 0 days 0 hours 0 min 6 sec 

-------------------------   --------------------
FINAL SINGLE POINT ENERGY      -154.935450029227
-------------------------   --------------------

------------------------------------------------------------------------------
                         ORCA SCF GRADIENT CALCULATION
------------------------------------------------------------------------------

Gradient of the Kohn-Sham DFT energy:
Kohn-Sham wavefunction type      ... RKS
Hartree-Fock exchange scaling    ...    0.200
Number of operators              ...    1
Number of atoms                  ...    9
Basis set dimensions             ...   54
Integral neglect threshold       ... 2.5e-11
Integral primitive cutoff        ... 2.5e-12

Nuclear repulsion gradient       ... done
One Electron Gradient            ... done
Pre-screening matrix             ... done
Starting the two electron gradient:
Two electron gradient done
Exchange-correlation gradient    ... done

------------------
CARTESIAN GRADIENT
------------------

   1   C   :   -0.002952696    0.002489220   -0.012485156
   2   H   :   -0.000271521    0.002008797    0.002865475
   3   H   :    0.002122769   -0.002314078    0.002114177
   4   O   :   -0.002124324   -0.002104961    0.005854138
   5   H   :    0.001163044   -0.000795810   -0.001545316
   6   C   :    0.003701198    0.002950410    0.008877823
   7   H   :    0.000076433   -0.000756859   -0.001961409
   8   H   :   -0.000526453   -0.000923326   -0.002517050
   9   H   :   -0.001188449   -0.000553393   -0.001202681

Norm of the cartesian gradient     ...    0.019008123
RMS gradient                       ...    0.003658115
MAX gradient                       ...    0.012485156

-------
TIMINGS
-------

Total SCF gradient time            ...        3.559 sec

One electron gradient       ....       0.034 sec  (  1.0%)
Prescreening matrices       ....       0.044 sec  (  1.2%)
Two electron gradient       ....       1.243 sec  ( 34.9%)
XC gradient                 ....       2.050 sec  ( 57.6%)
------------------------------------------------------------------------------
                         ORCA GEOMETRY RELAXATION STEP
------------------------------------------------------------------------------

Reading the OPT-File                    .... done
Getting information on internals        .... done
Copying old internal coords+grads       .... done
Making the new internal coordinates     .... (new redundants).... done
Validating the new internal coordinates .... (new redundants).... done
Calculating the B-matrix                .... done
Calculating the G,G- and P matrices     .... done
Transforming gradient to internals      .... done
Projecting the internal gradient        .... done
Number of atoms                         ....   9
Number of internal coordinates          ....  33
Current Energy                          ....  -154.935450029 Eh
Current gradient norm                   ....     0.019008123 Eh/bohr
Maximum allowed component of the step   ....  0.300
Current trust radius                    ....  0.300
Updating the Hessian (BFGS)             .... done
Forming the augmented Hessian           .... done
Diagonalizing the augmented Hessian     .... done
Last element of RFO vector              ....  0.997159155
Lowest eigenvalues of augmented Hessian:
 -0.000568792  0.010400136  0.018421510  0.102278451  0.111998177
Length of the computed step             ....  0.075538025
The final length of the internal step   ....  0.075538025
Converting the step to cartesian space:
 Initial RMS(Int)=    0.0131494822
Transforming coordinates:
 Iter   0:  RMS(Cart)=    0.0125034744 RMS(Int)=    0.0131438625
 Iter   1:  RMS(Cart)=    0.0001372249 RMS(Int)=    0.0001041135
 Iter   2:  RMS(Cart)=    0.0000015343 RMS(Int)=    0.0000016058
 Iter   3:  RMS(Cart)=    0.0000000268 RMS(Int)=    0.0000000243
done
Storing new coordinates                 .... done

                                .--------------------.
          ----------------------|Geometry convergence|---------------------
          Item                value                 Tolerance   Converged
          -----------------------------------------------------------------
          Energy change      -0.00378850            0.00000500      NO
          RMS gradient        0.00182579            0.00010000      NO
          MAX gradient        0.00391762            0.00030000      NO
          RMS step            0.01314948            0.00200000      NO
          MAX step            0.02972904            0.00400000      NO
          ....................................................
          Max(Bonds)      0.0065      Max(Angles)    1.30
          Max(Dihed)        1.70      Max(Improp)    0.00
          -----------------------------------------------------------------

The optimization has not yet converged - more geometry cycles are needed


    ---------------------------------------------------------------------------
                         Redundant Internal Coordinates
                            (Angstroem and degrees)

        Definition                    Value    dE/dq     Step     New-Value
    ----------------------------------------------------------------------------
     1. B(H   1,C   0)                1.0918 -0.001554  0.0035    1.0953   
     2. B(H   2,C   0)                1.0985 -0.002185  0.0049    1.1033   
     3. B(O   3,C   0)                1.4265  0.002293 -0.0032    1.4233   
     4. B(H   4,O   3)                0.9682 -0.001264  0.0019    0.9702   
     5. B(C   5,C   0)                1.5393  0.003611 -0.0065    1.5329   
     6. B(H   6,C   5)                1.0957 -0.000678  0.0022    1.0979   
     7. B(H   7,C   5)                1.0951 -0.001502  0.0036    1.0987   
     8. B(H   8,C   5)                1.0933 -0.001200  0.0030    1.0963   
     9. A(H   1,C   0,H   2)          108.56  0.001180   -0.76    107.80   
    10. A(H   1,C   0,O   3)          106.80  0.003918   -1.30    105.50   
    11. A(H   2,C   0,O   3)          110.17 -0.000440    0.61    110.78   
    12. A(H   2,C   0,C   5)          109.84  0.000689    0.21    110.05   
    13. A(H   1,C   0,C   5)          109.66 -0.001743    0.28    109.94   
    14. A(O   3,C   0,C   5)          111.71 -0.003431    0.95    112.66   
    15. A(C   0,O   3,H   4)          108.12  0.003038   -0.65    107.46   
    16. A(H   7,C   5,H   8)          109.04  0.001860   -0.44    108.61   
    17. A(H   6,C   5,H   8)          109.17  0.001344   -0.26    108.91   
    18. A(C   0,C   5,H   8)          109.51 -0.001084    0.27    109.78   
    19. A(H   6,C   5,H   7)          108.75  0.002384   -0.60    108.14   
    20. A(C   0,C   5,H   7)          109.92 -0.002553    0.56    110.49   
    21. A(C   0,C   5,H   6)          110.43 -0.001858    0.46    110.89   
    22. D(H   4,O   3,C   0,H   2)    -61.45  0.001754   -0.94    -62.39   
    23. D(H   4,O   3,C   0,H   1)   -179.17 -0.001665    0.41   -178.76   
    24. D(H   4,O   3,C   0,C   5)     60.92 -0.000035    0.31     61.23   
    25. D(H   6,C   5,C   0,O   3)    174.69  0.001079    0.22    174.91   
    26. D(H   8,C   5,C   0,O   3)     54.45  0.001272    0.08     54.53   
    27. D(H   7,C   5,C   0,H   1)    176.47 -0.000389    0.96    177.43   
    28. D(H   6,C   5,C   0,H   2)    -62.74 -0.001338    1.70    -61.04   
    29. D(H   7,C   5,C   0,O   3)    -65.32  0.001230    0.11    -65.22   
    30. D(H   8,C   5,C   0,H   1)    -63.76 -0.000346    0.93    -62.83   
    31. D(H   8,C   5,C   0,H   2)    177.02 -0.001145    1.57    178.58   
    32. D(H   7,C   5,C   0,H   2)     57.24 -0.001188    1.59     58.84   
    33. D(H   6,C   5,C   0,H   1)     56.48 -0.000539    1.07     57.55   
    ----------------------------------------------------------------------------

         *************************************************************
         *                GEOMETRY OPTIMIZATION CYCLE   3            *
         *************************************************************
---------------------------------
CARTESIAN COORDINATES (ANGSTROEM)
---------------------------------
  C     -2.374190   -1.387106    0.023601
  H     -2.000123   -0.905242   -0.886119
  H     -3.476703   -1.360044   -0.009287
  O     -1.900996   -2.728223   -0.034217
  H     -2.233797   -3.188551    0.752258
  C     -1.867700   -0.635473    1.259794
  H     -2.174145    0.418385    1.229812
  H     -2.275086   -1.084190    2.176229
  H     -0.773356   -0.686194    1.302121

----------------------------
CARTESIAN COORDINATES (A.U.)
----------------------------
  NO LB      ZA    FRAG    MASS        X           Y           Z
   0 C     6.0000    0    12.011         -4.486568819655352         -2.621250802589692          0.044599015932728
   1 H     1.0000    0     1.008         -3.779683898673852         -1.710659423675368         -1.674522205343198
   2 H     1.0000    0     1.008         -6.570016930566973         -2.570110649206434         -0.017549696479042
   3 O     8.0000    0    15.999         -3.592361146825604         -5.155593470395829         -0.064661367035038
   4 H     1.0000    0     1.008         -4.221265023653872         -6.025488722160650          1.421562241080313
   5 C     6.0000    0    12.011         -3.529441519374328         -1.200869898093162          2.380665901989230
   6 H     1.0000    0     1.008         -4.108538892689321          0.790632343577461          2.324007873672107
   7 H     1.0000    0     1.008         -4.299289835239006         -2.048822076905029          4.112477696227612
   8 H     1.0000    0     1.008         -1.461430567486287         -1.296719245459880          2.460652640669326

--------------------------------
INTERNAL COORDINATES (ANGSTROEM)
--------------------------------
 C      0   0   0   0.000000     0.000     0.000
 H      1   0   0   1.095313     0.000     0.000
 H      1   2   0   1.103336   107.801     0.000
 O      1   2   3   1.423323   105.500   118.359
 H      4   1   2   0.970156   107.464   181.221
 C      1   2   3   1.532860   109.953   240.072
 H      6   1   2   1.097918   110.881    57.547
 H      6   1   2   1.098710   110.481   177.425
 H      6   1   2   1.096336   109.772   297.169

---------------------------
INTERNAL COORDINATES (A.U.)
---------------------------
 C      0   0   0   0.000000     0.000     0.000
 H      1   0   0   2.069841     0.000     0.000
 H      1   2   0   2.085002   107.801     0.000
 O      1   2   3   2.689691   105.500   118.359
 H      4   1   2   1.833330   107.464   181.221
 C      1   2   3   2.896685   109.953   240.072
 H      6   1   2   2.074764   110.881    57.547
 H      6   1   2   2.076261   110.481   177.425
 H      6   1   2   2.071776   109.772   297.169


Diagonalization of the overlap matrix:
Smallest eigenvalue                        ... 7.469e-03
Time for diagonalization                   ...    0.001 sec
Threshold for overlap eigenvalues          ... 1.000e-08
Number of eigenvalues below threshold      ... 0
Time for construction of square roots      ...    0.001 sec
Total time needed                          ...    0.002 sec

-------------------
DFT GRID GENERATION
-------------------

General Integration Accuracy     IntAcc      ...  4.340
Radial Grid Type                 RadialGrid  ... Gauss-Chebyshev
Angular Grid (max. acc.)         AngularGrid ... Lebedev-110
Angular grid pruning method      GridPruning ... 3 (G Style)
Weight generation scheme         WeightScheme... Becke
Basis function cutoff            BFCut       ...    1.0000e-11
Integration weight cutoff        WCut        ...    1.0000e-14
Grids for H and He will be reduced by one unit

# of grid points (after initial pruning)     ...   9792 (   0.0 sec)
# of grid points (after weights+screening)   ...   9357 (   0.0 sec)
nearest neighbour list constructed           ...    0.0 sec
Grid point re-assignment to atoms done       ...    0.0 sec
Grid point division into batches done        ...    0.0 sec
Reduced shell lists constructed in    0.1 sec

Total number of grid points                  ...     9357
Total number of batches                      ...      152
Average number of points per batch           ...       61
Average number of grid points per atom       ...     1040
Average number of shells per batch           ...    25.84 (86.12%)
Average number of basis functions per batch  ...    47.37 (87.71%)
Average number of large shells per batch     ...    22.80 (88.26%)
Average number of large basis fcns per batch ...    42.25 (89.21%)
Maximum spatial batch extension              ...  24.64, 25.60, 21.82 au
Average spatial batch extension              ...   4.25,  4.15,  4.26 au

Time for grid setup =    0.119 sec

--------------
SCF ITERATIONS
--------------
ITER       Energy         Delta-E        Max-DP      RMS-DP      [F,P]     Damp
               ***  Starting incremental Fock matrix formation  ***
                      *** Initiating the SOSCF procedure ***
                      *** Re-Reading the Fockian *** 
                      *** Removing any level shift *** 
ITER      Energy       Delta-E        Grad      Rot      Max-DP    RMS-DP
  0   -154.93597618 -154.9359761768  0.001374  0.001374  0.003432  0.000275
               *** Restarting incremental Fock matrix formation ***
  1   -154.93608871  -0.0001125293  0.000442  0.000653  0.001201  0.000123
  2   -154.93609800  -0.0000092945  0.000120  0.000239  0.000505  0.000037
  3   -154.93609804  -0.0000000375  0.000111  0.000113  0.000257  0.000019
  4   -154.93609842  -0.0000003796  0.000006  0.000007  0.000018  0.000002
  5   -154.93609842  -0.0000000004  0.000007  0.000004  0.000013  0.000001
                  ***Gradient check signals convergence***
              ***Rediagonalizing the Fockian in SOSCF/NRSCF***

               *****************************************************
               *                     SUCCESS                       *
               *           SCF CONVERGED AFTER   6 CYCLES          *
               *****************************************************

Setting up the final grid:

General Integration Accuracy     IntAcc      ...  4.670
Radial Grid Type                 RadialGrid  ... Gauss-Chebyshev
Angular Grid (max. acc.)         AngularGrid ... Lebedev-302
Angular grid pruning method      GridPruning ... 3 (G Style)
Weight generation scheme         WeightScheme... Becke
Basis function cutoff            BFCut       ...    1.0000e-11
Integration weight cutoff        WCut        ...    1.0000e-14
Grids for H and He will be reduced by one unit

# of grid points (after initial pruning)     ...  39000 (   0.0 sec)
# of grid points (after weights+screening)   ...  36944 (   0.1 sec)
nearest neighbour list constructed           ...    0.0 sec
Grid point re-assignment to atoms done       ...    0.0 sec
Grid point division into batches done        ...    0.2 sec
Reduced shell lists constructed in    0.5 sec

Total number of grid points                  ...    36944
Total number of batches                      ...      581
Average number of points per batch           ...       63
Average number of grid points per atom       ...     4105
Average number of shells per batch           ...    23.99 (79.95%)
Average number of basis functions per batch  ...    44.01 (81.50%)
Average number of large shells per batch     ...    20.64 (86.06%)
Average number of large basis fcns per batch ...    38.19 (86.77%)
Maximum spatial batch extension              ...  17.61, 17.51, 19.45 au
Average spatial batch extension              ...   2.82,  2.84,  2.87 au

Final grid set up in    0.6 sec
Final integration                            ... done (   0.4 sec)
Change in XC energy                          ...     0.000292463
Integrated number of electrons               ...    25.999982673
Previous integrated no of electrons          ...    26.003190624
Total Energy       :         -154.93580596 Eh           -4216.01762 eV
  Last Energy change         ...   -7.0898e-10  Tolerance :   1.0000e-08
  Last MAX-Density change    ...    4.7401e-06  Tolerance :   1.0000e-07
             **** THE GBW FILE WAS UPDATED (ethanol.gbw) ****
             **** DENSITY FILE WAS UPDATED (ethanol.scfp.tmp) ****
             **** ENERGY FILE WAS UPDATED (ethanol.en.tmp) ****
Total SCF time: 0 days 0 hours 0 min 5 sec 

-------------------------   --------------------
FINAL SINGLE POINT ENERGY      -154.935805955914
-------------------------   --------------------

------------------------------------------------------------------------------
                         ORCA SCF GRADIENT CALCULATION
------------------------------------------------------------------------------

Gradient of the Kohn-Sham DFT energy:
Kohn-Sham wavefunction type      ... RKS
Hartree-Fock exchange scaling    ...    0.200
Number of operators              ...    1
Number of atoms                  ...    9
Basis set dimensions             ...   54
Integral neglect threshold       ... 2.5e-11
Integral primitive cutoff        ... 2.5e-12

Nuclear repulsion gradient       ... done
One Electron Gradient            ... done
Pre-screening matrix             ... done
Starting the two electron gradient:
Two electron gradient done
Exchange-correlation gradient    ... done

------------------
CARTESIAN GRADIENT
------------------

   1   C   :   -0.000433296   -0.000581018   -0.003126482
   2   H   :    0.000659220    0.000600246    0.000317191
   3   H   :   -0.000517032   -0.001007676    0.000978667
   4   O   :   -0.000249936   -0.000039374    0.000490988
   5   H   :   -0.000084361   -0.000049431   -0.000044126
   6   C   :    0.001068280    0.001825631    0.003325328
   7   H   :   -0.000126555    0.000774453   -0.000825767
   8   H   :   -0.000859213   -0.000986925   -0.000297130
   9   H   :    0.000542894   -0.000535906   -0.000818668

Norm of the cartesian gradient     ...    0.005799582
RMS gradient                       ...    0.001116130
MAX gradient                       ...    0.003325328

-------
TIMINGS
-------

Total SCF gradient time            ...        3.560 sec

One electron gradient       ....       0.034 sec  (  1.0%)
Prescreening matrices       ....       0.044 sec  (  1.2%)
Two electron gradient       ....       1.244 sec  ( 35.0%)
XC gradient                 ....       2.050 sec  ( 57.6%)
------------------------------------------------------------------------------
                         ORCA GEOMETRY RELAXATION STEP
------------------------------------------------------------------------------

Reading the OPT-File                    .... done
Getting information on internals        .... done
Copying old internal coords+grads       .... done
Making the new internal coordinates     .... (new redundants).... done
Validating the new internal coordinates .... (new redundants).... done
Calculating the B-matrix                .... done
Calculating the G,G- and P matrices     .... done
Transforming gradient to internals      .... done
Projecting the internal gradient        .... done
Number of atoms                         ....   9
Number of internal coordinates          ....  33
Current Energy                          ....  -154.935805956 Eh
Current gradient norm                   ....     0.005799582 Eh/bohr
Maximum allowed component of the step   ....  0.300
Current trust radius                    ....  0.300
Updating the Hessian (BFGS)             .... done
Forming the augmented Hessian           .... done
Diagonalizing the augmented Hessian     .... done
Last element of RFO vector              ....  0.998478525
Lowest eigenvalues of augmented Hessian:
 -0.000100484  0.009763256  0.018405874  0.087102640  0.112007397
Length of the computed step             ....  0.055225981
The final length of the internal step   ....  0.055225981
Converting the step to cartesian space:
 Initial RMS(Int)=    0.0096136093
Transforming coordinates:
 Iter   0:  RMS(Cart)=    0.0087001542 RMS(Int)=    0.0096226362
 Iter   1:  RMS(Cart)=    0.0000512633 RMS(Int)=    0.0000467161
 Iter   2:  RMS(Cart)=    0.0000005488 RMS(Int)=    0.0000005840
 Iter   3:  RMS(Cart)=    0.0000000067 RMS(Int)=    0.0000000062
done
Storing new coordinates                 .... done

                                .--------------------.
          ----------------------|Geometry convergence|---------------------
          Item                value                 Tolerance   Converged
          -----------------------------------------------------------------
          Energy change      -0.00035593            0.00000500      NO
          RMS gradient        0.00065884            0.00010000      NO
          MAX gradient        0.00184410            0.00030000      NO
          RMS step            0.00961361            0.00200000      NO
          MAX step            0.02368149            0.00400000      NO
          ....................................................
          Max(Bonds)      0.0043      Max(Angles)    0.51
          Max(Dihed)        1.36      Max(Improp)    0.00
          -----------------------------------------------------------------

The optimization has not yet converged - more geometry cycles are needed


    ---------------------------------------------------------------------------
                         Redundant Internal Coordinates
                            (Angstroem and degrees)

        Definition                    Value    dE/dq     Step     New-Value
    ----------------------------------------------------------------------------
     1. B(H   1,C   0)                1.0953  0.000221  0.0005    1.0958   
     2. B(H   2,C   0)                1.1033  0.000466  0.0003    1.1037   
     3. B(O   3,C   0)                1.4233 -0.000040 -0.0004    1.4230   
     4. B(H   4,O   3)                0.9702  0.000023  0.0004    0.9705   
     5. B(C   5,C   0)                1.5329  0.001844 -0.0043    1.5286   
     6. B(H   6,C   5)                1.0979  0.000806 -0.0006    1.0973   
     7. B(H   7,C   5)                1.0987  0.000467  0.0001    1.0988   
     8. B(H   8,C   5)                1.0963  0.000536 -0.0001    1.0962   
     9. A(H   1,C   0,H   2)          107.80  0.000760   -0.51    107.29   
    10. A(H   1,C   0,O   3)          105.50  0.000604   -0.38    105.12   
    11. A(H   2,C   0,O   3)          110.74 -0.000407    0.30    111.04   
    12. A(H   2,C   0,C   5)          110.01 -0.000008    0.09    110.10   
    13. A(H   1,C   0,C   5)          109.95 -0.000710    0.18    110.14   
    14. A(O   3,C   0,C   5)          112.64 -0.000184    0.28    112.92   
    15. A(C   0,O   3,H   4)          107.46  0.000030   -0.11    107.36   
    16. A(H   7,C   5,H   8)          108.60  0.001191   -0.32    108.28   
    17. A(H   6,C   5,H   8)          108.91  0.000709   -0.18    108.73   
    18. A(C   0,C   5,H   8)          109.77 -0.001063    0.31    110.08   
    19. A(H   6,C   5,H   7)          108.14  0.001103   -0.40    107.74   
    20. A(C   0,C   5,H   7)          110.48 -0.001400    0.40    110.88   
    21. A(C   0,C   5,H   6)          110.88 -0.000446    0.18    111.06   
    22. D(H   4,O   3,C   0,H   2)    -62.40  0.000548   -0.62    -63.02   
    23. D(H   4,O   3,C   0,H   1)   -178.78 -0.000485    0.05   -178.73   
    24. D(H   4,O   3,C   0,C   5)     61.26  0.000096   -0.09     61.17   
    25. D(H   6,C   5,C   0,O   3)    174.90  0.000078    0.71    175.61   
    26. D(H   8,C   5,C   0,O   3)     54.52  0.000173    0.62     55.14   
    27. D(H   7,C   5,C   0,H   1)    177.42  0.000078    0.76    178.19   
    28. D(H   6,C   5,C   0,H   2)    -61.03 -0.000591    1.36    -59.67   
    29. D(H   7,C   5,C   0,O   3)    -65.22  0.000253    0.58    -64.65   
    30. D(H   8,C   5,C   0,H   1)    -62.83 -0.000002    0.80    -62.03   
    31. D(H   8,C   5,C   0,H   2)    178.59 -0.000496    1.27    179.86   
    32. D(H   7,C   5,C   0,H   2)     58.85 -0.000416    1.23     60.07   
    33. D(H   6,C   5,C   0,H   1)     57.55 -0.000097    0.89     58.44   
    ----------------------------------------------------------------------------

         *************************************************************
         *                GEOMETRY OPTIMIZATION CYCLE   4            *
         *************************************************************
---------------------------------
CARTESIAN COORDINATES (ANGSTROEM)
---------------------------------
  C     -2.372848   -1.388279    0.026034
  H     -1.996384   -0.912378   -0.886419
  H     -3.475118   -1.351206   -0.015502
  O     -1.904243   -2.730487   -0.035010
  H     -2.237910   -3.189733    0.752183
  C     -1.868265   -0.637113    1.257973
  H     -2.182733    0.413913    1.235024
  H     -2.265046   -1.085195    2.179508
  H     -0.773548   -0.676161    1.300402

----------------------------
CARTESIAN COORDINATES (A.U.)
----------------------------
  NO LB      ZA    FRAG    MASS        X           Y           Z
   0 C     6.0000    0    12.011         -4.484033757696819         -2.623466263089683          0.049196213934573
   1 H     1.0000    0     1.008         -3.772618251214233         -1.724145374650261         -1.675088722545191
   2 H     1.0000    0     1.008         -6.567022024908892         -2.553409037061482         -0.029294747106393
   3 O     8.0000    0    15.999         -3.598498269836499         -5.159871878675906         -0.066158734480261
   4 H     1.0000    0     1.008         -4.229037377722007         -6.027722581292928          1.421419708430541
   5 C     6.0000    0    12.011         -3.530509223621560         -1.203970002232292          2.377223763910559
   6 H     1.0000    0     1.008         -4.124767503242927          0.782182736956881          2.333856698010552
   7 H     1.0000    0     1.008         -4.280315941362095         -2.050720665601333          4.118673939838312
   8 H     1.0000    0     1.008         -1.461794284559560         -1.277758879261578          2.457403980721347

--------------------------------
INTERNAL COORDINATES (ANGSTROEM)
--------------------------------
 C      0   0   0   0.000000     0.000     0.000
 H      1   0   0   1.095799     0.000     0.000
 H      1   2   0   1.103675   107.289     0.000
 O      1   2   3   1.422969   105.117   118.262
 H      4   1   2   0.970522   107.357   181.267
 C      1   2   3   1.528570   110.137   240.178
 H      6   1   2   1.097303   111.053    58.439
 H      6   1   2   1.098836   110.874   178.184
 H      6   1   2   1.096234   110.080   297.970

---------------------------
INTERNAL COORDINATES (A.U.)
---------------------------
 C      0   0   0   0.000000     0.000     0.000
 H      1   0   0   2.070760     0.000     0.000
 H      1   2   0   2.085644   107.289     0.000
 O      1   2   3   2.689021   105.117   118.262
 H      4   1   2   1.834021   107.357   181.267
 C      1   2   3   2.888579   110.137   240.178
 H      6   1   2   2.073602   111.053    58.439
 H      6   1   2   2.076498   110.874   178.184
 H      6   1   2   2.071583   110.080   297.970


Diagonalization of the overlap matrix:
Smallest eigenvalue                        ... 7.439e-03
Time for diagonalization                   ...    0.001 sec
Threshold for overlap eigenvalues          ... 1.000e-08
Number of eigenvalues below threshold      ... 0
Time for construction of square roots      ...    0.001 sec
Total time needed                          ...    0.002 sec

-------------------
DFT GRID GENERATION
-------------------

General Integration Accuracy     IntAcc      ...  4.340
Radial Grid Type                 RadialGrid  ... Gauss-Chebyshev
Angular Grid (max. acc.)         AngularGrid ... Lebedev-110
Angular grid pruning method      GridPruning ... 3 (G Style)
Weight generation scheme         WeightScheme... Becke
Basis function cutoff            BFCut       ...    1.0000e-11
Integration weight cutoff        WCut        ...    1.0000e-14
Grids for H and He will be reduced by one unit

# of grid points (after initial pruning)     ...   9792 (   0.0 sec)
# of grid points (after weights+screening)   ...   9355 (   0.0 sec)
nearest neighbour list constructed           ...    0.0 sec
Grid point re-assignment to atoms done       ...    0.0 sec
Grid point division into batches done        ...    0.0 sec
Reduced shell lists constructed in    0.1 sec

Total number of grid points                  ...     9355
Total number of batches                      ...      152
Average number of points per batch           ...       61
Average number of grid points per atom       ...     1039
Average number of shells per batch           ...    25.84 (86.14%)
Average number of basis functions per batch  ...    47.39 (87.75%)
Average number of large shells per batch     ...    22.81 (88.27%)
Average number of large basis fcns per batch ...    42.30 (89.27%)
Maximum spatial batch extension              ...  24.65, 25.60, 21.81 au
Average spatial batch extension              ...   4.28,  4.19,  4.24 au

Time for grid setup =    0.118 sec

--------------
SCF ITERATIONS
--------------
ITER       Energy         Delta-E        Max-DP      RMS-DP      [F,P]     Damp
[...]
 SCF integral mode      SCFMode         .... Direct
   Integral package                     .... LIBINT
 Reset frequeny         DirectResetFreq ....    20
 Integral Threshold     Thresh          ....  2.500e-11 Eh
 Primitive CutOff       TCut            ....  2.500e-12 Eh

Convergence Tolerance:
 Convergence Check Mode ConvCheckMode   .... Total+1el-Energy
 Energy Change          TolE            ....  1.000e-08 Eh
 1-El. energy change                    ....  1.000e-05 Eh
 Orbital Gradient       TolG            ....  1.000e-05
 Orbital Rotation angle TolX            ....  1.000e-05
 DIIS Error             TolErr          ....  5.000e-07


Diagonalization of the overlap matrix:
Smallest eigenvalue                        ... 7.437e-03
Time for diagonalization                   ...    0.001 sec
Threshold for overlap eigenvalues          ... 1.000e-08
Number of eigenvalues below threshold      ... 0
Time for construction of square roots      ...    0.001 sec
Total time needed                          ...    0.002 sec

---------------------
INITIAL GUESS: MOREAD
---------------------
Guess MOs are being read from file: ethanol.gbw
Input Geometry matches current geometry (good)
Input basis set matches current basis set (good)
MOs were renormalized
MOs were reorthogonalized (Schmidt)
                      ------------------
                      INITIAL GUESS DONE (   0.0 sec)
                      ------------------
-------------------
DFT GRID GENERATION
-------------------

General Integration Accuracy     IntAcc      ...  4.340
Radial Grid Type                 RadialGrid  ... Gauss-Chebyshev
Angular Grid (max. acc.)         AngularGrid ... Lebedev-110
Angular grid pruning method      GridPruning ... 3 (G Style)
Weight generation scheme         WeightScheme... Becke
Basis function cutoff            BFCut       ...    1.0000e-11
Integration weight cutoff        WCut        ...    1.0000e-14
Grids for H and He will be reduced by one unit

# of grid points (after initial pruning)     ...   9792 (   0.0 sec)
# of grid points (after weights+screening)   ...   9354 (   0.0 sec)
nearest neighbour list constructed           ...    0.0 sec
Grid point re-assignment to atoms done       ...    0.0 sec
Grid point division into batches done        ...    0.0 sec
Reduced shell lists constructed in    0.1 sec

Total number of grid points                  ...     9354
Total number of batches                      ...      152
Average number of points per batch           ...       61
Average number of grid points per atom       ...     1039
Average number of shells per batch           ...    25.86 (86.19%)
Average number of basis functions per batch  ...    47.36 (87.70%)
Average number of large shells per batch     ...    22.79 (88.14%)
Average number of large basis fcns per batch ...    42.28 (89.28%)
Maximum spatial batch extension              ...  25.60, 25.60, 20.70 au
Average spatial batch extension              ...   4.27,  4.22,  4.19 au

Time for grid setup =    0.119 sec

--------------
SCF ITERATIONS
--------------
ITER       Energy         Delta-E        Max-DP      RMS-DP      [F,P]     Damp
               ***  Starting incremental Fock matrix formation  ***
                      *** Initiating the SOSCF procedure ***
                      *** Re-Reading the Fockian *** 
                      *** Removing any level shift *** 
ITER      Energy       Delta-E        Grad      Rot      Max-DP    RMS-DP
  0   -154.93607814 -154.9360781431  0.000264  0.000264  0.000416  0.000035
               *** Restarting incremental Fock matrix formation ***
  1   -154.93608083  -0.0000026911  0.000082  0.000154  0.000224  0.000020
  2   -154.93608111  -0.0000002720  0.000016  0.000025  0.000068  0.000004
  3   -154.93608111   0.0000000003  0.000026  0.000009  0.000039  0.000002
                 **** Energy Check signals convergence ****
              ***Rediagonalizing the Fockian in SOSCF/NRSCF***

               *****************************************************
               *                     SUCCESS                       *
               *           SCF CONVERGED AFTER   4 CYCLES          *
               *****************************************************

Setting up the final grid:

General Integration Accuracy     IntAcc      ...  4.670
Radial Grid Type                 RadialGrid  ... Gauss-Chebyshev
Angular Grid (max. acc.)         AngularGrid ... Lebedev-302
Angular grid pruning method      GridPruning ... 3 (G Style)
Weight generation scheme         WeightScheme... Becke
Basis function cutoff            BFCut       ...    1.0000e-11
Integration weight cutoff        WCut        ...    1.0000e-14
Grids for H and He will be reduced by one unit

# of grid points (after initial pruning)     ...  39000 (   0.0 sec)
# of grid points (after weights+screening)   ...  36935 (   0.1 sec)
nearest neighbour list constructed           ...    0.0 sec
Grid point re-assignment to atoms done       ...    0.0 sec
Grid point division into batches done        ...    0.2 sec
Reduced shell lists constructed in    0.5 sec

Total number of grid points                  ...    36935
Total number of batches                      ...      581
Average number of points per batch           ...       63
Average number of grid points per atom       ...     4104
Average number of shells per batch           ...    24.02 (80.07%)
Average number of basis functions per batch  ...    44.07 (81.61%)
Average number of large shells per batch     ...    20.70 (86.19%)
Average number of large basis fcns per batch ...    38.29 (86.88%)
Maximum spatial batch extension              ...  18.14, 17.51, 18.85 au
Average spatial batch extension              ...   2.82,  2.85,  2.84 au

Final grid set up in    0.6 sec
Final integration                            ... done (   0.4 sec)
Change in XC energy                          ...     0.000196996
Integrated number of electrons               ...    25.999977652
Previous integrated no of electrons          ...    26.002285366

----------------
TOTAL SCF ENERGY
----------------

Total Energy       :         -154.93588412 Eh           -4216.01975 eV

Components:
Nuclear Repulsion  :           81.41214080 Eh            2215.33698 eV
Electronic Energy  :         -236.34802492 Eh           -6431.35672 eV

One Electron Energy:         -371.06917813 Eh          -10097.30567 eV
Two Electron Energy:          134.72115321 Eh            3665.94895 eV

Virial components:
Potential Energy   :         -309.00755913 Eh           -8408.52317 eV
Kinetic Energy     :          154.07167502 Eh            4192.50342 eV
Virial Ratio       :            2.00560914


DFT components:
N(Alpha)           :       12.999988825838 electrons
N(Beta)            :       12.999988825838 electrons
N(Total)           :       25.999977651676 electrons
E(X)               :      -16.461819088283 Eh       
E(C)               :       -1.007152908246 Eh       
E(XC)              :      -17.468971996529 Eh       

---------------
SCF CONVERGENCE
---------------

  Last Energy change         ...   -6.0035e-09  Tolerance :   1.0000e-08
  Last MAX-Density change    ...    4.6341e-06  Tolerance :   1.0000e-07
  Last RMS-Density change    ...    4.4642e-07  Tolerance :   5.0000e-09
  Last Orbital Gradient      ...    2.5048e-06  Tolerance :   1.0000e-05
  Last Orbital Rotation      ...    2.5283e-06  Tolerance :   1.0000e-05

             **** THE GBW FILE WAS UPDATED (ethanol.gbw) ****
             **** DENSITY FILE WAS UPDATED (ethanol.scfp.tmp) ****
             **** ENERGY FILE WAS UPDATED (ethanol.en.tmp) ****
----------------
ORBITAL ENERGIES
----------------

  NO   OCC          E(Eh)            E(eV) 
   0   2.0000     -19.127560      -520.4874 
   1   2.0000     -10.217880      -278.0427 
   2   2.0000     -10.166512      -276.6449 
   3   2.0000      -1.005768       -27.3683 
   4   2.0000      -0.739356       -20.1189 
   5   2.0000      -0.616985       -16.7890 
   6   2.0000      -0.493095       -13.4178 
   7   2.0000      -0.443811       -12.0767 
   8   2.0000      -0.423192       -11.5156 
   9   2.0000      -0.375125       -10.2077 
  10   2.0000      -0.364113        -9.9080 
  11   2.0000      -0.316714        -8.6182 
  12   2.0000      -0.259097        -7.0504 
  13   0.0000       0.080398         2.1877 
  14   0.0000       0.127800         3.4776 
  15   0.0000       0.148012         4.0276 
  16   0.0000       0.160118         4.3570 
  17   0.0000       0.170744         4.6462 
  18   0.0000       0.193873         5.2756 
  19   0.0000       0.225407         6.1336 
  20   0.0000       0.250356         6.8125 
  21   0.0000       0.529716        14.4143 
  22   0.0000       0.555330        15.1113 
  23   0.0000       0.568560        15.4713 
  24   0.0000       0.585390        15.9293 
  25   0.0000       0.658045        17.9063 
  26   0.0000       0.683952        18.6113 
  27   0.0000       0.807220        21.9656 
  28   0.0000       0.868298        23.6276 
  29   0.0000       0.877244        23.8710 
  30   0.0000       0.895898        24.3786 
  31   0.0000       0.902000        24.5447 
  32   0.0000       0.952319        25.9139 
  33   0.0000       1.019454        27.7408 
  34   0.0000       1.037834        28.2409 
  35   0.0000       1.058610        28.8063 
  36   0.0000       1.140160        31.0253 
  37   0.0000       1.379678        37.5430 
  38   0.0000       1.462985        39.8098 
  39   0.0000       1.521758        41.4091 
  40   0.0000       1.665944        45.3326 
  41   0.0000       1.746562        47.5264 
  42   0.0000       1.818407        49.4814 
  43   0.0000       1.914812        52.1047 
  44   0.0000       1.959196        53.3124 
  45   0.0000       2.094443        56.9927 
  46   0.0000       2.144594        58.3574 
  47   0.0000       2.206206        60.0339 
  48   0.0000       2.289817        62.3091 
  49   0.0000       2.372696        64.5643 
  50   0.0000       2.419182        65.8293 
  51   0.0000       2.511594        68.3440 
  52   0.0000       2.644535        71.9615 
  53   0.0000       2.829657        76.9989 

                    ********************************
                    * MULLIKEN POPULATION ANALYSIS *
                    ********************************

-----------------------
MULLIKEN ATOMIC CHARGES
-----------------------
   0 C :   -0.009154
   1 H :    0.143815
   2 H :    0.120674
   3 O :   -0.623855
   4 H :    0.390706
   5 C :   -0.460827
   6 H :    0.143124
   7 H :    0.133319
   8 H :    0.162199
Sum of atomic charges:   -0.0000000

--------------------------------
MULLIKEN REDUCED ORBITAL CHARGES
--------------------------------
  0 C s       :     3.183603  s :     3.183603
      pz      :     1.015965  p :     2.759572
      px      :     1.002431
      py      :     0.741175
      dz2     :     0.012834  d :     0.065979
      dxz     :     0.004634
      dyz     :     0.015551
      dx2y2   :     0.020461
      dxy     :     0.012500
  1 H s       :     0.856185  s :     0.856185
  2 H s       :     0.879326  s :     0.879326
  3 O s       :     3.873933  s :     3.873933
      pz      :     1.585990  p :     4.723169
      px      :     1.810453
      py      :     1.326726
      dz2     :     0.006038  d :     0.026753
      dxz     :     0.005055
      dyz     :     0.006869
      dx2y2   :     0.003452
      dxy     :     0.005339
  4 H s       :     0.609294  s :     0.609294
  5 C s       :     3.299009  s :     3.299009
      pz      :     1.005139  p :     3.128117
      px      :     1.076426
      py      :     1.046551
      dz2     :     0.009647  d :     0.033702
      dxz     :     0.004446
      dyz     :     0.005903
      dx2y2   :     0.010370
      dxy     :     0.003335
  6 H s       :     0.856876  s :     0.856876
  7 H s       :     0.866681  s :     0.866681
  8 H s       :     0.837801  s :     0.837801


                     *******************************
                     * LOEWDIN POPULATION ANALYSIS *
                     *******************************

----------------------
LOEWDIN ATOMIC CHARGES
----------------------
   0 C :   -0.107019
   1 H :    0.121636
   2 H :    0.100761
   3 O :   -0.417074
   4 H :    0.307005
   5 C :   -0.384972
   6 H :    0.128843
   7 H :    0.118744
   8 H :    0.132075

-------------------------------
LOEWDIN REDUCED ORBITAL CHARGES
-------------------------------
  0 C s       :     2.928593  s :     2.928593
      pz      :     1.090571  p :     3.037611
      px      :     1.080070
      py      :     0.866969
      dz2     :     0.026903  d :     0.140815
      dxz     :     0.008958
      dyz     :     0.034815
      dx2y2   :     0.042271
      dxy     :     0.027868
  1 H s       :     0.878364  s :     0.878364
  2 H s       :     0.899239  s :     0.899239
  3 O s       :     3.569825  s :     3.569825
      pz      :     1.600219  p :     4.798048
      px      :     1.823050
      py      :     1.374779
      dz2     :     0.009999  d :     0.049201
      dxz     :     0.006120
      dyz     :     0.013895
      dx2y2   :     0.008349
      dxy     :     0.010838
  4 H s       :     0.692995  s :     0.692995
  5 C s       :     2.987627  s :     2.987627
      pz      :     1.089671  p :     3.330945
      px      :     1.131389
      py      :     1.109885
      dz2     :     0.019028  d :     0.066399
      dxz     :     0.009119
      dyz     :     0.012785
      dx2y2   :     0.019302
      dxy     :     0.006165
  6 H s       :     0.871157  s :     0.871157
  7 H s       :     0.881256  s :     0.881256
  8 H s       :     0.867925  s :     0.867925


                      *****************************
                      * MAYER POPULATION ANALYSIS *
                      *****************************

  NA   - Mulliken gross atomic population
  ZA   - Total nuclear charge
  QA   - Mulliken gross atomic charge
  VA   - Mayer's total valence
  BVA  - Mayer's bonded valence
  FA   - Mayer's free valence

  ATOM       NA         ZA         QA         VA         BVA        FA
  0 C      6.0092     6.0000    -0.0092     3.8466     3.8466     0.0000
  1 H      0.8562     1.0000     0.1438     0.9314     0.9314     0.0000
  2 H      0.8793     1.0000     0.1207     0.9264     0.9264     0.0000
  3 O      8.6239     8.0000    -0.6239     1.7986     1.7986    -0.0000
  4 H      0.6093     1.0000     0.3907     0.8095     0.8095     0.0000
  5 C      6.4608     6.0000    -0.4608     3.8428     3.8428    -0.0000
  6 H      0.8569     1.0000     0.1431     0.9362     0.9362    -0.0000
  7 H      0.8667     1.0000     0.1333     0.9390     0.9390     0.0000
  8 H      0.8378     1.0000     0.1622     0.9333     0.9333     0.0000

  Mayer bond orders larger than 0.1
B(  0-C ,  1-H ) :   0.9439 B(  0-C ,  2-H ) :   0.9350 B(  0-C ,  3-O ) :   0.9706 
B(  0-C ,  5-C ) :   1.0101 B(  3-O ,  4-H ) :   0.7915 B(  5-C ,  6-H ) :   0.9412 
B(  5-C ,  7-H ) :   0.9528 B(  5-C ,  8-H ) :   0.9480 

-------
TIMINGS
-------

Total SCF time: 0 days 0 hours 0 min 4 sec 

Total time                  ....       4.247 sec
Sum of individual times     ....       4.240 sec  ( 99.8%)

Fock matrix formation       ....       3.526 sec  ( 83.0%)
  Coulomb formation         ....       2.511 sec  ( 71.2% of F)
  XC integration            ....       1.013 sec  ( 28.7% of F)
    Basis function eval.    ....       0.513 sec  ( 50.6% of XC)
    Density eval.           ....       0.139 sec  ( 13.7% of XC)
    XC-Functional eval.     ....       0.157 sec  ( 15.5% of XC)
    XC-Potential eval.      ....       0.179 sec  ( 17.6% of XC)
Diagonalization             ....       0.001 sec  (  0.0%)
Density matrix formation    ....       0.000 sec  (  0.0%)
Population analysis         ....       0.003 sec  (  0.1%)
Initial guess               ....       0.002 sec  (  0.0%)
Orbital Transformation      ....       0.000 sec  (  0.0%)
Orbital Orthonormalization  ....       0.001 sec  (  0.0%)
DIIS solution               ....       0.000 sec  (  0.0%)
SOSCF solution              ....       0.003 sec  (  0.1%)
Grid generation             ....       0.704 sec  ( 16.6%)

-------------------------   --------------------
FINAL SINGLE POINT ENERGY      -154.935884116181
-------------------------   --------------------

                                *** OPTIMIZATION RUN DONE ***

                            ***************************************
                            *     ORCA property calculations      *
                            ***************************************

                                    ---------------------
                                    Active property flags
                                    ---------------------
   (+) Dipole Moment


------------------------------------------------------------------------------
                       ORCA ELECTRIC PROPERTIES CALCULATION
------------------------------------------------------------------------------

Dipole Moment Calculation                       ... on
Quadrupole Moment Calculation                   ... off
Polarizability Calculation                      ... off
GBWName                                         ... ethanol.gbw
Electron density file                           ... ethanol.scfp.tmp

-------------
DIPOLE MOMENT
-------------
                                X             Y             Z
Electronic contribution:      0.23586      -2.51866      -1.39201
Nuclear contribution   :     -0.57465       2.76488       1.89773
                        -----------------------------------------
Total Dipole Moment    :     -0.33880       0.24621       0.50572
                        -----------------------------------------
Magnitude (a.u.)       :      0.65662
Magnitude (Debye)      :      1.66900

------------------------------------------------------------------------------
                      ORCA CHELPG CHARGES GENERATION
------------------------------------------------------------------------------

GBW file                           ... ethanol.gbw

Reading the GBW file               ... done

Grid spacing                       ...     0.300000
Point Cut-Off                      ...     2.800000
Van-der-Waals Radii                ...        COSMO
Total charge                       ...            0


Number of points X direction       ...           27
Number of points Y direction       ...           30
Number of points Z direction       ...           28
Maximum number of possible points  ...        22680
Final number of points             ...         7561


CHELPG Charges            
--------------------------------
  0   C   :       0.363939
  1   H   :       0.025695
  2   H   :      -0.044203
  3   O   :      -0.642858
  4   H   :       0.392921
  5   C   :      -0.352130
  6   H   :       0.073531
  7   H   :       0.084406
  8   H   :       0.098699
--------------------------------
Total charge:    -0.000000
--------------------------------

CHELPG charges calculated...

Timings for individual parts in CHELPG calculation:
Grid generation                 ...        0.003 sec (=   0.000 min)
Potential calculation           ...        1.365 sec (=   0.023 min)
Fit to the potential            ...        0.079 sec (=   0.001 min)
------------------------------------------------------------------------------


Timings for individual modules:

Sum of individual times         ...       72.203 sec (=   1.203 min)
GTO integral calculation        ...        1.987 sec (=   0.033 min)   2.8 %
SCF iterations                  ...       42.309 sec (=   0.705 min)  58.6 %
SCF Gradient evaluation         ...       21.476 sec (=   0.358 min)  29.7 %
Geometry relaxation             ...        0.254 sec (=   0.004 min)   0.4 %
CHELPG charge generation        ...        6.176 sec (=   0.103 min)   8.6 %
                             ****ORCA TERMINATED NORMALLY****
TOTAL RUN TIME: 0 days 0 hours 1 minutes 17 seconds 41 msec
