
                                 *****************
                                 * O   R   C   A *
                                 *****************

           --- An Ab Initio, DFT and Semiempirical electronic structure package ---

                  #######################################################
                  #                        -***-                        #
                  #  Department of molecular theory and spectroscopy    #
                  #              Directorship: Frank Neese              #
                  # Max Planck Institute for Chemical Energy Conversion #
                  #                  D-45470 Muelheim/Ruhr              #
                  #                       Germany                       #
                  #                                                     #
                  #                  All rights reserved                #
                  #                        -***-                        #
                  #######################################################


                         Program Version 3.0.1 -  RELEASE  -


 With contributions from (in alphabetic order):
   Ute Becker             : Parallelization
   Dmytro Bykov           : SCF Hessian
   Dmitry Ganyushin       : Spin-Orbit,Spin-Spin,Magnetic field MRCI
   Andreas Hansen         : Spin unrestricted coupled pair/coupled cluster methods
   Dimitrios Liakos       : Extrapolation schemes; parallel MDCI
   Robert Izsak           : Overlap fitted RIJCOSX, COSX-SCS-MP3
   Christian Kollmar      : KDIIS, OOCD, Brueckner-CCSD(T), CCSD density
   Simone Kossmann        : Meta GGA functionals, TD-DFT gradient, OOMP2, MP2 Hessian
   Taras Petrenko         : DFT Hessian,TD-DFT gradient, ASA and ECA modules, normal mode analysis, Resonance Raman, ABS, FL, XAS/XES, NRVS
   Christoph Reimann      : Effective Core Potentials
   Michael Roemelt        : Restricted open shell CIS
   Christoph Riplinger    : Improved optimizer, TS searches, QM/MM, DLPNO-CCSD
   Barbara Sandhoefer     : DKH picture change effects
   Igor Schapiro          : Molecular dynamics
   Kantharuban Sivalingam : CASSCF convergence, NEVPT2
   Boris Wezisla          : Elementary symmetry handling
   Frank Wennmohs         : Technical directorship


 We gratefully acknowledge several colleagues who have allowed us to
 interface, adapt or use parts of their codes:
   Stefan Grimme, W. Hujo, H. Kruse, T. Risthaus : VdW corrections, initial TS optimization,
                                                   DFT functionals, gCP
   Ed Valeev                                     : LibInt (2-el integral package), F12 methods
   Garnet Chan, S. Sharma, R. Olivares           : DMRG
   Ulf Ekstrom                                   : XCFun DFT Library
   Mihaly Kallay                                 : mrcc  (arbitrary order and MRCC methods)
   Andreas Klamt, Michael Diedenhofen            : otool_cosmo (COSMO solvation model)
   Frank Weinhold                                : gennbo (NPA and NBO analysis)


 Your calculation uses the libint2 library for the computation of 2-el integrals
 For citations please refer to: http://libint.valeyev.net

 This ORCA versions uses:
   CBLAS   interface :  Fast vector & matrix operations
   LAPACKE interface :  Fast linear algebra routines
   SCALAPACK package :  Parallel linear algebra routines


================================================================================
                                        WARNINGS
                       Please study these warnings very carefully!
================================================================================
Now building the actual basis set


INFO   : the flag for use of LIBINT has been found!

================================================================================
                                       INPUT FILE
================================================================================
NAME = dvb_sp.inp
|  1> # Single point restricted B3LYP/sto-3g calc
|  2> ! RKS STO-3G B3LYP UseSym
|  3> %output
|  4>  PrintLevel Normal
|  5>  Print[ P_Basis] 2
|  6>  Print[ P_MOs ] 1
|  7>  Print[ P_Overlap ] 1
|  8> end 
|  9> * xyz 0 1
| 10>  C                  0.27867948   -1.36683162    0.00000000
| 11>  C                  1.32303041   -0.44173575    0.00000000
| 12>  C                  1.04434506    0.92484978    0.00000000
| 13>  C                 -0.27867948    1.36683162    0.00000000
| 14>  C                 -1.32303041    0.44173575    0.00000000
| 15>  C                 -1.04434506   -0.92484978    0.00000000
| 16>  H                  2.36595443   -0.79037726    0.00000000
| 17>  H                  1.86746094    1.65407997    0.00000000
| 18>  H                 -2.36595443    0.79037726    0.00000000
| 19>  H                 -1.86746094   -1.65407997    0.00000000
| 20>  C                 -0.58659169    2.87589931    0.00000000
| 21>  C                  0.36350188    3.80076420    0.00000000
| 22>  H                 -1.65647768    3.12394312    0.00000000
| 23>  H                  0.14429560    4.87693235    0.00000000
| 24>  H                  1.43338788    3.55272039    0.00000000
| 25>  C                  0.58659169   -2.87589931    0.00000000
| 26>  C                 -0.36350188   -3.80076420    0.00000000
| 27>  H                  1.65647768   -3.12394312    0.00000000
| 28>  H                 -0.14429560   -4.87693235    0.00000000
| 29>  H                 -1.43338788   -3.55272039    0.00000000
| 30> *
| 31> 
| 32> 
| 33>                          ****END OF INPUT****
================================================================================

------------------------------------------------------------------------------
                            SYMMETRY HANDLING SETUP
------------------------------------------------------------------------------

------------------
SYMMETRY DETECTION
------------------
Preparing Data                    ... done
Detection Threshold:    SymThresh ... 1.0000e-04

Point Group will now be determined:
Moving molecule to center of mass ... done

POINT GROUP                       ... C2h

The coordinates will now be cleaned:
Moving to standard coord frame    ... done
(Changed main axis to z and atom 0 to xz plane)
Structure cleanup requested       ... yes
Selected point group              ... C2h
Cleaning Tolerance      SymThresh ... 1.0000e-04

Some missing point group data is constructed:
Constructing symmetry operations  ... done
Creating atom transfer table      ... done
Creating asymmetric unit          ... done

Cleaning coordinates              ... done

-----------------------------------------------
SYMMETRY-PERFECTED CARTESIAN COORDINATES (A.U.)
-----------------------------------------------
   0 C     2.63607715   0.00000000   0.00000000 
   1 C     1.31740777   2.28299936   0.00000000 
   2 C    -1.31821593   2.28289559   0.00000000 
   3 C    -2.63607715  -0.00000000   0.00000000 
   4 C    -1.31740777  -2.28299936   0.00000000 
   5 C     1.31821593  -2.28289559   0.00000000 
   6 H     2.35669238   4.08249013   0.00000000 
   7 H    -2.35773573   4.08230509   0.00000000 
   8 H    -2.35669238  -4.08249013   0.00000000 
   9 H     2.35773573  -4.08230509   0.00000000 
  10 C    -5.54655919  -0.00043072   0.00000000 
  11 C    -6.90038530   2.10795152   0.00000000 
  12 H    -6.40975269  -1.88782318   0.00000000 
  13 H    -8.97580815   2.10834154   0.00000000 
  14 H    -6.03719180   3.99534399   0.00000000 
  15 C     5.54655919   0.00043072   0.00000000 
  16 C     6.90038530  -2.10795152   0.00000000 
  17 H     6.40975269   1.88782318   0.00000000 
  18 H     8.97580815  -2.10834154   0.00000000 
  19 H     6.03719180  -3.99534399   0.00000000 

------------------
SYMMETRY REDUCTION
------------------
ORCA supports only abelian point groups.
It is now checked, if the determined point group is supported:
Point Group ( C2h   ) is          ... supported

(Re)building abelian point group:
Creating Character Table          ... done
Making direct product table       ... done

----------------------
ASYMMETRIC UNIT IN C2h
----------------------
  #  AT     MASS              COORDS (A.U.)             BAS
   0 C   12.0110   2.63607715   0.00000000   0.00000000   0
   1 C   12.0110   1.31740777   2.28299936   0.00000000   0
   2 C   12.0110  -1.31821593   2.28289559   0.00000000   0
   6 H    1.0080   2.35669238   4.08249013   0.00000000   0
   7 H    1.0080  -2.35773573   4.08230509   0.00000000   0
  10 C   12.0110  -5.54655919  -0.00043072   0.00000000   0
  11 C   12.0110  -6.90038530   2.10795152   0.00000000   0
  12 H    1.0080  -6.40975269  -1.88782318   0.00000000   0
  13 H    1.0080  -8.97580815   2.10834154   0.00000000   0
  14 H    1.0080  -6.03719180   3.99534399   0.00000000   0

----------------------
SYMMETRY ADOPTED BASIS
----------------------
The coefficients for the symmetry adopted linear combinations (SALCS)
of basis functions will now be computed:
Number of basis functions         ...    60
Preparing memory                  ... done
Constructing Gamma(red)           ... done
Reducing Gamma(red)               ... done
Constructing SALCs                ... done
Checking SALC integrity           ... nothing suspicious
Normalizing SALCs                 ... done

Storing the symmetry object:
Symmetry file                     ... dvb_sp.sym.tmp
Writing symmetry information      ... done

                       ****************************
                       * Single Point Calculation *
                       ****************************

---------------------------------
CARTESIAN COORDINATES (ANGSTROEM)
---------------------------------
  C      1.394952    0.000000    0.000000
  C      0.697142    1.208111    0.000000
  C     -0.697570    1.208056    0.000000
  C     -1.394952   -0.000000    0.000000
  C     -0.697142   -1.208111    0.000000
  C      0.697570   -1.208056    0.000000
  H      1.247108    2.160361    0.000000
  H     -1.247660    2.160263    0.000000
  H     -1.247108   -2.160361    0.000000
  H      1.247660   -2.160263    0.000000
  C     -2.935113   -0.000228    0.000000
  C     -3.651527    1.115480    0.000000
  H     -3.391895   -0.998993    0.000000
  H     -4.749793    1.115686    0.000000
  H     -3.194744    2.114245    0.000000
  C      2.935113    0.000228    0.000000
  C      3.651527   -1.115480    0.000000
  H      3.391895    0.998993    0.000000
  H      4.749793   -1.115686    0.000000
  H      3.194744   -2.114245    0.000000

----------------------------
CARTESIAN COORDINATES (A.U.)
----------------------------
  NO LB      ZA    FRAG    MASS        X           Y           Z
   0 C     6.0000    0    12.011          2.636077146806754          0.000000000000000          0.000000000000000
   1 C     6.0000    0    12.011          1.317407765783755          2.282999362580441          0.000000000000000
   2 C     6.0000    0    12.011         -1.318215929010396          2.282895588610149          0.000000000000000
   3 C     6.0000    0    12.011         -2.636077146806754         -0.000000000000000          0.000000000000000
   4 C     6.0000    0    12.011         -1.317407765783755         -2.282999362580441          0.000000000000000
   5 C     6.0000    0    12.011          1.318215929010396         -2.282895588610149          0.000000000000000
   6 H     1.0000    0     1.008          2.356692376511384          4.082490129474064          0.000000000000000
   7 H     1.0000    0     1.008         -2.357735731432495          4.082305086050970          0.000000000000000
   8 H     1.0000    0     1.008         -2.356692376511384         -4.082490129474064          0.000000000000000
   9 H     1.0000    0     1.008          2.357735731432495         -4.082305086050970          0.000000000000000
  10 C     6.0000    0    12.011         -5.546559187550642         -0.000430717530457          0.000000000000000
  11 C     6.0000    0    12.011         -6.900385298154741          2.107951515914373          0.000000000000000
  12 H     1.0000    0     1.008         -6.409752686130749         -1.887823176745028          0.000000000000000
  13 H     1.0000    0     1.008         -8.975808147269111          2.108341538517734          0.000000000000000
  14 H     1.0000    0     1.008         -6.037191795799395          3.995343993645262          0.000000000000000
  15 C     6.0000    0    12.011          5.546559187550642          0.000430717530457          0.000000000000000
  16 C     6.0000    0    12.011          6.900385298154741         -2.107951515914373          0.000000000000000
  17 H     1.0000    0     1.008          6.409752686130749          1.887823176745028          0.000000000000000
  18 H     1.0000    0     1.008          8.975808147269111         -2.108341538517734          0.000000000000000
  19 H     1.0000    0     1.008          6.037191795799395         -3.995343993645262          0.000000000000000

--------------------------------
INTERNAL COORDINATES (ANGSTROEM)
--------------------------------
 C      0   0   0   0.000000     0.000     0.000
 C      1   0   0   1.395160     0.000     0.000
 C      2   1   0   1.394712   120.009     0.000
 C      3   2   1   1.394899   119.999     0.000
 C      4   3   2   1.395160   119.992     0.000
 C      5   4   3   1.394712   120.009     0.000
 H      2   1   3   1.099655   119.981   180.000
 H      3   2   1   1.099680   120.013   180.000
 H      5   4   3   1.099655   119.981   180.000
 H      6   5   4   1.099680   120.013   180.000
 C      4   3   2   1.540161   120.005   180.000
 C     11   4   3   1.325916   122.697     0.000
 H     11   4   3   1.098263   114.585   180.000
 H     12  11   4   1.098266   122.716   180.000
 H     12  11   4   1.098263   122.718     0.000
 C      1   2   3   1.540161   120.002   180.000
 C     16   1   2   1.325916   122.697   180.000
 H     16   1   2   1.098263   114.585     0.000
 H     17  16   1   1.098266   122.716   180.000
 H     17  16   1   1.098263   122.718     0.000

---------------------------
INTERNAL COORDINATES (A.U.)
---------------------------
 C      0   0   0   0.000000     0.000     0.000
 C      1   0   0   2.636470     0.000     0.000
 C      2   1   0   2.635624   120.009     0.000
 C      3   2   1   2.635976   119.999     0.000
 C      4   3   2   2.636470   119.992     0.000
 C      5   4   3   2.635624   120.009     0.000
 H      2   1   3   2.078047   119.981   180.000
 H      3   2   1   2.078094   120.013   180.000
 H      5   4   3   2.078047   119.981   180.000
 H      6   5   4   2.078094   120.013   180.000
 C      4   3   2   2.910482   120.005   180.000
 C     11   4   3   2.505618   122.697     0.000
 H     11   4   3   2.075416   114.585   180.000
 H     12  11   4   2.075423   122.716   180.000
 H     12  11   4   2.075416   122.718     0.000
 C      1   2   3   2.910482   120.002   180.000
 C     16   1   2   2.505618   122.697   180.000
 H     16   1   2   2.075416   114.585     0.000
 H     17  16   1   2.075423   122.716   180.000
 H     17  16   1   2.075416   122.718     0.000

---------------------
BASIS SET INFORMATION
---------------------
There are 2 groups of distinct atoms

 Group   1 Type C   : 6s3p contracted to 2s1p pattern {33/3}
 Group   2 Type H   : 3s contracted to 1s pattern {3}

Atom   0C    basis set group =>   1
Atom   1C    basis set group =>   1
Atom   2C    basis set group =>   1
Atom   3C    basis set group =>   1
Atom   4C    basis set group =>   1
Atom   5C    basis set group =>   1
Atom   6H    basis set group =>   2
Atom   7H    basis set group =>   2
Atom   8H    basis set group =>   2
Atom   9H    basis set group =>   2
Atom  10C    basis set group =>   1
Atom  11C    basis set group =>   1
Atom  12H    basis set group =>   2
Atom  13H    basis set group =>   2
Atom  14H    basis set group =>   2
Atom  15C    basis set group =>   1
Atom  16C    basis set group =>   1
Atom  17H    basis set group =>   2
Atom  18H    basis set group =>   2
Atom  19H    basis set group =>   2

-------------------------
BASIS SET IN INPUT FORMAT
-------------------------

 # Basis set for element : H 
 NewGTO H 
 S 3 
   1       3.4252509100      0.1543289707
   2       0.6239137300      0.5353281424
   3       0.1688554000      0.4446345420
  end;

 # Basis set for element : C 
 NewGTO C 
 S 3 
   1      71.6168370000      0.1543289700
   2      13.0450960000      0.5353281400
   3       3.5305122000      0.4446345400
 S 3 
   1       2.9412494000     -0.0999672301
   2       0.6834831000      0.3995128303
   3       0.2222899000      0.7001154705
 P 3 
   1       2.9412494000      0.1559162721
   2       0.6834831000      0.6076837282
   3       0.2222899000      0.3919573953
  end;


Checking for AutoStart:
The File: dvb_sp.gbw exists
Trying to determine its content:
     ... Fine, the file contains calculation information
     ... Fine, the calculation information was read
     ... Fine, the file contains a basis set
     ... Fine, the basis set was read
     ... Fine, the file contains a geometry
     ... Fine, the geometry was read
     ... Fine, the file contains a set of orbitals
     ... Fine, the orbitals can be read
     => possible old guess file was deleted
     => GBW file was renamed to GES file
     => GES file is set as startup file
     => Guess is set to MORead
     ... now leaving AutoStart

------------------------------------------------------------------------------
                           ORCA GTO INTEGRAL CALCULATION
------------------------------------------------------------------------------

                         BASIS SET STATISTICS AND STARTUP INFO

 # of primitive gaussian shells          ...  120
 # of primitive gaussian functions       ...  180
 # of contracted shell                   ...   40
 # of contracted basis functions         ...   60
 Highest angular momentum                ...    1
 Maximum contraction depth               ...    3
 Integral package used                   ... LIBINT
 Integral threshhold            Thresh   ...  1.000e-10
 Primitive cut-off              TCut     ...  1.000e-11


                              INTEGRAL EVALUATION

 One electron integrals                  ... done
 Pre-screening matrix                    ... done
 Shell pair data                         ... done (   0.001 sec)

-------------------------------------------------------------------------------
                                 ORCA SCF
-------------------------------------------------------------------------------

------------
SCF SETTINGS
------------
Hamiltonian:
 Density Functional     Method          .... DFT(GTOs)
 Exchange Functional    Exchange        .... B88
   X-Alpha parameter    XAlpha          ....  0.666667
   Becke's b parameter  XBeta           ....  0.004200
 Correlation Functional Correlation     .... LYP
 LDA part of GGA corr.  LDAOpt          .... VWN-5
 Gradients option       PostSCFGGA      .... off
 Hybrid DFT is turned on
   Fraction HF Exchange ScalHFX         ....  0.200000
   Scaling of DF-GGA-X  ScalDFX         ....  0.720000
   Scaling of DF-GGA-C  ScalDFC         ....  0.810000
   Scaling of DF-LDA-C  ScalLDAC        ....  1.000000
   Perturbative correction              ....  0.000000
   NL short-range parameter             ....  4.800000


General Settings:
 Integral files         IntName         .... dvb_sp
 Hartree-Fock type      HFTyp           .... RHF
 Total Charge           Charge          ....    0
 Multiplicity           Mult            ....    1
 Number of Electrons    NEL             ....   70
 Basis Dimension        Dim             ....   60
 Nuclear Repulsion      ENuc            ....    450.0061360697 Eh

 Symmetry handling      UseSym         .... ON
 Point group                           .... C2h
 Used point group                      .... C2h
 Number of irreps                      .... 4
   Irrep   Ag has   25 symmetry adapted basis functions (ofs=   0)
   Irrep   Bg has    5 symmetry adapted basis functions (ofs=  25)
   Irrep   Au has    5 symmetry adapted basis functions (ofs=  30)
   Irrep   Bu has   25 symmetry adapted basis functions (ofs=  35)

Convergence Acceleration:
 DIIS                   CNVDIIS         .... on
   Start iteration      DIISMaxIt       ....    12
   Startup error        DIISStart       ....  0.200000
   # of expansion vecs  DIISMaxEq       ....     5
   Bias factor          DIISBfac        ....   1.050
   Max. coefficient     DIISMaxC        ....  10.000
 Newton-Raphson         CNVNR           .... off
 SOSCF                  CNVSOSCF        .... on
   Start iteration      SOSCFMaxIt      ....   150
   Startup grad/error   SOSCFStart      ....  0.003300
 Level Shifting         CNVShift        .... on
   Level shift para.    LevelShift      ....    0.2500
   Turn off err/grad.   ShiftErr        ....    0.0010
 Zerner damping         CNVZerner       .... off
 Static damping         CNVDamp         .... on
   Fraction old density DampFac         ....    0.7000
   Max. Damping (<1)    DampMax         ....    0.9800
   Min. Damping (>=0)   DampMin         ....    0.0000
   Turn off err/grad.   DampErr         ....    0.1000
 Fernandez-Rico         CNVRico         .... off

SCF Procedure:
 Maximum # iterations   MaxIter         ....   125
 SCF integral mode      SCFMode         .... Direct
   Integral package                     .... LIBINT
 Reset frequeny         DirectResetFreq ....    20
 Integral Threshold     Thresh          ....  1.000e-10 Eh
 Primitive CutOff       TCut            ....  1.000e-11 Eh

Convergence Tolerance:
 Convergence Check Mode ConvCheckMode   .... Total+1el-Energy
 Energy Change          TolE            ....  1.000e-06 Eh
 1-El. energy change                    ....  1.000e-03 Eh
 Orbital Gradient       TolG            ....  5.000e-05
 Orbital Rotation angle TolX            ....  5.000e-05
 DIIS Error             TolErr          ....  1.000e-06


Diagonalization of the overlap matrix:
Smallest eigenvalue                        ... 1.714e-01
Time for diagonalization                   ...    0.001 sec
Threshold for overlap eigenvalues          ... 1.000e-08
Number of eigenvalues below threshold      ... 0
Time for construction of square roots      ...    0.000 sec
Producing symmetrization matrix            ... done (   0.000 sec)
Total time needed                          ...    0.002 sec

--------------
OVERLAP MATRIX
--------------
                  0          1          2          3          4          5    
      0       1.000000   0.248362   0.000000  -0.000000   0.000000   0.000001
      1       0.248362   1.000000   0.000000   0.000000  -0.000000   0.037948
      2       0.000000   0.000000   1.000000   0.000000   0.000000   0.000000
      3      -0.000000   0.000000   0.000000   1.000000   0.000000  -0.031468
      4       0.000000  -0.000000   0.000000   0.000000   1.000000   0.054479
      5       0.000001   0.037948   0.000000  -0.031468   0.054479   1.000000
      6       0.037948   0.367071   0.000000  -0.194886   0.337404   0.248362
      7       0.000000   0.000000   0.214903   0.000000   0.000000   0.000000
      8       0.031468   0.194886   0.000000   0.079065   0.235175   0.000000
      9      -0.054479  -0.337404   0.000000   0.235175  -0.192253   0.000000
     10       0.000000   0.001843   0.000000  -0.003674   0.002121   0.000001
     11       0.001843   0.061276   0.000000  -0.078067   0.045070   0.037989
     12       0.000000   0.000000   0.025662   0.000000   0.000000   0.000000
     13       0.003674   0.078067   0.000000  -0.084157   0.063401   0.062981
     14      -0.002121  -0.045070   0.000000   0.063401  -0.010941   0.000002
     15       0.000000   0.000422   0.000000  -0.001121  -0.000000   0.000000
     16       0.000422   0.026385   0.000000  -0.042381  -0.000000   0.001845
     17       0.000000   0.000000   0.010188   0.000000   0.000000   0.000000
     18       0.001121   0.042381   0.000000  -0.063228  -0.000000   0.003678
     19       0.000000   0.000000   0.000000  -0.000000   0.010188   0.002124
     20       0.000000   0.001845   0.000000  -0.003678  -0.002124   0.000000
     21       0.001845   0.061320   0.000000  -0.078113  -0.045107   0.000423
     22       0.000000   0.000000   0.025682   0.000000   0.000000   0.000000
     23       0.003678   0.078113   0.000000  -0.084186  -0.063445   0.000561
     24       0.002124   0.045107   0.000000  -0.063445  -0.010955   0.000972
     25       0.000001   0.037972   0.000000  -0.031474  -0.054521   0.000000
     26       0.037972   0.367203   0.000000  -0.194850  -0.337534   0.001843
     27       0.000000   0.000000   0.215005   0.000000   0.000000   0.000000
     28       0.031474   0.194850   0.000000   0.079255  -0.235156  -0.000001
     29       0.054521   0.337534   0.000000  -0.235156  -0.192349   0.004243
     30       0.005291   0.095590   0.000000  -0.008439   0.123313   0.060887
     31       0.000092   0.006444   0.000000  -0.008272   0.006762   0.005291
     32       0.000092   0.006450   0.000000  -0.008278  -0.006769   0.000012
     33       0.005292   0.095614   0.000000  -0.008410  -0.123341   0.000092
     34       0.000000   0.000000   0.000000  -0.000000  -0.000000   0.000000
     35       0.000000   0.000293   0.000000  -0.000645  -0.000000   0.000002
     36       0.000000   0.000000   0.000094   0.000000   0.000000   0.000000
     37       0.000000   0.000645   0.000000  -0.001344  -0.000000   0.000008
     38       0.000000   0.000000   0.000000  -0.000000   0.000094   0.000003
     39       0.000000   0.000000   0.000000  -0.000000   0.000000   0.000000
     40       0.000000   0.000012   0.000000  -0.000031   0.000007   0.000000
     41       0.000000   0.000000   0.000004   0.000000   0.000000   0.000000
     42       0.000000   0.000031   0.000000  -0.000075   0.000017   0.000000
     43      -0.000000  -0.000007   0.000000   0.000017   0.000000   0.000000
     44       0.000000   0.000086   0.000000  -0.000181  -0.000038   0.000000
     45       0.000000   0.000000   0.000000  -0.000001   0.000000   0.000000
     46       0.000000   0.000049   0.000000  -0.000099   0.000046   0.000007
     47       0.000000   0.026588   0.000000   0.044587   0.000007   0.000000
     48       0.026588   0.298494   0.000000   0.336362   0.000050   0.001144
     49       0.000000   0.000000   0.164306   0.000000   0.000000   0.000000
     50      -0.044587  -0.336362   0.000000  -0.314114  -0.000071  -0.002437
     51      -0.000007  -0.000050   0.000000  -0.000071   0.164306   0.001315
     52       0.000000   0.001263   0.000000   0.002714  -0.001341   0.000000
     53       0.001263   0.049268   0.000000   0.066607  -0.032926   0.000003
     54       0.000000   0.000000   0.020155   0.000000   0.000000   0.000000
     55      -0.002714  -0.066607   0.000000  -0.078557   0.048795  -0.000010
     56       0.001341   0.032926   0.000000   0.048795  -0.003966   0.000008
     57       0.004445   0.084383   0.000000   0.099133   0.049593   0.001149
     58       0.000056   0.004732   0.000000   0.007603  -0.002529   0.000000
     59       0.000909   0.028273   0.000000   0.027062  -0.031790   0.000003
                  6          7          8          9         10         11    
      0       0.037948   0.000000   0.031468  -0.054479   0.000000   0.001843
      1       0.367071   0.000000   0.194886  -0.337404   0.001843   0.061276
      2       0.000000   0.214903   0.000000   0.000000   0.000000   0.000000
      3      -0.194886   0.000000   0.079065   0.235175  -0.003674  -0.078067
      4       0.337404   0.000000   0.235175  -0.192253   0.002121   0.045070
      5       0.248362   0.000000   0.000000   0.000000   0.000001   0.037989
      6       1.000000   0.000000  -0.000000   0.000000   0.037989   0.367296
      7       0.000000   1.000000   0.000000   0.000000   0.000000   0.000000
      8      -0.000000   0.000000   1.000000   0.000000  -0.062981  -0.389806
      9       0.000000   0.000000   0.000000   1.000000  -0.000002  -0.000015
     10       0.037989   0.000000  -0.062981  -0.000002   1.000000   0.248362
     11       0.367296   0.000000  -0.389806  -0.000015   0.248362   1.000000
     12       0.000000   0.215078   0.000000   0.000000   0.000000   0.000000
     13       0.389806   0.000000  -0.328105  -0.000021  -0.000000   0.000000
     14       0.000015   0.000000  -0.000021   0.215078  -0.000000  -0.000000
     15       0.001845   0.000000  -0.003678  -0.002124   0.000001   0.037972
     16       0.061320   0.000000  -0.078113  -0.045107   0.037972   0.367203
     17       0.000000   0.025682   0.000000   0.000000   0.000000   0.000000
     18       0.078113   0.000000  -0.084186  -0.063445   0.031474   0.194850
     19       0.045107   0.000000  -0.063445  -0.010955   0.054521   0.337534
     20       0.000423   0.000000  -0.000561  -0.000972   0.000000   0.001843
     21       0.026400   0.000000  -0.021194  -0.036728   0.001843   0.061281
     22       0.000000   0.010194   0.000000   0.000000   0.000000   0.000000
     23       0.021194   0.000000  -0.008155  -0.031798  -0.000001  -0.000016
     24       0.036728   0.000000  -0.031798  -0.044910   0.004243   0.090150
     25       0.001843   0.000000   0.000001  -0.004243   0.000000   0.000422
     26       0.061281   0.000000   0.000016  -0.090150   0.000422   0.026380
     27       0.000000   0.025664   0.000000   0.000000   0.000000   0.000000
     28      -0.000016   0.000000   0.025664   0.000026  -0.000560  -0.021189
     29       0.090150   0.000000   0.000026  -0.120767   0.000970   0.036695
     30       0.485213   0.000000   0.232028   0.401750   0.005292   0.095605
     31       0.095597   0.000000  -0.111017   0.054353   0.060884   0.485198
     32       0.001847   0.000000  -0.001662  -0.002879   0.000092   0.006449
     33       0.006447   0.000000   0.001724  -0.010549   0.000012   0.001846
     34       0.000002   0.000000  -0.000008  -0.000003   0.000000   0.001145
     35       0.001528   0.000000  -0.002886  -0.000960   0.001145   0.046553
     36       0.000000   0.000509   0.000000   0.000000   0.000000   0.000000
     37       0.002886   0.000000  -0.005092  -0.001863   0.002438   0.062159
     38       0.000960   0.000000  -0.001863  -0.000111   0.001317   0.033566
     39       0.000000   0.000000  -0.000000  -0.000000   0.000000   0.000206
     40       0.000274   0.000000  -0.000605  -0.000013   0.000206   0.017611
     41       0.000000   0.000088   0.000000   0.000000   0.000000   0.000000
     42       0.000605   0.000000  -0.001265  -0.000029   0.000578   0.029312
     43       0.000013   0.000000  -0.000029   0.000088   0.000018   0.000919
     44       0.000192   0.000000  -0.000348  -0.000188   0.000069   0.005410
     45       0.000012   0.000000  -0.000028  -0.000000   0.000006   0.001166
     46       0.001372   0.000000  -0.002449   0.000570   0.001328   0.036482
     47       0.001144   0.000000   0.002437  -0.001315   0.000000   0.000002
     48       0.046534   0.000000   0.062143  -0.033540   0.000002   0.001527
     49       0.000000   0.018926   0.000000   0.000000   0.000000   0.000000
     50      -0.062143   0.000000  -0.071889   0.049015  -0.000008  -0.002884
     51       0.033540   0.000000   0.049015  -0.007529   0.000003   0.000959
     52       0.000003   0.000000   0.000010  -0.000008   0.000000   0.000000
     53       0.001892   0.000000   0.002919  -0.002296   0.000000   0.000032
     54       0.000000   0.000634   0.000000   0.000000   0.000000   0.000000
     55      -0.002919   0.000000  -0.004006   0.003649  -0.000000  -0.000069
     56       0.002296   0.000000   0.003649  -0.002236   0.000000   0.000037
     57       0.033093   0.000000   0.048007  -0.003725   0.000005   0.001035
     58       0.000178   0.000000   0.000318  -0.000182   0.000000   0.000002
     59       0.000866   0.000000   0.000981  -0.001304   0.000000   0.000039
                 12         13         14         15         16         17    
      0       0.000000   0.003674  -0.002121   0.000000   0.000422   0.000000
      1       0.000000   0.078067  -0.045070   0.000422   0.026385   0.000000
      2       0.025662   0.000000   0.000000   0.000000   0.000000   0.010188
      3       0.000000  -0.084157   0.063401  -0.001121  -0.042381   0.000000
      4       0.000000   0.063401  -0.010941  -0.000000  -0.000000   0.000000
      5       0.000000   0.062981   0.000002   0.000000   0.001845   0.000000
      6       0.000000   0.389806   0.000015   0.001845   0.061320   0.000000
      7       0.215078   0.000000   0.000000   0.000000   0.000000   0.025682
      8       0.000000  -0.328105  -0.000021  -0.003678  -0.078113   0.000000
      9       0.000000  -0.000021   0.215078  -0.002124  -0.045107   0.000000
     10       0.000000  -0.000000  -0.000000   0.000001   0.037972   0.000000
     11       0.000000   0.000000  -0.000000   0.037972   0.367203   0.000000
     12       1.000000   0.000000   0.000000   0.000000   0.000000   0.215005
     13       0.000000   1.000000  -0.000000  -0.031474  -0.194850   0.000000
     14       0.000000  -0.000000   1.000000  -0.054521  -0.337534   0.000000
     15       0.000000  -0.031474  -0.054521   1.000000   0.248362   0.000000
     16       0.000000  -0.194850  -0.337534   0.248362   1.000000   0.000000
     17       0.215005   0.000000   0.000000   0.000000   0.000000   1.000000
     18       0.000000   0.079255  -0.235156   0.000000  -0.000000   0.000000
     19       0.000000  -0.235156  -0.192349   0.000000   0.000000   0.000000
     20       0.000000   0.000001  -0.004243   0.000001   0.037948   0.000000
     21       0.000000   0.000016  -0.090150   0.037948   0.367071   0.000000
     22       0.025664   0.000000   0.000000   0.000000   0.000000   0.214903
     23       0.000000   0.025664   0.000026  -0.031468  -0.194886   0.000000
     24       0.000000   0.000026  -0.120767   0.054479   0.337404   0.000000
     25       0.000000   0.000560  -0.000970   0.000000   0.001843   0.000000
     26       0.000000   0.021189  -0.036695   0.001843   0.061276   0.000000
     27       0.010185   0.000000   0.000000   0.000000   0.000000   0.025662
     28       0.000000  -0.008169   0.031787  -0.003674  -0.078067   0.000000
     29       0.000000   0.031787  -0.044864   0.002121   0.045070   0.000000
     30       0.000000   0.111020   0.054366   0.000092   0.006450   0.000000
     31       0.000000  -0.232071   0.401715   0.005292   0.095614   0.000000
     32       0.000000  -0.001721  -0.010552   0.005291   0.095590   0.000000
     33       0.000000   0.001661  -0.002876   0.000092   0.006444   0.000000
     34       0.000000  -0.002438  -0.001317   0.000000   0.026588   0.000000
     35       0.000000  -0.062159  -0.033566   0.026588   0.298494   0.000000
     36       0.018934   0.000000   0.000000   0.000000   0.000000   0.164306
     37       0.000000  -0.071889  -0.049045   0.044587   0.336362   0.000000
     38       0.000000  -0.049045  -0.007550   0.000007   0.000050   0.000000
     39       0.000000  -0.000578  -0.000018   0.000000   0.001263   0.000000
     40       0.000000  -0.029312  -0.000919   0.001263   0.049268   0.000000
     41       0.006590   0.000000   0.000000   0.000000   0.000000   0.020155
     42       0.000000  -0.045568  -0.001635   0.002714   0.066607   0.000000
     43       0.000000  -0.001635   0.006539  -0.001341  -0.032926   0.000000
     44       0.000000  -0.007023  -0.005753   0.004445   0.084383   0.000000
     45       0.000000  -0.002158  -0.000049   0.000056   0.004732   0.000000
     46       0.000000  -0.049431   0.017938   0.000909   0.028273   0.000000
     47       0.000000   0.000008  -0.000003   0.000000   0.000000   0.000000
     48       0.000000   0.002884  -0.000959   0.000000   0.000293   0.000000
     49       0.000508   0.000000   0.000000   0.000000   0.000000   0.000094
     50       0.000000  -0.005089   0.001861  -0.000000  -0.000645   0.000000
     51       0.000000   0.001861  -0.000111  -0.000000  -0.000000   0.000000
     52       0.000000   0.000000  -0.000000   0.000000   0.000000   0.000000
     53       0.000000   0.000069  -0.000037   0.000000   0.000012   0.000000
     54       0.000010   0.000000   0.000000   0.000000   0.000000   0.000004
     55       0.000000  -0.000142   0.000081  -0.000000  -0.000031   0.000000
     56       0.000000   0.000081  -0.000033   0.000000   0.000007   0.000000
     57       0.000000   0.001928  -0.000099   0.000000   0.000086   0.000000
     58       0.000000   0.000004  -0.000002   0.000000   0.000000   0.000000
     59       0.000000   0.000067  -0.000057   0.000000   0.000049   0.000000
                 18         19         20         21         22         23    
      0       0.001121   0.000000   0.000000   0.001845   0.000000   0.003678
      1       0.042381   0.000000   0.001845   0.061320   0.000000   0.078113
      2       0.000000   0.000000   0.000000   0.000000   0.025682   0.000000
      3      -0.063228  -0.000000  -0.003678  -0.078113   0.000000  -0.084186
      4      -0.000000   0.010188  -0.002124  -0.045107   0.000000  -0.063445
      5       0.003678   0.002124   0.000000   0.000423   0.000000   0.000561
      6       0.078113   0.045107   0.000423   0.026400   0.000000   0.021194
      7       0.000000   0.000000   0.000000   0.000000   0.010194   0.000000
      8      -0.084186  -0.063445  -0.000561  -0.021194   0.000000  -0.008155
      9      -0.063445  -0.010955  -0.000972  -0.036728   0.000000  -0.031798
     10       0.031474   0.054521   0.000000   0.001843   0.000000  -0.000001
     11       0.194850   0.337534   0.001843   0.061281   0.000000  -0.000016
     12       0.000000   0.000000   0.000000   0.000000   0.025664   0.000000
     13       0.079255  -0.235156   0.000001   0.000016   0.000000   0.025664
     14      -0.235156  -0.192349  -0.004243  -0.090150   0.000000   0.000026
     15       0.000000   0.000000   0.000001   0.037948   0.000000  -0.031468
     16      -0.000000   0.000000   0.037948   0.367071   0.000000  -0.194886
     17       0.000000   0.000000   0.000000   0.000000   0.214903   0.000000
     18       1.000000   0.000000   0.031468   0.194886   0.000000   0.079065
     19       0.000000   1.000000  -0.054479  -0.337404   0.000000   0.235175
     20       0.031468  -0.054479   1.000000   0.248362   0.000000  -0.000000
     21       0.194886  -0.337404   0.248362   1.000000   0.000000   0.000000
     22       0.000000   0.000000   0.000000   0.000000   1.000000   0.000000
     23       0.079065   0.235175  -0.000000   0.000000   0.000000   1.000000
     24       0.235175  -0.192253  -0.000000   0.000000   0.000000   0.000000
     25       0.003674  -0.002121   0.000001   0.037989   0.000000   0.062981
     26       0.078067  -0.045070   0.037989   0.367296   0.000000   0.389806
     27       0.000000   0.000000   0.000000   0.000000   0.215078   0.000000
     28      -0.084157   0.063401  -0.062981  -0.389806   0.000000  -0.328105
     29       0.063401  -0.010941  -0.000002  -0.000015   0.000000  -0.000021
     30       0.008278   0.006769   0.000012   0.001847   0.000000   0.001662
     31       0.008410   0.123341   0.000092   0.006447   0.000000  -0.001724
     32       0.008439  -0.123313   0.060887   0.485213   0.000000  -0.232028
     33       0.008272  -0.006762   0.005291   0.095597   0.000000   0.111017
     34      -0.044587  -0.000007   0.000000   0.001144   0.000000  -0.002437
     35      -0.336362  -0.000050   0.001144   0.046534   0.000000  -0.062143
     36       0.000000   0.000000   0.000000   0.000000   0.018926   0.000000
     37      -0.314114  -0.000071   0.002437   0.062143   0.000000  -0.071889
     38      -0.000071   0.164306  -0.001315  -0.033540   0.000000   0.049015
     39      -0.002714   0.001341   0.000000   0.000003   0.000000  -0.000010
     40      -0.066607   0.032926   0.000003   0.001892   0.000000  -0.002919
     41       0.000000   0.000000   0.000000   0.000000   0.000634   0.000000
     42      -0.078557   0.048795   0.000010   0.002919   0.000000  -0.004006
     43       0.048795  -0.003966  -0.000008  -0.002296   0.000000   0.003649
     44      -0.099133  -0.049593   0.001149   0.033093   0.000000  -0.048007
     45      -0.007603   0.002529   0.000000   0.000178   0.000000  -0.000318
     46      -0.027062   0.031790   0.000003   0.000866   0.000000  -0.000981
     47       0.000000   0.000000   0.000000   0.000002   0.000000   0.000008
     48       0.000645   0.000000   0.000002   0.001528   0.000000   0.002886
     49       0.000000   0.000000   0.000000   0.000000   0.000509   0.000000
     50      -0.001344  -0.000000  -0.000008  -0.002886   0.000000  -0.005092
     51      -0.000000   0.000094  -0.000003  -0.000960   0.000000  -0.001863
     52       0.000000  -0.000000   0.000000   0.000000   0.000000   0.000000
     53       0.000031  -0.000007   0.000000   0.000274   0.000000   0.000605
     54       0.000000   0.000000   0.000000   0.000000   0.000088   0.000000
     55      -0.000075   0.000017  -0.000000  -0.000605   0.000000  -0.001265
     56       0.000017   0.000000  -0.000000  -0.000013   0.000000  -0.000029
     57       0.000181   0.000038   0.000000   0.000192   0.000000   0.000348
     58       0.000001  -0.000000   0.000000   0.000012   0.000000   0.000028
     59       0.000099  -0.000046   0.000007   0.001372   0.000000   0.002449
                 24         25         26         27         28         29    
      0       0.002124   0.000001   0.037972   0.000000   0.031474   0.054521
      1       0.045107   0.037972   0.367203   0.000000   0.194850   0.337534
      2       0.000000   0.000000   0.000000   0.215005   0.000000   0.000000
      3      -0.063445  -0.031474  -0.194850   0.000000   0.079255  -0.235156
      4      -0.010955  -0.054521  -0.337534   0.000000  -0.235156  -0.192349
      5       0.000972   0.000000   0.001843   0.000000  -0.000001   0.004243
      6       0.036728   0.001843   0.061281   0.000000  -0.000016   0.090150
      7       0.000000   0.000000   0.000000   0.025664   0.000000   0.000000
      8      -0.031798   0.000001   0.000016   0.000000   0.025664   0.000026
      9      -0.044910  -0.004243  -0.090150   0.000000   0.000026  -0.120767
     10       0.004243   0.000000   0.000422   0.000000  -0.000560   0.000970
     11       0.090150   0.000422   0.026380   0.000000  -0.021189   0.036695
     12       0.000000   0.000000   0.000000   0.010185   0.000000   0.000000
     13       0.000026   0.000560   0.021189   0.000000  -0.008169   0.031787
     14      -0.120767  -0.000970  -0.036695   0.000000   0.031787  -0.044864
     15       0.054479   0.000000   0.001843   0.000000  -0.003674   0.002121
     16       0.337404   0.001843   0.061276   0.000000  -0.078067   0.045070
     17       0.000000   0.000000   0.000000   0.025662   0.000000   0.000000
     18       0.235175   0.003674   0.078067   0.000000  -0.084157   0.063401
     19      -0.192253  -0.002121  -0.045070   0.000000   0.063401  -0.010941
     20      -0.000000   0.000001   0.037989   0.000000  -0.062981  -0.000002
     21       0.000000   0.037989   0.367296   0.000000  -0.389806  -0.000015
     22       0.000000   0.000000   0.000000   0.215078   0.000000   0.000000
     23       0.000000   0.062981   0.389806   0.000000  -0.328105  -0.000021
     24       1.000000   0.000002   0.000015   0.000000  -0.000021   0.215078
     25       0.000002   1.000000   0.248362   0.000000   0.000000   0.000000
     26       0.000015   0.248362   1.000000   0.000000  -0.000000   0.000000
     27       0.000000   0.000000   0.000000   1.000000   0.000000   0.000000
     28      -0.000021   0.000000  -0.000000   0.000000   1.000000  -0.000000
     29       0.215078   0.000000   0.000000   0.000000  -0.000000   1.000000
     30       0.002879   0.000092   0.006449   0.000000   0.001721   0.010552
     31       0.010549   0.000012   0.001846   0.000000  -0.001661   0.002876
     32      -0.401750   0.005292   0.095605   0.000000  -0.111020  -0.054366
     33      -0.054353   0.060884   0.485198   0.000000   0.232071  -0.401715
     34       0.001315   0.000000   0.000002   0.000000  -0.000008   0.000003
     35       0.033540   0.000002   0.001527   0.000000  -0.002884   0.000959
     36       0.000000   0.000000   0.000000   0.000508   0.000000   0.000000
     37       0.049015   0.000008   0.002884   0.000000  -0.005089   0.001861
     38      -0.007529  -0.000003  -0.000959   0.000000   0.001861  -0.000111
     39       0.000008   0.000000   0.000000   0.000000  -0.000000   0.000000
     40       0.002296   0.000000   0.000032   0.000000  -0.000069   0.000037
     41       0.000000   0.000000   0.000000   0.000010   0.000000   0.000000
     42       0.003649   0.000000   0.000069   0.000000  -0.000142   0.000081
     43      -0.002236  -0.000000  -0.000037   0.000000   0.000081  -0.000033
     44       0.003725   0.000005   0.001035   0.000000  -0.001928   0.000099
     45       0.000182   0.000000   0.000002   0.000000  -0.000004   0.000002
     46       0.001304   0.000000   0.000039   0.000000  -0.000067   0.000057
     47       0.000003   0.000000   0.001145   0.000000   0.002438   0.001317
     48       0.000960   0.001145   0.046553   0.000000   0.062159   0.033566
     49       0.000000   0.000000   0.000000   0.018934   0.000000   0.000000
     50      -0.001863  -0.002438  -0.062159   0.000000  -0.071889  -0.049045
     51      -0.000111  -0.001317  -0.033566   0.000000  -0.049045  -0.007550
     52       0.000000   0.000000   0.000206   0.000000   0.000578   0.000018
     53       0.000013   0.000206   0.017611   0.000000   0.029312   0.000919
     54       0.000000   0.000000   0.000000   0.006590   0.000000   0.000000
     55      -0.000029  -0.000578  -0.029312   0.000000  -0.045568  -0.001635
     56       0.000088  -0.000018  -0.000919   0.000000  -0.001635   0.006539
     57       0.000188   0.000069   0.005410   0.000000   0.007023   0.005753
     58       0.000000   0.000006   0.001166   0.000000   0.002158   0.000049
     59      -0.000570   0.001328   0.036482   0.000000   0.049431  -0.017938
                 30         31         32         33         34         35    
      0       0.005291   0.000092   0.000092   0.005292   0.000000   0.000000
      1       0.095590   0.006444   0.006450   0.095614   0.000000   0.000293
      2       0.000000   0.000000   0.000000   0.000000   0.000000   0.000000
      3      -0.008439  -0.008272  -0.008278  -0.008410  -0.000000  -0.000645
      4       0.123313   0.006762  -0.006769  -0.123341  -0.000000  -0.000000
      5       0.060887   0.005291   0.000012   0.000092   0.000000   0.000002
      6       0.485213   0.095597   0.001847   0.006447   0.000002   0.001528
      7       0.000000   0.000000   0.000000   0.000000   0.000000   0.000000
      8       0.232028  -0.111017  -0.001662   0.001724  -0.000008  -0.002886
      9       0.401750   0.054353  -0.002879  -0.010549  -0.000003  -0.000960
     10       0.005292   0.060884   0.000092   0.000012   0.000000   0.001145
     11       0.095605   0.485198   0.006449   0.001846   0.001145   0.046553
     12       0.000000   0.000000   0.000000   0.000000   0.000000   0.000000
     13       0.111020  -0.232071  -0.001721   0.001661  -0.002438  -0.062159
     14       0.054366   0.401715  -0.010552  -0.002876  -0.001317  -0.033566
     15       0.000092   0.005292   0.005291   0.000092   0.000000   0.026588
     16       0.006450   0.095614   0.095590   0.006444   0.026588   0.298494
     17       0.000000   0.000000   0.000000   0.000000   0.000000   0.000000
     18       0.008278   0.008410   0.008439   0.008272  -0.044587  -0.336362
     19       0.006769   0.123341  -0.123313  -0.006762  -0.000007  -0.000050
     20       0.000012   0.000092   0.060887   0.005291   0.000000   0.001144
     21       0.001847   0.006447   0.485213   0.095597   0.001144   0.046534
     22       0.000000   0.000000   0.000000   0.000000   0.000000   0.000000
     23       0.001662  -0.001724  -0.232028   0.111017  -0.002437  -0.062143
     24       0.002879   0.010549  -0.401750  -0.054353   0.001315   0.033540
     25       0.000092   0.000012   0.005292   0.060884   0.000000   0.000002
     26       0.006449   0.001846   0.095605   0.485198   0.000002   0.001527
     27       0.000000   0.000000   0.000000   0.000000   0.000000   0.000000
     28       0.001721  -0.001661  -0.111020   0.232071  -0.000008  -0.002884
     29       0.010552   0.002876  -0.054366  -0.401715   0.000003   0.000959
     30       1.000000   0.050007   0.000112   0.000762   0.000000   0.000158
     31       0.050007   1.000000   0.000762   0.000111   0.001017   0.030489
     32       0.000112   0.000762   1.000000   0.050007   0.001017   0.030486
     33       0.000762   0.000111   0.050007   1.000000   0.000000   0.000158
     34       0.000000   0.001017   0.001017   0.000000   1.000000   0.248362
     35       0.000158   0.030489   0.030486   0.000158   0.248362   1.000000
     36       0.000000   0.000000   0.000000   0.000000   0.000000   0.000000
     37       0.000292   0.027520   0.027525   0.000292   0.000000   0.000000
     38       0.000151   0.035234  -0.035224  -0.000151  -0.000000  -0.000000
     39       0.000000   0.001481   0.000005   0.000000   0.000003   0.044724
     40       0.000057   0.039274   0.001132   0.000002   0.044724   0.402773
     41       0.000000   0.000000   0.000000   0.000000   0.000000   0.000000
     42       0.000123   0.051540   0.001243   0.000004   0.040095   0.223814
     43       0.000026   0.022401  -0.001693  -0.000003  -0.062443  -0.348558
     44       0.000015   0.002796   0.055469   0.000207   0.061086   0.486010
     45       0.000003   0.004166   0.000199   0.000000   0.005781   0.101894
     46       0.000546   0.129838   0.000265   0.000002   0.005781   0.101891
     47       0.001017   0.000000   0.000000   0.001017   0.000000   0.000000
     48       0.030486   0.000158   0.000158   0.030489   0.000000   0.000001
     49       0.000000   0.000000   0.000000   0.000000   0.000000   0.000000
     50      -0.027525  -0.000292  -0.000292  -0.027520   0.000000  -0.000002
     51       0.035224   0.000151  -0.000151  -0.035234   0.000000  -0.000000
     52       0.000005   0.000000   0.000000   0.001481   0.000000   0.000000
     53       0.001132   0.000002   0.000057   0.039274   0.000000   0.000000
     54       0.000000   0.000000   0.000000   0.000000   0.000000   0.000000
     55      -0.001243  -0.000004  -0.000123  -0.051540   0.000000  -0.000000
     56       0.001693   0.000003  -0.000026  -0.022401   0.000000   0.000000
     57       0.055469   0.000207   0.000015   0.002796   0.000000   0.000000
     58       0.000199   0.000000   0.000003   0.004166   0.000000   0.000000
     59       0.000265   0.000002   0.000546   0.129838   0.000000   0.000000
                 36         37         38         39         40         41    
      0       0.000000   0.000000   0.000000   0.000000   0.000000   0.000000
      1       0.000000   0.000645   0.000000   0.000000   0.000012   0.000000
      2       0.000094   0.000000   0.000000   0.000000   0.000000   0.000004
      3       0.000000  -0.001344  -0.000000  -0.000000  -0.000031   0.000000
      4       0.000000  -0.000000   0.000094   0.000000   0.000007   0.000000
      5       0.000000   0.000008   0.000003   0.000000   0.000000   0.000000
      6       0.000000   0.002886   0.000960   0.000000   0.000274   0.000000
      7       0.000509   0.000000   0.000000   0.000000   0.000000   0.000088
      8       0.000000  -0.005092  -0.001863  -0.000000  -0.000605   0.000000
      9       0.000000  -0.001863  -0.000111  -0.000000  -0.000013   0.000000
     10       0.000000   0.002438   0.001317   0.000000   0.000206   0.000000
     11       0.000000   0.062159   0.033566   0.000206   0.017611   0.000000
     12       0.018934   0.000000   0.000000   0.000000   0.000000   0.006590
     13       0.000000  -0.071889  -0.049045  -0.000578  -0.029312   0.000000
     14       0.000000  -0.049045  -0.007550  -0.000018  -0.000919   0.000000
     15       0.000000   0.044587   0.000007   0.000000   0.001263   0.000000
     16       0.000000   0.336362   0.000050   0.001263   0.049268   0.000000
     17       0.164306   0.000000   0.000000   0.000000   0.000000   0.020155
     18       0.000000  -0.314114  -0.000071  -0.002714  -0.066607   0.000000
     19       0.000000  -0.000071   0.164306   0.001341   0.032926   0.000000
     20       0.000000   0.002437  -0.001315   0.000000   0.000003   0.000000
     21       0.000000   0.062143  -0.033540   0.000003   0.001892   0.000000
     22       0.018926   0.000000   0.000000   0.000000   0.000000   0.000634
     23       0.000000  -0.071889   0.049015  -0.000010  -0.002919   0.000000
     24       0.000000   0.049015  -0.007529   0.000008   0.002296   0.000000
     25       0.000000   0.000008  -0.000003   0.000000   0.000000   0.000000
     26       0.000000   0.002884  -0.000959   0.000000   0.000032   0.000000
     27       0.000508   0.000000   0.000000   0.000000   0.000000   0.000010
     28       0.000000  -0.005089   0.001861  -0.000000  -0.000069   0.000000
     29       0.000000   0.001861  -0.000111   0.000000   0.000037   0.000000
     30       0.000000   0.000292   0.000151   0.000000   0.000057   0.000000
     31       0.000000   0.027520   0.035234   0.001481   0.039274   0.000000
     32       0.000000   0.027525  -0.035224   0.000005   0.001132   0.000000
     33       0.000000   0.000292  -0.000151   0.000000   0.000002   0.000000
     34       0.000000   0.000000  -0.000000   0.000003   0.044724   0.000000
     35       0.000000   0.000000  -0.000000   0.044724   0.402773   0.000000
     36       1.000000   0.000000   0.000000   0.000000   0.000000   0.243271
     37       0.000000   1.000000  -0.000000  -0.040095  -0.223814   0.000000
     38       0.000000  -0.000000   1.000000   0.062443   0.348558   0.000000
     39       0.000000  -0.040095   0.062443   1.000000   0.248362   0.000000
     40       0.000000  -0.223814   0.348558   0.248362   1.000000   0.000000
     41       0.243271   0.000000   0.000000   0.000000   0.000000   1.000000
     42       0.000000   0.076616   0.259540  -0.000000   0.000000   0.000000
     43       0.000000   0.259540  -0.160924   0.000000   0.000000   0.000000
     44       0.000000  -0.193160  -0.422348   0.005781   0.101891   0.000000
     45       0.000000  -0.111303   0.068444   0.061085   0.486008   0.000000
     46       0.000000  -0.015924   0.129686   0.061086   0.486010   0.000000
     47       0.000000   0.000000   0.000000   0.000000   0.000000   0.000000
     48       0.000000   0.000002   0.000000   0.000000   0.000000   0.000000
     49       0.000000   0.000000   0.000000   0.000000   0.000000   0.000000
     50       0.000000  -0.000005  -0.000000   0.000000  -0.000000   0.000000
     51       0.000000  -0.000000   0.000000   0.000000   0.000000   0.000000
     52       0.000000   0.000000   0.000000   0.000000   0.000000   0.000000
     53       0.000000   0.000000  -0.000000   0.000000   0.000000   0.000000
     54       0.000000   0.000000   0.000000   0.000000   0.000000   0.000000
     55       0.000000  -0.000000   0.000000   0.000000  -0.000000   0.000000
     56       0.000000   0.000000   0.000000   0.000000   0.000000   0.000000
     57       0.000000   0.000001   0.000000   0.000000   0.000000   0.000000
     58       0.000000   0.000000  -0.000000   0.000000   0.000000   0.000000
     59       0.000000   0.000000  -0.000000   0.000000   0.000000   0.000000
                 42         43         44         45         46         47    
      0       0.000000  -0.000000   0.000000   0.000000   0.000000   0.000000
      1       0.000031  -0.000007   0.000086   0.000000   0.000049   0.026588
      2       0.000000   0.000000   0.000000   0.000000   0.000000   0.000000
      3      -0.000075   0.000017  -0.000181  -0.000001  -0.000099   0.044587
      4       0.000017   0.000000  -0.000038   0.000000   0.000046   0.000007
      5       0.000000   0.000000   0.000000   0.000000   0.000007   0.000000
      6       0.000605   0.000013   0.000192   0.000012   0.001372   0.001144
      7       0.000000   0.000000   0.000000   0.000000   0.000000   0.000000
      8      -0.001265  -0.000029  -0.000348  -0.000028  -0.002449   0.002437
      9      -0.000029   0.000088  -0.000188  -0.000000   0.000570  -0.001315
     10       0.000578   0.000018   0.000069   0.000006   0.001328   0.000000
     11       0.029312   0.000919   0.005410   0.001166   0.036482   0.000002
     12       0.000000   0.000000   0.000000   0.000000   0.000000   0.000000
     13      -0.045568  -0.001635  -0.007023  -0.002158  -0.049431   0.000008
     14      -0.001635   0.006539  -0.005753  -0.000049   0.017938  -0.000003
     15       0.002714  -0.001341   0.004445   0.000056   0.000909   0.000000
     16       0.066607  -0.032926   0.084383   0.004732   0.028273   0.000000
     17       0.000000   0.000000   0.000000   0.000000   0.000000   0.000000
     18      -0.078557   0.048795  -0.099133  -0.007603  -0.027062   0.000000
     19       0.048795  -0.003966  -0.049593   0.002529   0.031790   0.000000
     20       0.000010  -0.000008   0.001149   0.000000   0.000003   0.000000
     21       0.002919  -0.002296   0.033093   0.000178   0.000866   0.000002
     22       0.000000   0.000000   0.000000   0.000000   0.000000   0.000000
     23      -0.004006   0.003649  -0.048007  -0.000318  -0.000981   0.000008
     24       0.003649  -0.002236   0.003725   0.000182   0.001304   0.000003
     25       0.000000  -0.000000   0.000005   0.000000   0.000000   0.000000
     26       0.000069  -0.000037   0.001035   0.000002   0.000039   0.001145
     27       0.000000   0.000000   0.000000   0.000000   0.000000   0.000000
     28      -0.000142   0.000081  -0.001928  -0.000004  -0.000067   0.002438
     29       0.000081  -0.000033   0.000099   0.000002   0.000057   0.001317
     30       0.000123   0.000026   0.000015   0.000003   0.000546   0.001017
     31       0.051540   0.022401   0.002796   0.004166   0.129838   0.000000
     32       0.001243  -0.001693   0.055469   0.000199   0.000265   0.000000
     33       0.000004  -0.000003   0.000207   0.000000   0.000002   0.001017
     34       0.040095  -0.062443   0.061086   0.005781   0.005781   0.000000
     35       0.223814  -0.348558   0.486010   0.101894   0.101891   0.000000
     36       0.000000   0.000000   0.000000   0.000000   0.000000   0.000000
     37       0.076616   0.259540  -0.193160  -0.111303  -0.015924   0.000000
     38       0.259540  -0.160924  -0.422348   0.068444   0.129686   0.000000
     39      -0.000000   0.000000   0.005781   0.061085   0.061086   0.000000
     40       0.000000   0.000000   0.101891   0.486008   0.486010   0.000000
     41       0.000000   0.000000   0.000000   0.000000   0.000000   0.000000
     42       1.000000   0.000000   0.015924  -0.464422   0.193160   0.000000
     43       0.000000   1.000000  -0.129686   0.000087   0.422348   0.000000
     44       0.015924  -0.129686   1.000000   0.048313   0.014144   0.000000
     45      -0.464422   0.000087   0.048313   1.000000   0.152207   0.000000
     46       0.193160   0.422348   0.014144   0.152207   1.000000   0.000000
     47       0.000000   0.000000   0.000000   0.000000   0.000000   1.000000
     48       0.000000  -0.000000   0.000000   0.000000   0.000000   0.248362
     49       0.000000   0.000000   0.000000   0.000000   0.000000   0.000000
     50      -0.000000   0.000000  -0.000001  -0.000000  -0.000000  -0.000000
     51       0.000000   0.000000  -0.000000   0.000000   0.000000   0.000000
     52       0.000000   0.000000   0.000000   0.000000   0.000000   0.000003
     53       0.000000  -0.000000   0.000000   0.000000   0.000000   0.044724
     54       0.000000   0.000000   0.000000   0.000000   0.000000   0.000000
     55      -0.000000   0.000000  -0.000000   0.000000  -0.000000  -0.040095
     56       0.000000  -0.000000   0.000000   0.000000   0.000000   0.062443
     57       0.000000  -0.000000   0.000000   0.000000   0.000000   0.061086
     58       0.000000   0.000000   0.000000   0.000000   0.000000   0.005781
     59       0.000000  -0.000000   0.000000   0.000000   0.000000   0.005781
                 48         49         50         51         52         53    
      0       0.026588   0.000000  -0.044587  -0.000007   0.000000   0.001263
      1       0.298494   0.000000  -0.336362  -0.000050   0.001263   0.049268
      2       0.000000   0.164306   0.000000   0.000000   0.000000   0.000000
      3       0.336362   0.000000  -0.314114  -0.000071   0.002714   0.066607
      4       0.000050   0.000000  -0.000071   0.164306  -0.001341  -0.032926
      5       0.001144   0.000000  -0.002437   0.001315   0.000000   0.000003
      6       0.046534   0.000000  -0.062143   0.033540   0.000003   0.001892
      7       0.000000   0.018926   0.000000   0.000000   0.000000   0.000000
      8       0.062143   0.000000  -0.071889   0.049015   0.000010   0.002919
      9      -0.033540   0.000000   0.049015  -0.007529  -0.000008  -0.002296
     10       0.000002   0.000000  -0.000008   0.000003   0.000000   0.000000
     11       0.001527   0.000000  -0.002884   0.000959   0.000000   0.000032
     12       0.000000   0.000508   0.000000   0.000000   0.000000   0.000000
     13       0.002884   0.000000  -0.005089   0.001861   0.000000   0.000069
     14      -0.000959   0.000000   0.001861  -0.000111  -0.000000  -0.000037
     15       0.000000   0.000000  -0.000000  -0.000000   0.000000   0.000000
     16       0.000293   0.000000  -0.000645  -0.000000   0.000000   0.000012
     17       0.000000   0.000094   0.000000   0.000000   0.000000   0.000000
     18       0.000645   0.000000  -0.001344  -0.000000   0.000000   0.000031
     19       0.000000   0.000000  -0.000000   0.000094  -0.000000  -0.000007
     20       0.000002   0.000000  -0.000008  -0.000003   0.000000   0.000000
     21       0.001528   0.000000  -0.002886  -0.000960   0.000000   0.000274
     22       0.000000   0.000509   0.000000   0.000000   0.000000   0.000000
     23       0.002886   0.000000  -0.005092  -0.001863   0.000000   0.000605
     24       0.000960   0.000000  -0.001863  -0.000111   0.000000   0.000013
     25       0.001145   0.000000  -0.002438  -0.001317   0.000000   0.000206
     26       0.046553   0.000000  -0.062159  -0.033566   0.000206   0.017611
     27       0.000000   0.018934   0.000000   0.000000   0.000000   0.000000
     28       0.062159   0.000000  -0.071889  -0.049045   0.000578   0.029312
     29       0.033566   0.000000  -0.049045  -0.007550   0.000018   0.000919
     30       0.030486   0.000000  -0.027525   0.035224   0.000005   0.001132
     31       0.000158   0.000000  -0.000292   0.000151   0.000000   0.000002
     32       0.000158   0.000000  -0.000292  -0.000151   0.000000   0.000057
     33       0.030489   0.000000  -0.027520  -0.035234   0.001481   0.039274
     34       0.000000   0.000000   0.000000   0.000000   0.000000   0.000000
     35       0.000001   0.000000  -0.000002  -0.000000   0.000000   0.000000
     36       0.000000   0.000000   0.000000   0.000000   0.000000   0.000000
     37       0.000002   0.000000  -0.000005  -0.000000   0.000000   0.000000
     38       0.000000   0.000000  -0.000000   0.000000   0.000000  -0.000000
     39       0.000000   0.000000   0.000000   0.000000   0.000000   0.000000
     40       0.000000   0.000000  -0.000000   0.000000   0.000000   0.000000
     41       0.000000   0.000000   0.000000   0.000000   0.000000   0.000000
     42       0.000000   0.000000  -0.000000   0.000000   0.000000   0.000000
     43      -0.000000   0.000000   0.000000   0.000000   0.000000  -0.000000
     44       0.000000   0.000000  -0.000001  -0.000000   0.000000   0.000000
     45       0.000000   0.000000  -0.000000   0.000000   0.000000   0.000000
     46       0.000000   0.000000  -0.000000   0.000000   0.000000   0.000000
     47       0.248362   0.000000  -0.000000   0.000000   0.000003   0.044724
     48       1.000000   0.000000  -0.000000   0.000000   0.044724   0.402773
     49       0.000000   1.000000   0.000000   0.000000   0.000000   0.000000
     50      -0.000000   0.000000   1.000000  -0.000000   0.040095   0.223814
     51       0.000000   0.000000  -0.000000   1.000000  -0.062443  -0.348558
     52       0.044724   0.000000   0.040095  -0.062443   1.000000   0.248362
     53       0.402773   0.000000   0.223814  -0.348558   0.248362   1.000000
     54       0.000000   0.243271   0.000000   0.000000   0.000000   0.000000
     55      -0.223814   0.000000   0.076616   0.259540   0.000000  -0.000000
     56       0.348558   0.000000   0.259540  -0.160924  -0.000000   0.000000
     57       0.486010   0.000000   0.193160   0.422348   0.005781   0.101891
     58       0.101894   0.000000   0.111303  -0.068444   0.061085   0.486008
     59       0.101891   0.000000   0.015924  -0.129686   0.061086   0.486010
                 54         55         56         57         58         59    
      0       0.000000  -0.002714   0.001341   0.004445   0.000056   0.000909
      1       0.000000  -0.066607   0.032926   0.084383   0.004732   0.028273
      2       0.020155   0.000000   0.000000   0.000000   0.000000   0.000000
      3       0.000000  -0.078557   0.048795   0.099133   0.007603   0.027062
      4       0.000000   0.048795  -0.003966   0.049593  -0.002529  -0.031790
      5       0.000000  -0.000010   0.000008   0.001149   0.000000   0.000003
      6       0.000000  -0.002919   0.002296   0.033093   0.000178   0.000866
      7       0.000634   0.000000   0.000000   0.000000   0.000000   0.000000
      8       0.000000  -0.004006   0.003649   0.048007   0.000318   0.000981
      9       0.000000   0.003649  -0.002236  -0.003725  -0.000182  -0.001304
     10       0.000000  -0.000000   0.000000   0.000005   0.000000   0.000000
     11       0.000000  -0.000069   0.000037   0.001035   0.000002   0.000039
     12       0.000010   0.000000   0.000000   0.000000   0.000000   0.000000
     13       0.000000  -0.000142   0.000081   0.001928   0.000004   0.000067
     14       0.000000   0.000081  -0.000033  -0.000099  -0.000002  -0.000057
     15       0.000000  -0.000000   0.000000   0.000000   0.000000   0.000000
     16       0.000000  -0.000031   0.000007   0.000086   0.000000   0.000049
     17       0.000004   0.000000   0.000000   0.000000   0.000000   0.000000
     18       0.000000  -0.000075   0.000017   0.000181   0.000001   0.000099
     19       0.000000   0.000017   0.000000   0.000038  -0.000000  -0.000046
     20       0.000000  -0.000000  -0.000000   0.000000   0.000000   0.000007
     21       0.000000  -0.000605  -0.000013   0.000192   0.000012   0.001372
     22       0.000088   0.000000   0.000000   0.000000   0.000000   0.000000
     23       0.000000  -0.001265  -0.000029   0.000348   0.000028   0.002449
     24       0.000000  -0.000029   0.000088   0.000188   0.000000  -0.000570
     25       0.000000  -0.000578  -0.000018   0.000069   0.000006   0.001328
     26       0.000000  -0.029312  -0.000919   0.005410   0.001166   0.036482
     27       0.006590   0.000000   0.000000   0.000000   0.000000   0.000000
     28       0.000000  -0.045568  -0.001635   0.007023   0.002158   0.049431
     29       0.000000  -0.001635   0.006539   0.005753   0.000049  -0.017938
     30       0.000000  -0.001243   0.001693   0.055469   0.000199   0.000265
     31       0.000000  -0.000004   0.000003   0.000207   0.000000   0.000002
     32       0.000000  -0.000123  -0.000026   0.000015   0.000003   0.000546
     33       0.000000  -0.051540  -0.022401   0.002796   0.004166   0.129838
     34       0.000000   0.000000   0.000000   0.000000   0.000000   0.000000
     35       0.000000  -0.000000   0.000000   0.000000   0.000000   0.000000
     36       0.000000   0.000000   0.000000   0.000000   0.000000   0.000000
     37       0.000000  -0.000000   0.000000   0.000001   0.000000   0.000000
     38       0.000000   0.000000   0.000000   0.000000  -0.000000  -0.000000
     39       0.000000   0.000000   0.000000   0.000000   0.000000   0.000000
     40       0.000000  -0.000000   0.000000   0.000000   0.000000   0.000000
     41       0.000000   0.000000   0.000000   0.000000   0.000000   0.000000
     42       0.000000  -0.000000   0.000000   0.000000   0.000000   0.000000
     43       0.000000   0.000000  -0.000000  -0.000000   0.000000  -0.000000
     44       0.000000  -0.000000   0.000000   0.000000   0.000000   0.000000
     45       0.000000   0.000000   0.000000   0.000000   0.000000   0.000000
     46       0.000000  -0.000000   0.000000   0.000000   0.000000   0.000000
     47       0.000000  -0.040095   0.062443   0.061086   0.005781   0.005781
     48       0.000000  -0.223814   0.348558   0.486010   0.101894   0.101891
     49       0.243271   0.000000   0.000000   0.000000   0.000000   0.000000
     50       0.000000   0.076616   0.259540   0.193160   0.111303   0.015924
     51       0.000000   0.259540  -0.160924   0.422348  -0.068444  -0.129686
     52       0.000000   0.000000  -0.000000   0.005781   0.061085   0.061086
     53       0.000000  -0.000000   0.000000   0.101891   0.486008   0.486010
     54       1.000000   0.000000   0.000000   0.000000   0.000000   0.000000
     55       0.000000   1.000000   0.000000  -0.015924   0.464422  -0.193160
     56       0.000000   0.000000   1.000000   0.129686  -0.000087  -0.422348
     57       0.000000  -0.015924   0.129686   1.000000   0.048313   0.014144
     58       0.000000   0.464422  -0.000087   0.048313   1.000000   0.152207
     59       0.000000  -0.193160  -0.422348   0.014144   0.152207   1.000000
---------------------
INITIAL GUESS: MOREAD
---------------------
Guess MOs are being read from file: dvb_sp.ges
Input Geometry matches current geometry (good)
Input basis set matches current basis set (good)
Warning: Geometry matches/Basis set matches and symmetry is to be used
         We proceed in good trust that the input orbitals and irreps are correct
MOs were renormalized
MOs were reorthogonalized (Cholesky)
Irrep occupations for operator 0
    Ag -   15
    Bg -    3
    Au -    2
    Bu -   15
                      ------------------
                      INITIAL GUESS DONE (   0.0 sec)
                      ------------------
-------------------
DFT GRID GENERATION
-------------------

General Integration Accuracy     IntAcc      ...  4.340
Radial Grid Type                 RadialGrid  ... Gauss-Chebyshev
Angular Grid (max. acc.)         AngularGrid ... Lebedev-110
Angular grid pruning method      GridPruning ... 3 (G Style)
Weight generation scheme         WeightScheme... Becke
Basis function cutoff            BFCut       ...    1.0000e-10
Integration weight cutoff        WCut        ...    1.0000e-14
Grids for H and He will be reduced by one unit

# of grid points (after initial pruning)     ...  24500 (   0.0 sec)
# of grid points (after weights+screening)   ...  22502 (   0.2 sec)
nearest neighbour list constructed           ...    0.0 sec
Grid point re-assignment to atoms done       ...    0.0 sec
Grid point division into batches done        ...    0.0 sec
Reduced shell lists constructed in    0.3 sec

Total number of grid points                  ...    22502
Total number of batches                      ...      362
Average number of points per batch           ...       62
Average number of grid points per atom       ...     1125
Average number of shells per batch           ...    26.38 (65.96%)
Average number of basis functions per batch  ...    43.32 (72.20%)
Average number of large shells per batch     ...    19.63 (74.41%)
Average number of large basis fcns per batch ...    33.05 (76.29%)
Maximum spatial batch extension              ...  18.95, 20.84, 44.34 au
Average spatial batch extension              ...   3.22,  3.90,  5.33 au

Time for grid setup =    0.487 sec

--------------
SCF ITERATIONS
--------------
ITER       Energy         Delta-E        Max-DP      RMS-DP      [F,P]     Damp
               ***  Starting incremental Fock matrix formation  ***
                      *** Initiating the SOSCF procedure ***
                      *** Re-Reading the Fockian *** 
                      *** Removing any level shift *** 
ITER      Energy       Delta-E        Grad      Rot      Max-DP    RMS-DP
  0   -382.04169037 -382.0416903678  0.000016  0.000016  0.000092  0.000004
