    -----------------------------------------------------------------------
          Psi4: An Open-Source Ab Initio Electronic Structure Package
                              Psi4 1.0.54 Driver

                          Git: Rev {master} 8d4cec3 dirty

    J. M. Turney, A. C. Simmonett, R. M. Parrish, E. G. Hohenstein,
    F. A. Evangelista, J. T. Fermann, B. J. Mintz, L. A. Burns, J. J. Wilke,
    M. L. Abrams, N. J. Russ, M. L. Leininger, C. L. Janssen, E. T. Seidl,
    W. D. Allen, H. F. Schaefer, R. A. King, E. F. Valeev, C. D. Sherrill,
    and T. D. Crawford, WIREs Comput. Mol. Sci. 2, 556-565 (2012)
    (doi: 10.1002/wcms.93)

                         Additional Contributions by
    A. E. DePrince, U. Bozkaya, A. Yu. Sokolov, D. G. A. Smith, R. Di Remigio,
    R. M. Richard, J. F. Gonthier, H. R. McAlexander, M. Saitow, and
    B. P. Pritchard
    -----------------------------------------------------------------------


    Psi4 started on: Tue Aug  2 20:21:47 2016

    Process ID:  12347
    PSI4DATADIR: /home/eric/opt/apps/python/anaconda2/share/psi4
    Memory level set to 256.000 MB

  ==> Input File <==

--------------------------------------------------------------------------
molecule dvb {
    0 1
    C    -1.4152533224   0.2302217854   0.0000000000
    C     1.4152533224  -0.2302217854   0.0000000000
    C    -0.4951331558   1.3144608674   0.0000000000
    C     0.4951331558  -1.3144608674   0.0000000000
    C     0.8894090436   1.0909493743   0.0000000000
    C    -0.8894090436  -1.0909493743   0.0000000000
    H    -0.8795511985   2.3437343748   0.0000000000
    H     0.8795511985  -2.3437343748   0.0000000000
    H     1.5779041557   1.9450061275   0.0000000000
    H    -1.5779041557  -1.9450061275   0.0000000000
    C     2.8845844962  -0.5210893778   0.0000000000
    C    -2.8845844962   0.5210893778   0.0000000000
    H     3.1403356810  -1.5919605685   0.0000000000
    H    -3.1403356810   1.5919605685   0.0000000000
    C     3.8800428103   0.3822535424   0.0000000000
    C    -3.8800428103  -0.3822535424   0.0000000000
    H     3.6946765858   1.4624389570   0.0000000000
    H    -3.6946765858  -1.4624389570   0.0000000000
    H     4.9316453546   0.0711049543   0.0000000000
    H    -4.9316453546  -0.0711049543   0.0000000000
}

set {
    basis sto-3g
    print_basis true
    print_mos true
}

scf_e, scf_wfn = energy('scf', return_wfn=True)
oeprop(scf_wfn, 'MULLIKEN_CHARGES', 'LOWDIN_CHARGES', 'MULTIPOLE(5)')
--------------------------------------------------------------------------

*** tstart() called on copper
*** at Tue Aug  2 20:21:47 2016


         ---------------------------------------------------------
                                   SCF
            by Justin Turney, Rob Parrish, and Andy Simmonett
                              RHF Reference
                        1 Threads,    256 MiB Core
         ---------------------------------------------------------

  ==> Geometry <==

    Molecular point group: c2h
    Full point group: C2h

    Geometry (in Angstrom), charge = 0, multiplicity = 1:

       Center              X                  Y                   Z               Mass       
    ------------   -----------------  -----------------  -----------------  -----------------
           C         -1.415253322400     0.230221785400     0.000000000000    12.000000000000
           C          1.415253322400    -0.230221785400     0.000000000000    12.000000000000
           C         -0.495133155800     1.314460867400     0.000000000000    12.000000000000
           C          0.495133155800    -1.314460867400     0.000000000000    12.000000000000
           C          0.889409043600     1.090949374300     0.000000000000    12.000000000000
           C         -0.889409043600    -1.090949374300     0.000000000000    12.000000000000
           H         -0.879551198500     2.343734374800     0.000000000000     1.007825032070
           H          0.879551198500    -2.343734374800     0.000000000000     1.007825032070
           H          1.577904155700     1.945006127500     0.000000000000     1.007825032070
           H         -1.577904155700    -1.945006127500     0.000000000000     1.007825032070
           C          2.884584496200    -0.521089377800     0.000000000000    12.000000000000
           C         -2.884584496200     0.521089377800     0.000000000000    12.000000000000
           H          3.140335681000    -1.591960568500     0.000000000000     1.007825032070
           H         -3.140335681000     1.591960568500     0.000000000000     1.007825032070
           C          3.880042810300     0.382253542400     0.000000000000    12.000000000000
           C         -3.880042810300    -0.382253542400     0.000000000000    12.000000000000
           H          3.694676585800     1.462438957000     0.000000000000     1.007825032070
           H         -3.694676585800    -1.462438957000     0.000000000000     1.007825032070
           H          4.931645354600     0.071104954300     0.000000000000     1.007825032070
           H         -4.931645354600    -0.071104954300     0.000000000000     1.007825032070

  Running in c2h symmetry.

  Rotational constants: A =      0.15403  B =      0.02287  C =      0.01992 [cm^-1]
  Rotational constants: A =   4617.84332  B =    685.76183  C =    597.09209 [MHz]
  Nuclear repulsion =  445.936978114243402

  Charge       = 0
  Multiplicity = 1
  Electrons    = 70
  Nalpha       = 35
  Nbeta        = 35

  ==> Algorithm <==

  SCF Algorithm Type is DF.
  DIIS enabled.
  MOM disabled.
  Fractional occupation disabled.
  Guess Type is SAD.
  Energy threshold   = 1.00e-06
  Density threshold  = 1.00e-06
  Integral threshold = 0.00e+00

  ==> Primary Basis <==

  Basis Set: STO-3G
    Number of shells: 40
    Number of basis function: 60
    Number of Cartesian functions: 60
    Spherical Harmonics?: true
    Max angular momentum: 1

  -AO BASIS SET INFORMATION:
    Name                   = STO-3G
    Total number of shells = 40
    Number of primitives   = 120
    Number of AO           = 60
    Number of SO           = 60
    Maximum AM             = 1
    Spherical Harmonics    = TRUE

  -Contraction Scheme:
    Atom   Type   All Primitives // Shells:
   ------ ------ --------------------------
       1     C     6s 3p // 2s 1p 
       2     C     6s 3p // 2s 1p 
       3     C     6s 3p // 2s 1p 
       4     C     6s 3p // 2s 1p 
       5     C     6s 3p // 2s 1p 
       6     C     6s 3p // 2s 1p 
       7     H     3s // 1s 
       8     H     3s // 1s 
       9     H     3s // 1s 
      10     H     3s // 1s 
      11     C     6s 3p // 2s 1p 
      12     C     6s 3p // 2s 1p 
      13     H     3s // 1s 
      14     H     3s // 1s 
      15     C     6s 3p // 2s 1p 
      16     C     6s 3p // 2s 1p 
      17     H     3s // 1s 
      18     H     3s // 1s 
      19     H     3s // 1s 
      20     H     3s // 1s 

  ==> AO Basis Functions <==

    [ STO-3G ]
    spherical
    ****
    C   1
    S   3 1.00
                        71.61683700           0.15432897
                        13.04509600           0.53532814
                         3.53051220           0.44463454
    S   3 1.00
                         2.94124940          -0.09996723
                         0.68348310           0.39951283
                         0.22228990           0.70011547
    P   3 1.00
                         2.94124940           0.15591627
                         0.68348310           0.60768372
                         0.22228990           0.39195739
    ****
    C   3
    S   3 1.00
                        71.61683700           0.15432897
                        13.04509600           0.53532814
                         3.53051220           0.44463454
    S   3 1.00
                         2.94124940          -0.09996723
                         0.68348310           0.39951283
                         0.22228990           0.70011547
    P   3 1.00
                         2.94124940           0.15591627
                         0.68348310           0.60768372
                         0.22228990           0.39195739
    ****
    C   5
    S   3 1.00
                        71.61683700           0.15432897
                        13.04509600           0.53532814
                         3.53051220           0.44463454
    S   3 1.00
                         2.94124940          -0.09996723
                         0.68348310           0.39951283
                         0.22228990           0.70011547
    P   3 1.00
                         2.94124940           0.15591627
                         0.68348310           0.60768372
                         0.22228990           0.39195739
    ****
    H   7
    S   3 1.00
                         3.42525091           0.15432897
                         0.62391373           0.53532814
                         0.16885540           0.44463454
    ****
    H   9
    S   3 1.00
                         3.42525091           0.15432897
                         0.62391373           0.53532814
                         0.16885540           0.44463454
    ****
    C  11
    S   3 1.00
                        71.61683700           0.15432897
                        13.04509600           0.53532814
                         3.53051220           0.44463454
    S   3 1.00
                         2.94124940          -0.09996723
                         0.68348310           0.39951283
                         0.22228990           0.70011547
    P   3 1.00
                         2.94124940           0.15591627
                         0.68348310           0.60768372
                         0.22228990           0.39195739
    ****
    H  13
    S   3 1.00
                         3.42525091           0.15432897
                         0.62391373           0.53532814
                         0.16885540           0.44463454
    ****
    C  15
    S   3 1.00
                        71.61683700           0.15432897
                        13.04509600           0.53532814
                         3.53051220           0.44463454
    S   3 1.00
                         2.94124940          -0.09996723
                         0.68348310           0.39951283
                         0.22228990           0.70011547
    P   3 1.00
                         2.94124940           0.15591627
                         0.68348310           0.60768372
                         0.22228990           0.39195739
    ****
    H  17
    S   3 1.00
                         3.42525091           0.15432897
                         0.62391373           0.53532814
                         0.16885540           0.44463454
    ****
    H  19
    S   3 1.00
                         3.42525091           0.15432897
                         0.62391373           0.53532814
                         0.16885540           0.44463454
    ****

  ==> Pre-Iterations <==

   -------------------------------------------------------
    Irrep   Nso     Nmo     Nalpha   Nbeta   Ndocc  Nsocc
   -------------------------------------------------------
     Ag        25      25       0       0       0       0
     Bg         5       5       0       0       0       0
     Au         5       5       0       0       0       0
     Bu        25      25       0       0       0       0
   -------------------------------------------------------
    Total      60      60      35      35      35       0
   -------------------------------------------------------

  ==> Integral Setup <==

  ==> DFJK: Density-Fitted J/K Matrices <==

    J tasked:                  Yes
    K tasked:                  Yes
    wK tasked:                  No
    OpenMP threads:              1
    Integrals threads:           1
    Memory (MB):               183
    Algorithm:                Core
    Integral Cache:           NONE
    Schwarz Cutoff:          1E-12
    Fitting Condition:       1E-12

   => Auxiliary Basis Set <=

  Basis Set: 
    Number of shells: 240
    Number of basis function: 700
    Number of Cartesian functions: 810
    Spherical Harmonics?: true
    Max angular momentum: 3

  Minimum eigenvalue in the overlap matrix is 1.8147107108E-01.
  Using Symmetric Orthogonalization.
  SCF Guess: Superposition of Atomic Densities via on-the-fly atomic UHF.

  ==> Iterations <==

                           Total Energy        Delta E     RMS |[F,P]|

   @DF-RHF iter   0:  -379.40205305201277   -3.79402e+02   1.22403e-01 
   @DF-RHF iter   1:  -379.51257122993297   -1.10518e-01   1.48230e-02 
   @DF-RHF iter   2:  -379.75450712689167   -2.41936e-01   3.85545e-03 DIIS
   @DF-RHF iter   3:  -379.76943798459638   -1.49309e-02   1.54554e-03 DIIS
   @DF-RHF iter   4:  -379.77133633777805   -1.89835e-03   2.31033e-04 DIIS
   @DF-RHF iter   5:  -379.77138783307078   -5.14953e-05   2.54560e-05 DIIS
   @DF-RHF iter   6:  -379.77138913222461   -1.29915e-06   8.40043e-06 DIIS
   @DF-RHF iter   7:  -379.77138924191343   -1.09689e-07   2.68273e-06 DIIS
   @DF-RHF iter   8:  -379.77138925554823   -1.36348e-08   6.92034e-07 DIIS

  ==> Post-Iterations <==

    Orbital Energies (a.u.)
    -----------------------

    Doubly Occupied:                                                      

       1Bu   -11.040928     1Ag   -11.040865     2Bu   -11.031920  
       2Ag   -11.031919     3Bu   -11.029272     3Ag   -11.029141  
       4Bu   -11.028929     4Ag   -11.028907     5Bu   -11.017789  
       5Ag   -11.017789     6Ag    -1.090290     6Bu    -1.020257  
       7Ag    -0.974921     7Bu    -0.950304     8Bu    -0.909638  
       8Ag    -0.799873     9Ag    -0.762811     9Bu    -0.727633  
      10Ag    -0.696759    11Ag    -0.628020    10Bu    -0.605648  
      11Bu    -0.572930    12Bu    -0.553568    12Ag    -0.553141  
      13Bu    -0.525336    14Bu    -0.496653    13Ag    -0.492517  
       1Au    -0.463675    15Bu    -0.446429    14Ag    -0.421635  
      15Ag    -0.415607     1Bg    -0.376922     2Au    -0.315104  
       2Bg    -0.278315     3Bg    -0.222155  

    Virtual:                                                              

       3Au     0.199064     4Au     0.268586     4Bg     0.308894  
       5Au     0.397151     5Bg     0.521847    16Ag     0.565091  
      16Bu     0.575624    17Ag     0.621633    17Bu     0.625876  
      18Ag     0.658308    18Bu     0.659466    19Bu     0.677256  
      19Ag     0.694262    20Bu     0.706779    20Ag     0.740212  
      21Ag     0.802339    21Bu     0.825704    22Ag     0.860711  
      22Bu     0.887807    23Bu     0.921080    23Ag     0.940031  
      24Ag     0.990333    24Bu     1.027300    25Ag     1.107720  
      25Bu     1.125062  

    Final Occupation by Irrep:
             Ag    Bg    Au    Bu 
    DOCC [    15,    3,    2,   15 ]

  Energy converged.

  @DF-RHF Final Energy:  -379.77138925554823

   => Energetics <=

    Nuclear Repulsion Energy =            445.9369781142434022
    One-Electron Energy =               -1400.2215172457131303
    Two-Electron Energy =                 574.5131498759214992
    DFT Exchange-Correlation Energy =       0.0000000000000000
    Empirical Dispersion Energy =           0.0000000000000000
    PCM Polarization Energy =               0.0000000000000000
    EFP Energy =                            0.0000000000000000
    Total Energy =                       -379.7713892555482289


  Saving occupied orbitals to File 180.

  ==> Molecular Orbitals <==

                 1            2            3            4            5

    1    0.7014851    0.7015437    0.0096459    0.0099818    0.0016009
    2    0.0252533    0.0251696   -0.0037888   -0.0037345    0.0016014
    3    0.0000000    0.0000000    0.0000000    0.0000000    0.0000000
    4    0.0006604    0.0004482    0.0029435    0.0029342   -0.0000780
    5    0.0000020    0.0000411   -0.0004547   -0.0004526   -0.0036132
    6   -0.7014851    0.7015437   -0.0096459    0.0099818   -0.0016009
    7   -0.0252533    0.0251696    0.0037888   -0.0037345   -0.0016014
    8    0.0000000    0.0000000    0.0000000    0.0000000    0.0000000
    9    0.0006604   -0.0004482    0.0029435   -0.0029342   -0.0000780
   10    0.0000020   -0.0000411   -0.0004547    0.0004526   -0.0036132
   11    0.0058225    0.0032256   -0.0036797   -0.0062462    0.3763511
   12   -0.0047655   -0.0046113   -0.0000700   -0.0001921    0.0092947
   13    0.0000000    0.0000000    0.0000000    0.0000000    0.0000000
   14    0.0019905    0.0020207    0.0000267    0.0000114   -0.0023534
   15    0.0024243    0.0024405    0.0000037    0.0000619    0.0000540
   16   -0.0058225    0.0032256    0.0036797   -0.0062462   -0.3763511
   17    0.0047655   -0.0046113    0.0000700   -0.0001921   -0.0092947
   18    0.0000000    0.0000000    0.0000000    0.0000000    0.0000000
   19    0.0019905   -0.0020207    0.0000267   -0.0000114   -0.0023534
   20    0.0024243   -0.0024405    0.0000037   -0.0000619    0.0000540
   21   -0.0058052    0.0032833    0.0024170   -0.0051140    0.5923917
   22    0.0047260   -0.0045533   -0.0000158   -0.0000874    0.0187268
   23    0.0000000    0.0000000    0.0000000    0.0000000    0.0000000
   24    0.0011086   -0.0011438   -0.0000005    0.0000192    0.0011206
   25   -0.0029067    0.0029169   -0.0000158    0.0000651   -0.0007613
   26    0.0058052    0.0032833   -0.0024170   -0.0051140   -0.5923917
   27   -0.0047260   -0.0045533    0.0000158   -0.0000874   -0.0187268
   28    0.0000000    0.0000000    0.0000000    0.0000000    0.0000000
   29    0.0011086    0.0011438   -0.0000005   -0.0000192    0.0011206
   30   -0.0029067   -0.0029169   -0.0000158   -0.0000651   -0.0007613
   31    0.0000599   -0.0000220    0.0000054    0.0000117   -0.0024140
   32   -0.0000599   -0.0000220   -0.0000054    0.0000117    0.0024140
   33   -0.0000543   -0.0000257    0.0000935   -0.0000893   -0.0039143
   34    0.0000543   -0.0000257   -0.0000935   -0.0000893    0.0039143
   35    0.0089039   -0.0092369   -0.7013595    0.7013228    0.0001066
   36    0.0044859   -0.0045518   -0.0249959    0.0249845    0.0000653
   37    0.0000000    0.0000000    0.0000000    0.0000000    0.0000000
   38   -0.0028865    0.0029256   -0.0006426    0.0006497   -0.0000543
   39    0.0006204   -0.0006284   -0.0005127    0.0005111   -0.0000321
   40   -0.0089039   -0.0092369    0.7013595    0.7013228   -0.0001066
   41   -0.0044859   -0.0045518    0.0249959    0.0249845   -0.0000653
   42    0.0000000    0.0000000    0.0000000    0.0000000    0.0000000
   43   -0.0028865   -0.0029256   -0.0006426   -0.0006497   -0.0000543
   44    0.0006204    0.0006284   -0.0005127   -0.0005111   -0.0000321
   45   -0.0000854    0.0000924    0.0047769   -0.0047762   -0.0000001
   46    0.0000854    0.0000924   -0.0047769   -0.0047762    0.0000001
   47    0.0005167   -0.0004895   -0.0178190    0.0178219   -0.0007459
   48   -0.0001824    0.0001857    0.0047427   -0.0047420   -0.0000399
   49    0.0000000    0.0000000    0.0000000    0.0000000    0.0000000
   50    0.0000995   -0.0001037   -0.0023808    0.0023800    0.0000301
   51   -0.0000370    0.0000369   -0.0021153    0.0021157   -0.0000417
   52   -0.0005167   -0.0004895    0.0178190    0.0178219    0.0007459
   53    0.0001824    0.0001857   -0.0047427   -0.0047420    0.0000399
   54    0.0000000    0.0000000    0.0000000    0.0000000    0.0000000
   55    0.0000995    0.0001037   -0.0023808   -0.0023800    0.0000301
   56   -0.0000370   -0.0000369   -0.0021153   -0.0021157   -0.0000417
   57    0.0001028   -0.0000986    0.0000588   -0.0000590    0.0000907
   58   -0.0001028   -0.0000986   -0.0000588   -0.0000590   -0.0000907
   59    0.0000194   -0.0000190    0.0000436   -0.0000435   -0.0000113
   60   -0.0000194   -0.0000190   -0.0000436   -0.0000435    0.0000113

 Ene   -11.0409280  -11.0408655  -11.0319197  -11.0319194  -11.0292716
 Sym            Bu           Ag           Bu           Ag           Bu
 Occ             2            2            2            2            2


                 6            7            8            9           10

    1    0.0034060    0.0071773    0.0011529   -0.0002728    0.0002410
    2    0.0063402    0.0071402    0.0022471   -0.0002699    0.0002693
    3    0.0000000    0.0000000    0.0000000    0.0000000    0.0000000
    4    0.0019434    0.0023707    0.0013415    0.0001222   -0.0001201
    5   -0.0016079    0.0004150    0.0033825   -0.0000525    0.0000519
    6    0.0034060   -0.0071773    0.0011529    0.0002728    0.0002410
    7    0.0063402   -0.0071402    0.0022471    0.0002699    0.0002693
    8    0.0000000    0.0000000    0.0000000    0.0000000    0.0000000
    9   -0.0019434    0.0023707   -0.0013415    0.0001222    0.0001201
   10    0.0016079    0.0004150   -0.0033825   -0.0000525   -0.0000519
   11   -0.3016294   -0.5920725   -0.6334607   -0.0002609    0.0004132
   12   -0.0065271   -0.0242263   -0.0248736    0.0000123   -0.0000704
   13    0.0000000    0.0000000    0.0000000    0.0000000    0.0000000
   14    0.0027355   -0.0019517   -0.0016337   -0.0000622    0.0000160
   15   -0.0003178    0.0009799    0.0007015   -0.0000113    0.0000198
   16   -0.3016294    0.5920725   -0.6334607    0.0002609    0.0004132
   17   -0.0065271    0.0242263   -0.0248736   -0.0000123   -0.0000704
   18    0.0000000    0.0000000    0.0000000    0.0000000    0.0000000
   19   -0.0027355   -0.0019517    0.0016337   -0.0000622   -0.0000160
   20    0.0003178    0.0009799   -0.0007015   -0.0000113   -0.0000198
   21   -0.6337028    0.3758559    0.3011338    0.0010693    0.0010827
   22   -0.0207820    0.0179839    0.0151837    0.0000011   -0.0000081
   23    0.0000000    0.0000000    0.0000000    0.0000000    0.0000000
   24   -0.0009693   -0.0029114   -0.0030762   -0.0000902   -0.0000832
   25    0.0005408    0.0000049    0.0002309    0.0000062    0.0000017
   26   -0.6337028   -0.3758559    0.3011338   -0.0010693    0.0010827
   27   -0.0207820   -0.0179839    0.0151837   -0.0000011   -0.0000081
   28    0.0000000    0.0000000    0.0000000    0.0000000    0.0000000
   29    0.0009693   -0.0029114    0.0030762   -0.0000902    0.0000832
   30   -0.0005408    0.0000049   -0.0002309    0.0000062   -0.0000017
   31    0.0020603    0.0040293    0.0043157    0.0000034   -0.0000050
   32    0.0020603   -0.0040293    0.0043157   -0.0000034   -0.0000050
   33    0.0043386   -0.0026322   -0.0020552    0.0000547    0.0000558
   34    0.0043386    0.0026322   -0.0020552   -0.0000547    0.0000558
   35   -0.0074188    0.0045416   -0.0034810   -0.0173810   -0.0173781
   36   -0.0004137    0.0004592   -0.0001799   -0.0060335   -0.0060330
   37    0.0000000    0.0000000    0.0000000    0.0000000    0.0000000
   38   -0.0000171   -0.0000860   -0.0000221   -0.0023767   -0.0023766
   39   -0.0000443    0.0000708   -0.0000068   -0.0021899   -0.0021895
   40   -0.0074188   -0.0045416   -0.0034810    0.0173810   -0.0173781
   41   -0.0004137   -0.0004592   -0.0001799    0.0060335   -0.0060330
   42    0.0000000    0.0000000    0.0000000    0.0000000    0.0000000
   43    0.0000171   -0.0000860    0.0000221   -0.0023767    0.0023766
   44    0.0000443    0.0000708    0.0000068   -0.0021899    0.0021895
   45    0.0001254   -0.0000952    0.0000576    0.0001741    0.0001738
   46    0.0001254    0.0000952    0.0000576   -0.0001741    0.0001738
   47    0.0009410   -0.0006596   -0.0001830    0.7014369    0.7014370
   48    0.0001735   -0.0001385    0.0000407    0.0253461    0.0253457
   49    0.0000000    0.0000000    0.0000000    0.0000000    0.0000000
   50   -0.0001079    0.0000810   -0.0000338   -0.0008114   -0.0008112
   51    0.0000071   -0.0000011   -0.0000309   -0.0007695   -0.0007695
   52    0.0009410    0.0006596   -0.0001830   -0.7014369    0.7014370
   53    0.0001735    0.0001385    0.0000407   -0.0253461    0.0253457
   54    0.0000000    0.0000000    0.0000000    0.0000000    0.0000000
   55    0.0001079    0.0000810    0.0000338   -0.0008114    0.0008112
   56   -0.0000071   -0.0000011    0.0000309   -0.0007695    0.0007695
   57   -0.0001022    0.0000741    0.0000595   -0.0047325   -0.0047326
   58   -0.0001022   -0.0000741    0.0000595    0.0047325   -0.0047326
   59    0.0000133   -0.0000068    0.0000004   -0.0047434   -0.0047434
   60    0.0000133    0.0000068    0.0000004    0.0047434   -0.0047434

 Ene   -11.0291407  -11.0289295  -11.0289070  -11.0177889  -11.0177888
 Sym            Ag           Bu           Ag           Bu           Ag
 Occ             2            2            2            2            2


                11           12           13           14           15

    1    0.1066938    0.1012741    0.0029651    0.0120486    0.1002712
    2   -0.2753797   -0.2708233   -0.0101940   -0.0329785   -0.2790779
    3    0.0000000    0.0000000    0.0000000    0.0000000    0.0000000
    4   -0.0382146    0.0317891    0.0934502   -0.0227518   -0.0588768
    5    0.0051058   -0.0039274   -0.0102855   -0.1252180    0.0183023
    6    0.1066938   -0.1012741    0.0029651   -0.0120486   -0.1002712
    7   -0.2753797    0.2708233   -0.0101940    0.0329785    0.2790779
    8    0.0000000    0.0000000    0.0000000    0.0000000    0.0000000
    9    0.0382146    0.0317891   -0.0934502   -0.0227518   -0.0588768
   10   -0.0051058   -0.0039274    0.0102855   -0.1252180    0.0183023
   11    0.0966466    0.0377404   -0.0459800    0.1309061    0.0422836
   12   -0.2472696   -0.1000557    0.1224251   -0.3571312   -0.1179862
   13    0.0000000    0.0000000    0.0000000    0.0000000    0.0000000
   14   -0.0147513    0.0565944    0.0350919   -0.0590834    0.0917057
   15    0.0521725    0.0288894   -0.0154020    0.0017847    0.0402364
   16    0.0966466   -0.0377404   -0.0459800   -0.1309061   -0.0422836
   17   -0.2472696    0.1000557    0.1224251    0.3571312    0.1179862
   18    0.0000000    0.0000000    0.0000000    0.0000000    0.0000000
   19    0.0147513    0.0565944   -0.0350919   -0.0590834    0.0917057
   20   -0.0521725    0.0288894    0.0154020    0.0017847    0.0402364
   21    0.0964525   -0.0416610   -0.0417858    0.1192040   -0.0721176
   22   -0.2471196    0.1110640    0.1105002   -0.3250209    0.2006899
   23    0.0000000    0.0000000    0.0000000    0.0000000    0.0000000
   24    0.0308070    0.0442084   -0.0443759    0.0696533    0.0486037
   25    0.0448028   -0.0450542   -0.0020722   -0.0301156   -0.0574509
   26    0.0964525    0.0416610   -0.0417858   -0.1192040    0.0721176
   27   -0.2471196   -0.1110640    0.1105002    0.3250209   -0.2006899
   28    0.0000000    0.0000000    0.0000000    0.0000000    0.0000000
   29   -0.0308070    0.0442084    0.0443759    0.0696533    0.0486037
   30   -0.0448028   -0.0450542    0.0020722   -0.0301156   -0.0574509
   31   -0.0441662   -0.0257989    0.0238276   -0.0980779   -0.0340429
   32   -0.0441662    0.0257989    0.0238276    0.0980779    0.0340429
   33   -0.0443886    0.0294738    0.0181332   -0.0898845    0.0544653
   34   -0.0443886   -0.0294738    0.0181332    0.0898845   -0.0544653
   35    0.0497008   -0.1130637    0.1176443   -0.0003236    0.0507444
   36   -0.1287757    0.2987026   -0.3144731    0.0013943   -0.1362161
   37    0.0000000    0.0000000    0.0000000    0.0000000    0.0000000
   38    0.0273923   -0.0065519   -0.0583383   -0.0166663   -0.1279092
   39   -0.0141791    0.0376426   -0.0488143   -0.0196716   -0.0407544
   40    0.0497008    0.1130637    0.1176443    0.0003236   -0.0507444
   41   -0.1287757   -0.2987026   -0.3144731   -0.0013943    0.1362161
   42    0.0000000    0.0000000    0.0000000    0.0000000    0.0000000
   43   -0.0273923   -0.0065519    0.0583383   -0.0166663   -0.1279092
   44    0.0141791    0.0376426    0.0488143   -0.0196716   -0.0407544
   45   -0.0253747    0.0666311   -0.0761395    0.0090364   -0.0378201
   46   -0.0253747   -0.0666311   -0.0761395   -0.0090364    0.0378201
   47    0.0251806   -0.0814035    0.1163449    0.0127100    0.1067392
   48   -0.0648485    0.2136423   -0.3100795   -0.0338204   -0.2922298
   49    0.0000000    0.0000000    0.0000000    0.0000000    0.0000000
   50    0.0203420   -0.0509780    0.0553816    0.0058366    0.0209419
   51    0.0134039   -0.0394584    0.0509558   -0.0008042    0.0352404
   52    0.0251806    0.0814035    0.1163449   -0.0127100   -0.1067392
   53   -0.0648485   -0.2136423   -0.3100795    0.0338204    0.2922298
   54    0.0000000    0.0000000    0.0000000    0.0000000    0.0000000
   55   -0.0203420   -0.0509780   -0.0553816    0.0058366    0.0209419
   56   -0.0134039   -0.0394584   -0.0509558   -0.0008042    0.0352404
   57   -0.0140080    0.0489078   -0.0743529   -0.0126861   -0.0768822
   58   -0.0140080   -0.0489078   -0.0743529    0.0126861    0.0768822
   59   -0.0108374    0.0444626   -0.0747989   -0.0078079   -0.0881087
   60   -0.0108374   -0.0444626   -0.0747989    0.0078079    0.0881087

 Ene    -1.0902901   -1.0202574   -0.9749208   -0.9503044   -0.9096384
 Sym            Ag           Bu           Ag           Bu           Bu
 Occ             2            2            2            2            2


                16           17           18           19           20

    1    0.0723283    0.0504096    0.0112948    0.0563612    0.0286909
    2   -0.2129501   -0.1512689   -0.0325093   -0.1708640   -0.0958031
    3    0.0000000    0.0000000    0.0000000    0.0000000    0.0000000
    4    0.0743330    0.0624808   -0.1387814   -0.1349715    0.1365829
    5   -0.1135300    0.1902336    0.0499613   -0.0197086   -0.0490593
    6    0.0723283    0.0504096   -0.0112948    0.0563612    0.0286909
    7   -0.2129501   -0.1512689    0.0325093   -0.1708640   -0.0958031
    8    0.0000000    0.0000000    0.0000000    0.0000000    0.0000000
    9   -0.0743330   -0.0624808   -0.1387814    0.1349715   -0.1365829
   10    0.1135300   -0.1902336    0.0499613    0.0197086    0.0490593
   11   -0.0006998   -0.1090520    0.0482711   -0.0073887    0.0117003
   12    0.0004417    0.3248770   -0.1479417    0.0254646   -0.0448088
   13    0.0000000    0.0000000    0.0000000    0.0000000    0.0000000
   14    0.1589744   -0.0426011    0.0088244    0.0953182    0.1376644
   15    0.0352168    0.0745322    0.0050285    0.1747250   -0.1425135
   16   -0.0006998   -0.1090520   -0.0482711   -0.0073887    0.0117003
   17    0.0004417    0.3248770    0.1479417    0.0254646   -0.0448088
   18    0.0000000    0.0000000    0.0000000    0.0000000    0.0000000
   19   -0.1589744    0.0426011    0.0088244   -0.0953182   -0.1376644
   20   -0.0352168   -0.0745322    0.0050285   -0.1747250    0.1425135
   21   -0.0793397    0.0602793   -0.0302849   -0.0499096   -0.0168755
   22    0.2294105   -0.1808602    0.0923597    0.1582315    0.0480066
   23    0.0000000    0.0000000    0.0000000    0.0000000    0.0000000
   24   -0.0306053   -0.1701052    0.0765176    0.0225540   -0.1382866
   25    0.0679981    0.0822766   -0.0337209    0.1947121   -0.0933470
   26   -0.0793397    0.0602793    0.0302849   -0.0499096   -0.0168755
   27    0.2294105   -0.1808602   -0.0923597    0.1582315    0.0480066
   28    0.0000000    0.0000000    0.0000000    0.0000000    0.0000000
   29    0.0306053    0.1701052    0.0765176   -0.0225540    0.1382866
   30   -0.0679981   -0.0822766   -0.0337209   -0.1947121    0.0933470
   31   -0.0137800    0.1736537   -0.0518543    0.0988221   -0.1469362
   32   -0.0137800    0.1736537    0.0518543    0.0988221   -0.1469362
   33    0.1062370   -0.0927928    0.0558862    0.1688423   -0.1036355
   34    0.1062370   -0.0927928   -0.0558862    0.1688423   -0.1036355
   35    0.0525574    0.0069597    0.0965354   -0.0606605   -0.0349843
   36   -0.1595207   -0.0229365   -0.2975210    0.1873780    0.1104259
   37    0.0000000    0.0000000    0.0000000    0.0000000    0.0000000
   38    0.1324801    0.0743908    0.0448490    0.0104708    0.1837083
   39    0.0771751   -0.0419304    0.1128845   -0.0711952   -0.1091772
   40    0.0525574    0.0069597   -0.0965354   -0.0606605   -0.0349843
   41   -0.1595207   -0.0229365    0.2975210    0.1873780    0.1104259
   42    0.0000000    0.0000000    0.0000000    0.0000000    0.0000000
   43   -0.1324801   -0.0743908    0.0448490   -0.0104708   -0.1837083
   44   -0.0771751    0.0419304    0.1128845    0.0711952    0.1091772
   45   -0.0811013    0.0315322   -0.1748357    0.1251976    0.1527269
   46   -0.0811013    0.0315322    0.1748357    0.1251976    0.1527269
   47   -0.0825043   -0.0346066   -0.0803171    0.0507775    0.0141449
   48    0.2399613    0.1037023    0.2482173   -0.1614653   -0.0536846
   49    0.0000000    0.0000000    0.0000000    0.0000000    0.0000000
   50    0.0379265    0.0442746    0.0919007   -0.0815752    0.0133450
   51    0.0337318   -0.0116333    0.1189577   -0.0868528   -0.2046106
   52   -0.0825043   -0.0346066    0.0803171    0.0507775    0.0141449
   53    0.2399613    0.1037023   -0.2482173   -0.1614653   -0.0536846
   54    0.0000000    0.0000000    0.0000000    0.0000000    0.0000000
   55   -0.0379265   -0.0442746    0.0919007    0.0815752   -0.0133450
   56   -0.0337318    0.0116333    0.1189577    0.0868528    0.2046106
   57    0.1048546    0.0224658    0.1638870   -0.1061860   -0.1788281
   58    0.1048546    0.0224658   -0.1638870   -0.1061860   -0.1788281
   59    0.1014734    0.0653107    0.1308670   -0.1001475    0.0292453
   60    0.1014734    0.0653107   -0.1308670   -0.1001475    0.0292453

 Ene    -0.7998727   -0.7628105   -0.7276326   -0.6967586   -0.6280201
 Sym            Ag           Ag           Bu           Ag           Ag
 Occ             2            2            2            2            2


                21           22           23           24           25

    1    0.0257173    0.0659688    0.0196717    0.0199093    0.0025681
    2   -0.0887796   -0.2234873   -0.0666288   -0.0651753   -0.0086251
    3    0.0000000    0.0000000    0.0000000    0.0000000    0.0000000
    4    0.1321240   -0.0302682   -0.1402548    0.0081845   -0.0734244
    5    0.1183904   -0.1005649    0.2213855   -0.0136245   -0.0838968
    6   -0.0257173   -0.0659688   -0.0196717    0.0199093   -0.0025681
    7    0.0887796    0.2234873    0.0666288   -0.0651753    0.0086251
    8    0.0000000    0.0000000    0.0000000    0.0000000    0.0000000
    9    0.1321240   -0.0302682   -0.1402548   -0.0081845   -0.0734244
   10    0.1183904   -0.1005649    0.2213855    0.0136245   -0.0838968
   11   -0.0232906   -0.0450657    0.0018054   -0.0231251    0.0256958
   12    0.0784795    0.1539208   -0.0034852    0.0768988   -0.0824930
   13    0.0000000    0.0000000    0.0000000    0.0000000    0.0000000
   14   -0.1819523    0.0670667   -0.1176068    0.0807698   -0.1551404
   15    0.0278103    0.2211007   -0.0030112   -0.0060089    0.2986625
   16    0.0232906    0.0450657   -0.0018054   -0.0231251   -0.0256958
   17   -0.0784795   -0.1539208    0.0034852    0.0768988    0.0824930
   18    0.0000000    0.0000000    0.0000000    0.0000000    0.0000000
   19   -0.1819523    0.0670667   -0.1176068   -0.0807698   -0.1551404
   20    0.0278103    0.2211007   -0.0030112    0.0060089    0.2986625
   21    0.0417734    0.0408000   -0.0113783    0.0161879    0.0184718
   22   -0.1365068   -0.1409362    0.0359307   -0.0594294   -0.0593232
   23    0.0000000    0.0000000    0.0000000    0.0000000    0.0000000
   24    0.0936159   -0.1789038    0.0626434   -0.1341599    0.2320226
   25   -0.1032821   -0.1163103   -0.2485836   -0.0395767    0.1801299
   26   -0.0417734   -0.0408000    0.0113783    0.0161879   -0.0184718
   27    0.1365068    0.1409362   -0.0359307   -0.0594294    0.0593232
   28    0.0000000    0.0000000    0.0000000    0.0000000    0.0000000
   29    0.0936159   -0.1789038    0.0626434    0.1341599    0.2320226
   30   -0.1032821   -0.1163103   -0.2485836    0.0395767    0.1801299
   31    0.1114202    0.2257349    0.0313242    0.0034848    0.2585058
   32   -0.1114202   -0.2257349   -0.0313242    0.0034848   -0.2585058
   33   -0.0714681   -0.2349199   -0.1289967   -0.1166041    0.2236196
   34    0.0714681    0.2349199    0.1289967   -0.1166041   -0.2236196
   35   -0.0140879    0.0156166    0.0024433   -0.0255341   -0.0015800
   36    0.0440682   -0.0440186   -0.0148022    0.0745406    0.0036133
   37    0.0000000    0.0000000    0.0000000    0.0000000    0.0000000
   38   -0.1041237   -0.1188489    0.1787300    0.0851802    0.0592505
   39    0.2145615   -0.0476963    0.0477115    0.2493518   -0.0234156
   40    0.0140879   -0.0156166   -0.0024433   -0.0255341    0.0015800
   41   -0.0440682    0.0440186    0.0148022    0.0745406   -0.0036133
   42    0.0000000    0.0000000    0.0000000    0.0000000    0.0000000
   43   -0.1041237   -0.1188489    0.1787300   -0.0851802    0.0592505
   44    0.2145615   -0.0476963    0.0477115   -0.2493518   -0.0234156
   45   -0.1653465   -0.0174482   -0.0142922   -0.1513364    0.0223943
   46    0.1653465    0.0174482    0.0142922   -0.1513364   -0.0223943
   47    0.0066202   -0.0116570   -0.0011886   -0.0036491    0.0043434
   48   -0.0248578    0.0474130   -0.0061136   -0.0009265   -0.0168611
   49    0.0000000    0.0000000    0.0000000    0.0000000    0.0000000
   50   -0.2021612    0.1440566    0.0366501   -0.3361679    0.0143630
   51    0.0898652    0.0671546   -0.2527265   -0.0166303   -0.0711653
   52   -0.0066202    0.0116570    0.0011886   -0.0036491   -0.0043434
   53    0.0248578   -0.0474130    0.0061136   -0.0009265    0.0168611
   54    0.0000000    0.0000000    0.0000000    0.0000000    0.0000000
   55   -0.2021612    0.1440566    0.0366501    0.3361679    0.0143630
   56    0.0898652    0.0671546   -0.2527265    0.0166303   -0.0711653
   57    0.0802363    0.0388839   -0.2228150    0.0257871   -0.0565188
   58   -0.0802363   -0.0388839    0.2228150    0.0257871    0.0565188
   59   -0.1790605    0.1181939    0.0902284   -0.2683794    0.0222587
   60    0.1790605   -0.1181939   -0.0902284   -0.2683794   -0.0222587

 Ene    -0.6056481   -0.5729297   -0.5535676   -0.5531415   -0.5253365
 Sym            Bu           Bu           Bu           Ag           Bu
 Occ             2            2            2            2            2


                26           27           28           29           30

    1    0.0026053    0.0232792    0.0000000    0.0098247    0.0020914
    2   -0.0095284   -0.0835213    0.0000000   -0.0430235   -0.0163280
    3    0.0000000    0.0000000    0.3314942    0.0000000    0.0000000
    4    0.1761702   -0.0045214    0.0000000    0.2441429    0.2595119
    5    0.1770156    0.0838907    0.0000000   -0.0927134    0.1647422
    6   -0.0026053    0.0232792    0.0000000   -0.0098247    0.0020914
    7    0.0095284   -0.0835213    0.0000000    0.0430235   -0.0163280
    8    0.0000000    0.0000000    0.3314942    0.0000000    0.0000000
    9    0.1761702    0.0045214    0.0000000    0.2441429   -0.2595119
   10    0.1770156   -0.0838907    0.0000000   -0.0927134   -0.1647422
   11   -0.0170302    0.0042262    0.0000000   -0.0074365   -0.0040652
   12    0.0611278   -0.0214833    0.0000000    0.0234841    0.0132261
   13    0.0000000    0.0000000    0.3028327    0.0000000    0.0000000
   14   -0.2224912    0.1325929    0.0000000    0.0350843   -0.2675089
   15   -0.1123566   -0.1259552    0.0000000   -0.0664307   -0.1600929
   16    0.0170302    0.0042262    0.0000000    0.0074365   -0.0040652
   17   -0.0611278   -0.0214833    0.0000000   -0.0234841    0.0132261
   18    0.0000000    0.0000000    0.3028327    0.0000000    0.0000000
   19   -0.2224912   -0.1325929    0.0000000    0.0350843    0.2675089
   20   -0.1123566    0.1259552    0.0000000   -0.0664307    0.1600929
   21    0.0060529   -0.0071279    0.0000000    0.0137774    0.0096592
   22   -0.0170163    0.0241484    0.0000000   -0.0475325   -0.0284070
   23    0.0000000    0.0000000    0.3018694    0.0000000    0.0000000
   24    0.1852712   -0.1369994    0.0000000   -0.0112957    0.2229613
   25   -0.0770588    0.0616451    0.0000000    0.1440612    0.1185038
   26   -0.0060529   -0.0071279    0.0000000   -0.0137774    0.0096592
   27    0.0170163    0.0241484    0.0000000    0.0475325   -0.0284070
   28    0.0000000    0.0000000    0.3018694    0.0000000    0.0000000
   29    0.1852712    0.1369994    0.0000000   -0.0112957   -0.2229613
   30   -0.0770588   -0.0616451    0.0000000    0.1440612   -0.1185038
   31   -0.0025188   -0.1568327    0.0000000   -0.0488672   -0.0527103
   32    0.0025188   -0.1568327    0.0000000    0.0488672   -0.0527103
   33    0.0399994   -0.0000706    0.0000000    0.0594236    0.2538721
   34   -0.0399994   -0.0000706    0.0000000   -0.0594236    0.2538721
   35    0.0008556   -0.0150922    0.0000000   -0.0035092    0.0175233
   36    0.0123017    0.0631072    0.0000000    0.0112423   -0.0738954
   37    0.0000000    0.0000000    0.1655807    0.0000000    0.0000000
   38   -0.1878095   -0.0792328    0.0000000   -0.1801827    0.2330909
   39   -0.2027985   -0.2097799    0.0000000    0.2137107   -0.0248347
   40   -0.0008556   -0.0150922    0.0000000    0.0035092    0.0175233
   41   -0.0123017    0.0631072    0.0000000   -0.0112423   -0.0738954
   42    0.0000000    0.0000000    0.1655807    0.0000000    0.0000000
   43   -0.1878095    0.0792328    0.0000000   -0.1801827   -0.2330909
   44   -0.2027985    0.2097799    0.0000000    0.2137107    0.0248347
   45    0.1484020    0.2029971    0.0000000   -0.2572659    0.0464403
   46   -0.1484020    0.2029971    0.0000000    0.2572659    0.0464403
   47    0.0189124    0.0098871    0.0000000   -0.0026821   -0.0087251
   48   -0.0520342   -0.0260229    0.0000000    0.0122929    0.0234796
   49    0.0000000    0.0000000    0.0991565    0.0000000    0.0000000
   50    0.2383408   -0.0516984    0.0000000    0.1422341   -0.1379433
   51    0.1269655    0.2959098    0.0000000   -0.1938706   -0.0372864
   52   -0.0189124    0.0098871    0.0000000    0.0026821   -0.0087251
   53    0.0520342   -0.0260229    0.0000000   -0.0122929    0.0234796
   54    0.0000000    0.0000000    0.0991565    0.0000000    0.0000000
   55    0.2383408    0.0516984    0.0000000    0.1422341    0.1379433
   56    0.1269655   -0.2959098    0.0000000   -0.1938706    0.0372864
   57    0.0584283    0.2732054    0.0000000   -0.2262761    0.0321291
   58   -0.0584283    0.2732054    0.0000000    0.2262761    0.0321291
   59    0.1535558   -0.1458651    0.0000000    0.2119339   -0.1214624
   60   -0.1535558   -0.1458651    0.0000000   -0.2119339   -0.1214624

 Ene    -0.4966532   -0.4925173   -0.4636749   -0.4464291   -0.4216346
 Sym            Bu           Ag           Au           Bu           Ag
 Occ             2            2            2            2            2


                31           32           33           34           35

    1    0.0062841    0.0000000    0.0000000    0.0000000    0.0000000
    2   -0.0316479    0.0000000    0.0000000    0.0000000    0.0000000
    3    0.0000000    0.3186218    0.0396692    0.0022486    0.4180265
    4    0.1309733    0.0000000    0.0000000    0.0000000    0.0000000
    5   -0.2782822    0.0000000    0.0000000    0.0000000    0.0000000
    6    0.0062841    0.0000000    0.0000000    0.0000000    0.0000000
    7   -0.0316479    0.0000000    0.0000000    0.0000000    0.0000000
    8    0.0000000   -0.3186218    0.0396692   -0.0022486   -0.4180265
    9   -0.1309733    0.0000000    0.0000000    0.0000000    0.0000000
   10    0.2782822    0.0000000    0.0000000    0.0000000    0.0000000
   11    0.0115000    0.0000000    0.0000000    0.0000000    0.0000000
   12   -0.0351377    0.0000000    0.0000000    0.0000000    0.0000000
   13    0.0000000    0.1242747    0.1645075   -0.4598184    0.2319021
   14   -0.0861369    0.0000000    0.0000000    0.0000000    0.0000000
   15    0.2099942    0.0000000    0.0000000    0.0000000    0.0000000
   16    0.0115000    0.0000000    0.0000000    0.0000000    0.0000000
   17   -0.0351377    0.0000000    0.0000000    0.0000000    0.0000000
   18    0.0000000   -0.1242747    0.1645075    0.4598184   -0.2319021
   19    0.0861369    0.0000000    0.0000000    0.0000000    0.0000000
   20   -0.2099942    0.0000000    0.0000000    0.0000000    0.0000000
   21   -0.0066605    0.0000000    0.0000000    0.0000000    0.0000000
   22    0.0202828    0.0000000    0.0000000    0.0000000    0.0000000
   23    0.0000000   -0.1193841    0.1649324   -0.4614910   -0.2320208
   24    0.1248108    0.0000000    0.0000000    0.0000000    0.0000000
   25   -0.2684931    0.0000000    0.0000000    0.0000000    0.0000000
   26   -0.0066605    0.0000000    0.0000000    0.0000000    0.0000000
   27    0.0202828    0.0000000    0.0000000    0.0000000    0.0000000
   28    0.0000000    0.1193841    0.1649324    0.4614910    0.2320208
   29   -0.1248108    0.0000000    0.0000000    0.0000000    0.0000000
   30    0.2684931    0.0000000    0.0000000    0.0000000    0.0000000
   31    0.2516489    0.0000000    0.0000000    0.0000000    0.0000000
   32    0.2516489    0.0000000    0.0000000    0.0000000    0.0000000
   33   -0.1232269    0.0000000    0.0000000    0.0000000    0.0000000
   34   -0.1232269    0.0000000    0.0000000    0.0000000    0.0000000
   35    0.0130828    0.0000000    0.0000000    0.0000000    0.0000000
   36   -0.0472892    0.0000000    0.0000000    0.0000000    0.0000000
   37    0.0000000   -0.3832336   -0.4151717   -0.0001916    0.2183096
   38    0.1438943    0.0000000    0.0000000    0.0000000    0.0000000
   39   -0.1405098    0.0000000    0.0000000    0.0000000    0.0000000
   40    0.0130828    0.0000000    0.0000000    0.0000000    0.0000000
   41   -0.0472892    0.0000000    0.0000000    0.0000000    0.0000000
   42    0.0000000    0.3832336   -0.4151717    0.0001916   -0.2183096
   43   -0.1438943    0.0000000    0.0000000    0.0000000    0.0000000
   44    0.1405098    0.0000000    0.0000000    0.0000000    0.0000000
   45    0.1837521    0.0000000    0.0000000    0.0000000    0.0000000
   46    0.1837521    0.0000000    0.0000000    0.0000000    0.0000000
   47    0.0030283    0.0000000    0.0000000    0.0000000    0.0000000
   48   -0.0138024    0.0000000    0.0000000    0.0000000    0.0000000
   49    0.0000000   -0.3067106   -0.4262976   -0.0026264    0.3581464
   50   -0.0561642    0.0000000    0.0000000    0.0000000    0.0000000
   51    0.1009993    0.0000000    0.0000000    0.0000000    0.0000000
   52    0.0030283    0.0000000    0.0000000    0.0000000    0.0000000
   53   -0.0138024    0.0000000    0.0000000    0.0000000    0.0000000
   54    0.0000000    0.3067106   -0.4262976    0.0026264   -0.3581464
   55    0.0561642    0.0000000    0.0000000    0.0000000    0.0000000
   56   -0.1009993    0.0000000    0.0000000    0.0000000    0.0000000
   57    0.1172696    0.0000000    0.0000000    0.0000000    0.0000000
   58    0.1172696    0.0000000    0.0000000    0.0000000    0.0000000
   59   -0.1023473    0.0000000    0.0000000    0.0000000    0.0000000
   60   -0.1023473    0.0000000    0.0000000    0.0000000    0.0000000

 Ene    -0.4156073   -0.3769222   -0.3151041   -0.2783149   -0.2221545
 Sym            Ag           Bg           Au           Bg           Bg
 Occ             2            2            2            2            2


                36           37           38           39           40

    1    0.0000000    0.0000000    0.0000000    0.0000000    0.0000000
    2    0.0000000    0.0000000    0.0000000    0.0000000    0.0000000
    3    0.4715232    0.0222982    0.0378979    0.4735090    0.5387173
    4    0.0000000    0.0000000    0.0000000    0.0000000    0.0000000
    5    0.0000000    0.0000000    0.0000000    0.0000000    0.0000000
    6    0.0000000    0.0000000    0.0000000    0.0000000    0.0000000
    7    0.0000000    0.0000000    0.0000000    0.0000000    0.0000000
    8    0.4715232    0.0222982   -0.0378979    0.4735090   -0.5387173
    9    0.0000000    0.0000000    0.0000000    0.0000000    0.0000000
   10    0.0000000    0.0000000    0.0000000    0.0000000    0.0000000
   11    0.0000000    0.0000000    0.0000000    0.0000000    0.0000000
   12    0.0000000    0.0000000    0.0000000    0.0000000    0.0000000
   13   -0.2499595   -0.5785610   -0.2255254   -0.1618686   -0.4694860
   14    0.0000000    0.0000000    0.0000000    0.0000000    0.0000000
   15    0.0000000    0.0000000    0.0000000    0.0000000    0.0000000
   16    0.0000000    0.0000000    0.0000000    0.0000000    0.0000000
   17    0.0000000    0.0000000    0.0000000    0.0000000    0.0000000
   18   -0.2499595   -0.5785610    0.2255254   -0.1618686    0.4694860
   19    0.0000000    0.0000000    0.0000000    0.0000000    0.0000000
   20    0.0000000    0.0000000    0.0000000    0.0000000    0.0000000
   21    0.0000000    0.0000000    0.0000000    0.0000000    0.0000000
   22    0.0000000    0.0000000    0.0000000    0.0000000    0.0000000
   23   -0.2785671    0.5581029    0.2204163   -0.1867866    0.4714916
   24    0.0000000    0.0000000    0.0000000    0.0000000    0.0000000
   25    0.0000000    0.0000000    0.0000000    0.0000000    0.0000000
   26    0.0000000    0.0000000    0.0000000    0.0000000    0.0000000
   27    0.0000000    0.0000000    0.0000000    0.0000000    0.0000000
   28   -0.2785671    0.5581029   -0.2204163   -0.1867866   -0.4714916
   29    0.0000000    0.0000000    0.0000000    0.0000000    0.0000000
   30    0.0000000    0.0000000    0.0000000    0.0000000    0.0000000
   31    0.0000000    0.0000000    0.0000000    0.0000000    0.0000000
   32    0.0000000    0.0000000    0.0000000    0.0000000    0.0000000
   33    0.0000000    0.0000000    0.0000000    0.0000000    0.0000000
   34    0.0000000    0.0000000    0.0000000    0.0000000    0.0000000
   35    0.0000000    0.0000000    0.0000000    0.0000000    0.0000000
   36    0.0000000    0.0000000    0.0000000    0.0000000    0.0000000
   37    0.2469621   -0.0033003   -0.5244021   -0.5350583    0.2787307
   38    0.0000000    0.0000000    0.0000000    0.0000000    0.0000000
   39    0.0000000    0.0000000    0.0000000    0.0000000    0.0000000
   40    0.0000000    0.0000000    0.0000000    0.0000000    0.0000000
   41    0.0000000    0.0000000    0.0000000    0.0000000    0.0000000
   42    0.2469621   -0.0033003    0.5244021   -0.5350583   -0.2787307
   43    0.0000000    0.0000000    0.0000000    0.0000000    0.0000000
   44    0.0000000    0.0000000    0.0000000    0.0000000    0.0000000
   45    0.0000000    0.0000000    0.0000000    0.0000000    0.0000000
   46    0.0000000    0.0000000    0.0000000    0.0000000    0.0000000
   47    0.0000000    0.0000000    0.0000000    0.0000000    0.0000000
   48    0.0000000    0.0000000    0.0000000    0.0000000    0.0000000
   49   -0.4149315   -0.0040810    0.5312405    0.4073410   -0.1584612
   50    0.0000000    0.0000000    0.0000000    0.0000000    0.0000000
   51    0.0000000    0.0000000    0.0000000    0.0000000    0.0000000
   52    0.0000000    0.0000000    0.0000000    0.0000000    0.0000000
   53    0.0000000    0.0000000    0.0000000    0.0000000    0.0000000
   54   -0.4149315   -0.0040810   -0.5312405    0.4073410    0.1584612
   55    0.0000000    0.0000000    0.0000000    0.0000000    0.0000000
   56    0.0000000    0.0000000    0.0000000    0.0000000    0.0000000
   57    0.0000000    0.0000000    0.0000000    0.0000000    0.0000000
   58    0.0000000    0.0000000    0.0000000    0.0000000    0.0000000
   59    0.0000000    0.0000000    0.0000000    0.0000000    0.0000000
   60    0.0000000    0.0000000    0.0000000    0.0000000    0.0000000

 Ene     0.1990637    0.2685856    0.3088939    0.3971509    0.5218466
 Sym            Au           Au           Bg           Au           Bg
 Occ             0            0            0            0            0


                41           42           43           44           45

    1    0.0634569    0.0295759    0.0201280    0.0552009    0.0454456
    2   -0.3800016   -0.1768271   -0.1234157   -0.3250714   -0.2786239
    3    0.0000000    0.0000000    0.0000000    0.0000000    0.0000000
    4    0.2684260    0.1130784   -0.0775194    0.4532052    0.1493705
    5   -0.0871891   -0.2830538   -0.1133529    0.0830082    0.2480772
    6    0.0634569   -0.0295759    0.0201280   -0.0552009    0.0454456
    7   -0.3800016    0.1768271   -0.1234157    0.3250714   -0.2786239
    8    0.0000000    0.0000000    0.0000000    0.0000000    0.0000000
    9   -0.2684260    0.1130784    0.0775194    0.4532052   -0.1493705
   10    0.0871891   -0.2830538    0.1133529    0.0830082   -0.2480772
   11    0.0291464   -0.0043280   -0.0640909   -0.0232870    0.0735183
   12   -0.1829275    0.0204334    0.3979301    0.1448952   -0.4573619
   13    0.0000000    0.0000000    0.0000000    0.0000000    0.0000000
   14    0.0667077    0.0030501   -0.1132754    0.2199619   -0.1464994
   15   -0.3088968   -0.3555710    0.0038683    0.1179844   -0.0608570
   16    0.0291464    0.0043280   -0.0640909    0.0232870    0.0735183
   17   -0.1829275   -0.0204334    0.3979301   -0.1448952   -0.4573619
   18    0.0000000    0.0000000    0.0000000    0.0000000    0.0000000
   19   -0.0667077    0.0030501    0.1132754    0.2199619    0.1464994
   20    0.3088968   -0.3555710   -0.0038683    0.1179844    0.0608570
   21    0.0484020    0.0143872   -0.0147578    0.0009643   -0.0939725
   22   -0.2983406   -0.0892644    0.0969719    0.0007443    0.5828006
   23    0.0000000    0.0000000    0.0000000    0.0000000    0.0000000
   24   -0.1350402   -0.0052443    0.2000813    0.3267902   -0.0233494
   25   -0.2085675   -0.2914018    0.1716170    0.2621398   -0.0247779
   26    0.0484020   -0.0143872   -0.0147578   -0.0009643   -0.0939725
   27   -0.2983406    0.0892644    0.0969719   -0.0007443    0.5828006
   28    0.0000000    0.0000000    0.0000000    0.0000000    0.0000000
   29    0.1350402   -0.0052443   -0.2000813    0.3267902    0.0233494
   30    0.2085675   -0.2914018   -0.1716170    0.2621398    0.0247779
   31    0.4209647    0.3189218   -0.2865179   -0.1012114    0.2436450
   32    0.4209647   -0.3189218   -0.2865179    0.1012114    0.2436450
   33    0.4348346    0.2765774   -0.2745469   -0.4088154   -0.2061336
   34    0.4348346   -0.2765774   -0.2745469    0.4088154   -0.2061336
   35   -0.0482602   -0.0137222    0.0645726    0.0893122   -0.0163102
   36    0.2767176    0.0834950   -0.3945260   -0.5297673    0.1080620
   37    0.0000000    0.0000000    0.0000000    0.0000000    0.0000000
   38   -0.3250227    0.2006398   -0.0755616    0.3189172   -0.2349986
   39    0.2383788   -0.3499877    0.3503920   -0.0763853   -0.1253221
   40   -0.0482602    0.0137222    0.0645726   -0.0893122   -0.0163102
   41    0.2767176   -0.0834950   -0.3945260    0.5297673    0.1080620
   42    0.0000000    0.0000000    0.0000000    0.0000000    0.0000000
   43    0.3250227    0.2006398    0.0755616    0.3189172    0.2349986
   44   -0.2383788   -0.3499877   -0.3503920   -0.0763853    0.1253221
   45    0.1403377   -0.4487165    0.5895799    0.1307541   -0.1263820
   46    0.1403377    0.4487165    0.5895799   -0.1307541   -0.1263820
   47    0.0411314   -0.0013534   -0.0177402   -0.0563963   -0.1075815
   48   -0.2426696    0.0135793    0.0987131    0.3376801    0.6836190
   49    0.0000000    0.0000000    0.0000000    0.0000000    0.0000000
   50   -0.1508079    0.1735099   -0.2454373    0.1666853    0.0727695
   51    0.1377169   -0.3011902    0.2984981   -0.1111398    0.2495188
   52    0.0411314    0.0013534   -0.0177402    0.0563963   -0.1075815
   53   -0.2426696   -0.0135793    0.0987131   -0.3376801    0.6836190
   54    0.0000000    0.0000000    0.0000000    0.0000000    0.0000000
   55    0.1508079    0.1735099    0.2454373    0.1666853   -0.0727695
   56   -0.1377169   -0.3011902   -0.2984981   -0.1111398   -0.2495188
   57   -0.0987117    0.3215128   -0.3813407    0.0020284   -0.5418833
   58   -0.0987117   -0.3215128   -0.3813407   -0.0020284   -0.5418833
   59    0.3538166   -0.2790634    0.2620566   -0.3895264   -0.3307862
   60    0.3538166    0.2790634    0.2620566    0.3895264   -0.3307862

 Ene     0.5650911    0.5756243    0.6216328    0.6258755    0.6583081
 Sym            Ag           Bu           Ag           Bu           Ag
 Occ             0            0            0            0            0


                46           47           48           49           50

    1    0.0826683    0.0177479    0.1294561    0.0603185    0.0402029
    2   -0.4923452   -0.1140871   -0.7966215   -0.3632370   -0.2541473
    3    0.0000000    0.0000000    0.0000000    0.0000000    0.0000000
    4    0.0317117   -0.2580960   -0.0135704   -0.1140734   -0.0465143
    5    0.1165429    0.1053075    0.0437490   -0.1399260   -0.3445771
    6   -0.0826683   -0.0177479    0.1294561   -0.0603185    0.0402029
    7    0.4923452    0.1140871   -0.7966215    0.3632370   -0.2541473
    8    0.0000000    0.0000000    0.0000000    0.0000000    0.0000000
    9    0.0317117   -0.2580960    0.0135704   -0.1140734    0.0465143
   10    0.1165429    0.1053075   -0.0437490   -0.1399260    0.3445771
   11   -0.0762430   -0.0573573   -0.0700278   -0.0581451   -0.1135277
   12    0.4614747    0.3609968    0.4441633    0.3571220    0.7277593
   13    0.0000000    0.0000000    0.0000000    0.0000000    0.0000000
   14    0.0273934   -0.3208211   -0.2960821   -0.1217736    0.1076318
   15    0.1129086    0.3205847    0.0119946   -0.1480969   -0.0761174
   16    0.0762430    0.0573573   -0.0700278    0.0581451   -0.1135277
   17   -0.4614747   -0.3609968    0.4441633   -0.3571220    0.7277593
   18    0.0000000    0.0000000    0.0000000    0.0000000    0.0000000
   19    0.0273934   -0.3208211    0.2960821   -0.1217736   -0.1076318
   20    0.1129086    0.3205847   -0.0119946   -0.1480969    0.0761174
   21    0.0996038    0.0045472   -0.0740332    0.0682335    0.0954616
   22   -0.6111234   -0.0162587    0.4692552   -0.4251844   -0.6144242
   23    0.0000000    0.0000000    0.0000000    0.0000000    0.0000000
   24   -0.1111508   -0.1108888    0.2405055   -0.1486405    0.1802426
   25    0.0089799    0.2039381   -0.2255708   -0.1822629   -0.1586852
   26   -0.0996038   -0.0045472   -0.0740332   -0.0682335    0.0954616
   27    0.6111234    0.0162587    0.4692552    0.4251844   -0.6144242
   28    0.0000000    0.0000000    0.0000000    0.0000000    0.0000000
   29   -0.1111508   -0.1108888   -0.2405055   -0.1486405   -0.1802426
   30    0.0089799    0.2039381    0.2255708   -0.1822629    0.1586852
   31   -0.3383048   -0.5981830   -0.2954426   -0.0774551   -0.2436460
   32    0.3383048    0.5981830   -0.2954426    0.0774551   -0.2436460
   33    0.3275676   -0.0496275   -0.2202073    0.4882233    0.3397411
   34   -0.3275676    0.0496275   -0.2202073   -0.4882233    0.3397411
   35    0.0407090   -0.0734020   -0.0930722    0.0700289   -0.0328445
   36   -0.2600491    0.4672132    0.5705674   -0.4305559    0.2307226
   37    0.0000000    0.0000000    0.0000000    0.0000000    0.0000000
   38    0.1902202   -0.0608578   -0.0977375   -0.1239556   -0.0744602
   39    0.1494373   -0.2242342   -0.1153475    0.0587704   -0.0376107
   40   -0.0407090    0.0734020   -0.0930722   -0.0700289   -0.0328445
   41    0.2600491   -0.4672132    0.5705674    0.4305559    0.2307226
   42    0.0000000    0.0000000    0.0000000    0.0000000    0.0000000
   43    0.1902202   -0.0608578    0.0977375   -0.1239556    0.0744602
   44    0.1494373   -0.2242342    0.1153475    0.0587704    0.0376107
   45    0.1956962   -0.4379899   -0.3648106    0.2967139   -0.0872114
   46   -0.1956962    0.4379899   -0.3648106   -0.2967139   -0.0872114
   47    0.0834757   -0.0209112    0.0633621   -0.1104184   -0.0609845
   48   -0.5334537    0.1418498   -0.3904004    0.7022700    0.3975037
   49    0.0000000    0.0000000    0.0000000    0.0000000    0.0000000
   50   -0.1180690    0.2911668   -0.0654188    0.0186295    0.3719450
   51   -0.2637933   -0.0301667    0.0289574    0.1410097    0.1365277
   52   -0.0834757    0.0209112    0.0633621    0.1104184   -0.0609845
   53    0.5334537   -0.1418498   -0.3904004   -0.7022700    0.3975037
   54    0.0000000    0.0000000    0.0000000    0.0000000    0.0000000
   55   -0.1180690    0.2911668    0.0654188    0.0186295   -0.3719450
   56   -0.2637933   -0.0301667   -0.0289574    0.1410097   -0.1365277
   57    0.4604913    0.0276277    0.1732807   -0.5148647   -0.2860003
   58   -0.4604913   -0.0276277    0.1732807    0.5148647   -0.2860003
   59    0.2924970   -0.3288696    0.2674204   -0.3163235   -0.4568292
   60   -0.2924970    0.3288696    0.2674204    0.3163235   -0.4568292

 Ene     0.6594662    0.6772556    0.6942617    0.7067790    0.7402122
 Sym            Bu           Bu           Ag           Bu           Ag
 Occ             0            0            0            0            0


                51           52           53           54           55

    1    0.0683027    0.0027163    0.0004561    0.0515295    0.0944906
    2   -0.4628435   -0.0081380    0.0032175   -0.3617960   -0.6486041
    3    0.0000000    0.0000000    0.0000000    0.0000000    0.0000000
    4   -0.5873037   -0.0535935    0.0466525   -0.0027623    0.0545904
    5    0.1188915   -0.5555472   -0.2135090   -0.2630188    0.1898197
    6    0.0683027   -0.0027163    0.0004561   -0.0515295   -0.0944906
    7   -0.4628435    0.0081380    0.0032175    0.3617960    0.6486041
    8    0.0000000    0.0000000    0.0000000    0.0000000    0.0000000
    9    0.5873037   -0.0535935   -0.0466525   -0.0027623    0.0545904
   10   -0.1188915   -0.5555472    0.2135090   -0.2630188    0.1898197
   11   -0.0137827   -0.0943964   -0.0043187    0.0347401    0.0087669
   12    0.0919229    0.6427539    0.0355463   -0.2392077   -0.0749220
   13    0.0000000    0.0000000    0.0000000    0.0000000    0.0000000
   14   -0.1587047   -0.0983810    0.1994659   -0.7158205   -0.1371347
   15   -0.4474060    0.0160063   -0.5303139   -0.1969022   -0.2718769
   16   -0.0137827    0.0943964   -0.0043187   -0.0347401   -0.0087669
   17    0.0919229   -0.6427539    0.0355463    0.2392077    0.0749220
   18    0.0000000    0.0000000    0.0000000    0.0000000    0.0000000
   19    0.1587047   -0.0983810   -0.1994659   -0.7158205   -0.1371347
   20    0.4474060    0.0160063    0.5303139   -0.1969022   -0.2718769
   21   -0.0479706   -0.0344327    0.0031394   -0.0875860    0.0289311
   22    0.3157879    0.2429307   -0.0288651    0.6105276   -0.1914346
   23    0.0000000    0.0000000    0.0000000    0.0000000    0.0000000
   24   -0.0134723    0.4804316    0.3926449   -0.3835786   -0.2096486
   25   -0.3247737   -0.1937220    0.5202432    0.3002935    0.3925013
   26   -0.0479706    0.0344327    0.0031394    0.0875860   -0.0289311
   27    0.3157879   -0.2429307   -0.0288651   -0.6105276    0.1914346
   28    0.0000000    0.0000000    0.0000000    0.0000000    0.0000000
   29    0.0134723    0.4804316   -0.3926449   -0.3835786   -0.2096486
   30    0.3247737   -0.1937220   -0.5202432    0.3002935    0.3925013
   31    0.2416393   -0.2986971    0.4415659    0.0617640    0.1497675
   32    0.2416393    0.2986971    0.4415659   -0.0617640   -0.1497675
   33    0.0527004   -0.2088455   -0.5093766   -0.2539455   -0.0225246
   34    0.0527004    0.2088455   -0.5093766    0.2539455    0.0225246
   35    0.0731354    0.0268917   -0.0520817    0.0621016   -0.0176945
   36   -0.4858934   -0.1986775    0.3635217   -0.4341082    0.1442861
   37    0.0000000    0.0000000    0.0000000    0.0000000    0.0000000
   38   -0.0239791   -0.0480086    0.1624735   -0.1053706    0.4840372
   39    0.1569324   -0.2760392    0.1419263    0.0772948   -0.2950864
   40    0.0731354   -0.0268917   -0.0520817   -0.0621016    0.0176945
   41   -0.4858934    0.1986775    0.3635217    0.4341082   -0.1442861
   42    0.0000000    0.0000000    0.0000000    0.0000000    0.0000000
   43    0.0239791   -0.0480086   -0.1624735   -0.1053706    0.4840372
   44   -0.1569324   -0.2760392   -0.1419263    0.0772948   -0.2950864
   45    0.3110018   -0.1515391   -0.0805698    0.2588173   -0.3279643
   46    0.3110018    0.1515391   -0.0805698   -0.2588173    0.3279643
   47   -0.0191290   -0.0099696    0.0416956   -0.0093737    0.0177264
   48    0.1211961    0.0789754   -0.2904862    0.0621952   -0.1295935
   49    0.0000000    0.0000000    0.0000000    0.0000000    0.0000000
   50    0.1338161   -0.4903037    0.2919182   -0.0966284   -0.2375737
   51   -0.3575976    0.0200518    0.0975759   -0.3071107    0.5063432
   52   -0.0191290    0.0099696    0.0416956    0.0093737   -0.0177264
   53    0.1211961   -0.0789754   -0.2904862   -0.0621952    0.1295935
   54    0.0000000    0.0000000    0.0000000    0.0000000    0.0000000
   55   -0.1338161   -0.4903037   -0.2919182   -0.0966284   -0.2375737
   56    0.3575976    0.0200518   -0.0975759   -0.3071107    0.5063432
   57    0.2450641   -0.1053075    0.1284518    0.2284510   -0.3454251
   58    0.2450641    0.1053075    0.1284518   -0.2284510    0.3454251
   59   -0.2549440    0.3564554   -0.0807408   -0.0282627    0.3310491
   60   -0.2549440   -0.3564554   -0.0807408    0.0282627   -0.3310491

 Ene     0.8023385    0.8257038    0.8607111    0.8878072    0.9210802
 Sym            Ag           Bu           Ag           Bu           Bu
 Occ             0            0            0            0            0


                56           57           58           59           60

    1    0.0141762    0.0175789    0.0195156    0.0047404    0.0424233
    2   -0.0846846   -0.1120976   -0.1393089   -0.0320143   -0.3215841
    3    0.0000000    0.0000000    0.0000000    0.0000000    0.0000000
    4    0.3602991    0.4117091   -0.1311638   -0.0509593   -0.6632187
    5   -0.1081894    0.1024033   -0.4693831   -0.7122888    0.1587226
    6    0.0141762    0.0175789   -0.0195156    0.0047404   -0.0424233
    7   -0.0846846   -0.1120976    0.1393089   -0.0320143    0.3215841
    8    0.0000000    0.0000000    0.0000000    0.0000000    0.0000000
    9   -0.3602991   -0.4117091   -0.1311638    0.0509593   -0.6632187
   10    0.1081894   -0.1024033   -0.4693831    0.7122888    0.1587226
   11    0.0282290   -0.0180735   -0.0462831   -0.0072019   -0.0509014
   12   -0.2017061    0.1318173    0.3389851    0.0498181    0.3755265
   13    0.0000000    0.0000000    0.0000000    0.0000000    0.0000000
   14   -0.3937955    0.3644886   -0.1376815   -0.5467843    0.2426149
   15    0.2677554    0.1165819   -0.1959845   -0.2471854   -0.5652247
   16    0.0282290   -0.0180735    0.0462831   -0.0072019    0.0509014
   17   -0.2017061    0.1318173   -0.3389851    0.0498181   -0.3755265
   18    0.0000000    0.0000000    0.0000000    0.0000000    0.0000000
   19    0.3937955   -0.3644886   -0.1376815    0.5467843    0.2426149
   20   -0.2677554   -0.1165819   -0.1959845    0.2471854   -0.5652247
   21   -0.0316039    0.0160050   -0.0222947    0.0073496    0.0555085
   22    0.2210736   -0.1183803    0.1679543   -0.0497688   -0.4115528
   23    0.0000000    0.0000000    0.0000000    0.0000000    0.0000000
   24   -0.3279882    0.4296583    0.2156981   -0.4251964    0.3920991
   25    0.1551246    0.0541646   -0.0553181    0.4422882    0.4959250
   26   -0.0316039    0.0160050    0.0222947    0.0073496   -0.0555085
   27    0.2210736   -0.1183803   -0.1679543   -0.0497688    0.4115528
   28    0.0000000    0.0000000    0.0000000    0.0000000    0.0000000
   29    0.3279882   -0.4296583    0.2156981    0.4251964    0.3920991
   30   -0.1551246   -0.0541646   -0.0553181   -0.4422882    0.4959250
   31   -0.2178056   -0.0477052   -0.0240164    0.0084728    0.2695981
   32   -0.2178056   -0.0477052    0.0240164    0.0084728   -0.2695981
   33   -0.0349463   -0.2044370   -0.1057099   -0.0385053   -0.2772599
   34   -0.0349463   -0.2044370    0.1057099   -0.0385053    0.2772599
   35   -0.0433416    0.0363480   -0.0583243    0.0241551   -0.0141077
   36    0.3072700   -0.2967898    0.4517852   -0.1974861    0.0881262
   37    0.0000000    0.0000000    0.0000000    0.0000000    0.0000000
   38   -0.1473364   -0.6797196    0.4554099   -0.2989714   -0.3650292
   39    0.5559200   -0.1024889    0.6104940   -0.4162554    0.0262035
   40   -0.0433416    0.0363480    0.0583243    0.0241551    0.0141077
   41    0.3072700   -0.2967898   -0.4517852   -0.1974861   -0.0881262
   42    0.0000000    0.0000000    0.0000000    0.0000000    0.0000000
   43    0.1473364    0.6797196    0.4554099    0.2989714   -0.3650292
   44   -0.5559200    0.1024889    0.6104940    0.4162554    0.0262035
   45    0.3082443    0.1462297    0.1789102   -0.1578718    0.0488088
   46    0.3082443    0.1462297   -0.1789102   -0.1578718   -0.0488088
   47    0.0326738   -0.0463187    0.0684533   -0.0382267   -0.0088393
   48   -0.2418585    0.3553212   -0.5269640    0.3056449    0.0782382
   49    0.0000000    0.0000000    0.0000000    0.0000000    0.0000000
   50    0.5403499   -0.1802833    0.5349436   -0.3015448    0.0043958
   51   -0.1296913   -0.5845040    0.3912967   -0.2413982   -0.2167632
   52    0.0326738   -0.0463187   -0.0684533   -0.0382267    0.0088393
   53   -0.2418585    0.3553212    0.5269640    0.3056449   -0.0782382
   54    0.0000000    0.0000000    0.0000000    0.0000000    0.0000000
   55   -0.5403499    0.1802833    0.5349436    0.3015448    0.0043958
   56    0.1296913    0.5845040    0.3912967    0.2413982   -0.2167632
   57    0.2652476    0.2726668   -0.0114306    0.0313686    0.1367363
   58    0.2652476    0.2726668    0.0114306    0.0313686   -0.1367363
   59   -0.3203050   -0.1230656   -0.0963016    0.0465137   -0.0663372
   60   -0.3203050   -0.1230656    0.0963016    0.0465137    0.0663372

 Ene     0.9400309    0.9903329    1.0273000    1.1077204    1.1250624
 Sym            Ag           Ag           Bu           Ag           Bu
 Occ             0            0            0            0            0



*** tstop() called on copper at Tue Aug  2 20:21:49 2016
Module time:
	user time   =       1.83 seconds =       0.03 minutes
	system time =       0.02 seconds =       0.00 minutes
	total time  =          2 seconds =       0.03 minutes
Total time:
	user time   =       1.83 seconds =       0.03 minutes
	system time =       0.02 seconds =       0.00 minutes
	total time  =          2 seconds =       0.03 minutes


Properties will be evaluated at   0.000000,   0.000000,   0.000000 Bohr

Properties computed using the SCF density matrix

  Nuclear Dipole Moment: (a.u.)
     X:     0.0000      Y:     0.0000      Z:     0.0000

  Electronic Dipole Moment: (a.u.)
     X:     0.0000      Y:     0.0000      Z:     0.0000

  Dipole Moment: (a.u.)
     X:     0.0000      Y:     0.0000      Z:     0.0000     Total:     0.0000

  Dipole Moment: (Debye)
     X:     0.0000      Y:     0.0000      Z:     0.0000     Total:     0.0000



Properties will be evaluated at   0.000000,   0.000000,   0.000000 Bohr

Properties computed using the  density matrix


 Multipole Moments:

 ------------------------------------------------------------------------------------
     Multipole             Electric (a.u.)       Nuclear  (a.u.)        Total (a.u.)
 ------------------------------------------------------------------------------------

 L = 1.  Multiply by 2.5417462300 to convert to Debye
 Dipole X            :          0.0000000            0.0000000            0.0000000
 Dipole Y            :          0.0000000            0.0000000            0.0000000
 Dipole Z            :          0.0000000            0.0000000            0.0000000

 L = 2.  Multiply by 1.3450341749 to convert to Debye.ang
 Quadrupole XX       :      -1535.8924738         1496.8839996          -39.0084742
 Quadrupole XY       :        -11.5263480           11.4580038           -0.0683442
 Quadrupole XZ       :          0.0000000            0.0000000            0.0000000
 Quadrupole YY       :       -283.2382284          244.8754384          -38.3627900
 Quadrupole YZ       :          0.0000000            0.0000000            0.0000000
 Quadrupole ZZ       :        -43.5643424            0.0000000          -43.5643424

 L = 3.  Multiply by 0.7117614302 to convert to Debye.ang^2
 Octupole XXX        :          0.0000000            0.0000000            0.0000000
 Octupole XXY        :          0.0000000            0.0000000            0.0000000
 Octupole XXZ        :          0.0000000            0.0000000            0.0000000
 Octupole XYY        :          0.0000000            0.0000000            0.0000000
 Octupole XYZ        :          0.0000000            0.0000000            0.0000000
 Octupole XZZ        :          0.0000000            0.0000000            0.0000000
 Octupole YYY        :          0.0000000            0.0000000            0.0000000
 Octupole YYZ        :          0.0000000            0.0000000            0.0000000
 Octupole YZZ        :          0.0000000            0.0000000            0.0000000
 Octupole ZZZ        :          0.0000000            0.0000000            0.0000000

 L = 4.  Multiply by 0.3766479268 to convert to Debye.ang^3
 Hexadecapole XXXX   :     -73574.8058440        68490.6499305        -5084.1559136
 Hexadecapole XXXY   :      -2528.3977014         2491.6209456          -36.7767558
 Hexadecapole XXXZ   :          0.0000000            0.0000000            0.0000000
 Hexadecapole XXYY   :      -3640.8375905         2641.3398575         -999.4977330
 Hexadecapole XXYZ   :          0.0000000            0.0000000            0.0000000
 Hexadecapole XXZZ   :       -975.7098285            0.0000000         -975.7098285
 Hexadecapole XYYY   :         26.1933850          -48.3518197          -22.1584347
 Hexadecapole XYYZ   :          0.0000000            0.0000000            0.0000000
 Hexadecapole XYZZ   :         -7.1962724            0.0000000           -7.1962724
 Hexadecapole XZZZ   :          0.0000000            0.0000000            0.0000000
 Hexadecapole YYYY   :      -3004.6413061         2103.6746773         -900.9666287
 Hexadecapole YYYZ   :          0.0000000            0.0000000            0.0000000
 Hexadecapole YYZZ   :       -192.3814331            0.0000000         -192.3814331
 Hexadecapole YZZZ   :          0.0000000            0.0000000            0.0000000
 Hexadecapole ZZZZ   :       -126.3744099            0.0000000         -126.3744099

 L = 5.  Multiply by 0.1993134985 to convert to Debye.ang^4
 32-pole XXXXX       :          0.0000000            0.0000000            0.0000000
 32-pole XXXXY       :          0.0000000            0.0000000            0.0000000
 32-pole XXXXZ       :          0.0000000            0.0000000            0.0000000
 32-pole XXXYY       :          0.0000000            0.0000000            0.0000000
 32-pole XXXYZ       :          0.0000000            0.0000000            0.0000000
 32-pole XXXZZ       :          0.0000000            0.0000000            0.0000000
 32-pole XXYYY       :          0.0000000            0.0000000            0.0000000
 32-pole XXYYZ       :          0.0000000            0.0000000            0.0000000
 32-pole XXYZZ       :          0.0000000            0.0000000            0.0000000
 32-pole XXZZZ       :          0.0000000            0.0000000            0.0000000
 32-pole XYYYY       :          0.0000000            0.0000000            0.0000000
 32-pole XYYYZ       :          0.0000000            0.0000000            0.0000000
 32-pole XYYZZ       :          0.0000000            0.0000000            0.0000000
 32-pole XYZZZ       :          0.0000000            0.0000000            0.0000000
 32-pole XZZZZ       :          0.0000000            0.0000000            0.0000000
 32-pole YYYYY       :          0.0000000            0.0000000            0.0000000
 32-pole YYYYZ       :          0.0000000            0.0000000            0.0000000
 32-pole YYYZZ       :          0.0000000            0.0000000            0.0000000
 32-pole YYZZZ       :          0.0000000            0.0000000            0.0000000
 32-pole YZZZZ       :          0.0000000            0.0000000            0.0000000
 32-pole ZZZZZ       :          0.0000000            0.0000000            0.0000000

 --------------------------------------------------------------------------------
  Mulliken Charges: (a.u.)
   Center  Symbol    Alpha    Beta     Spin     Total
       1     C     2.99907  2.99907  0.00000  0.00185
       2     C     2.99907  2.99907  0.00000  0.00185
       3     C     3.02982  3.02982  0.00000 -0.05964
       4     C     3.02982  3.02982  0.00000 -0.05964
       5     C     3.03022  3.03022  0.00000 -0.06044
       6     C     3.03022  3.03022  0.00000 -0.06044
       7     H     0.47066  0.47066  0.00000  0.05868
       8     H     0.47066  0.47066  0.00000  0.05868
       9     H     0.46971  0.46971  0.00000  0.06058
      10     H     0.46971  0.46971  0.00000  0.06058
      11     C     3.02760  3.02760  0.00000 -0.05521
      12     C     3.02760  3.02760  0.00000 -0.05521
      13     H     0.47119  0.47119  0.00000  0.05762
      14     H     0.47119  0.47119  0.00000  0.05762
      15     C     3.06195  3.06195  0.00000 -0.12390
      16     C     3.06195  3.06195  0.00000 -0.12390
      17     H     0.47049  0.47049  0.00000  0.05902
      18     H     0.47049  0.47049  0.00000  0.05902
      19     H     0.46928  0.46928  0.00000  0.06144
      20     H     0.46928  0.46928  0.00000  0.06144

   Total alpha = 35.00000, Total beta = 35.00000, Total charge =  0.00000

  Lowdin Charges: (a.u.)
   Center  Symbol    Alpha    Beta     Spin     Total
       1     C     2.99562  2.99562  0.00000  0.00876
       2     C     2.99562  2.99562  0.00000  0.00876
       3     C     3.01584  3.01584  0.00000 -0.03169
       4     C     3.01584  3.01584  0.00000 -0.03169
       5     C     3.01611  3.01611  0.00000 -0.03221
       6     C     3.01611  3.01611  0.00000 -0.03221
       7     H     0.48597  0.48597  0.00000  0.02807
       8     H     0.48597  0.48597  0.00000  0.02807
       9     H     0.48497  0.48497  0.00000  0.03005
      10     H     0.48497  0.48497  0.00000  0.03005
      11     C     3.01139  3.01139  0.00000 -0.02278
      12     C     3.01139  3.01139  0.00000 -0.02278
      13     H     0.48648  0.48648  0.00000  0.02704
      14     H     0.48648  0.48648  0.00000  0.02704
      15     C     3.03484  3.03484  0.00000 -0.06968
      16     C     3.03484  3.03484  0.00000 -0.06968
      17     H     0.48472  0.48472  0.00000  0.03056
      18     H     0.48472  0.48472  0.00000  0.03056
      19     H     0.48406  0.48406  0.00000  0.03188
      20     H     0.48406  0.48406  0.00000  0.03188

  Total alpha = 35.00000, Total beta = 35.00000, Total charge =  0.00000

*** Psi4 exiting successfully. Buy a developer a beer!
