    -----------------------------------------------------------------------
          Psi4: An Open-Source Ab Initio Electronic Structure Package
                              Psi4 1.0.54 Driver

                          Git: Rev {master} 8d4cec3 dirty

    J. M. Turney, A. C. Simmonett, R. M. Parrish, E. G. Hohenstein,
    F. A. Evangelista, J. T. Fermann, B. J. Mintz, L. A. Burns, J. J. Wilke,
    M. L. Abrams, N. J. Russ, M. L. Leininger, C. L. Janssen, E. T. Seidl,
    W. D. Allen, H. F. Schaefer, R. A. King, E. F. Valeev, C. D. Sherrill,
    and T. D. Crawford, WIREs Comput. Mol. Sci. 2, 556-565 (2012)
    (doi: 10.1002/wcms.93)

                         Additional Contributions by
    A. E. DePrince, U. Bozkaya, A. Yu. Sokolov, D. G. A. Smith, R. Di Remigio,
    R. M. Richard, J. F. Gonthier, H. R. McAlexander, M. Saitow, and
    B. P. Pritchard
    -----------------------------------------------------------------------


    Psi4 started on: Tue Aug  2 20:22:46 2016

    Process ID:  12587
    PSI4DATADIR: /home/eric/opt/apps/python/anaconda2/share/psi4
    Memory level set to 256.000 MB

  ==> Input File <==

--------------------------------------------------------------------------
molecule dvb {
    1 2
    C    -1.4152533224   0.2302217854   0.0000000000
    C     1.4152533224  -0.2302217854   0.0000000000
    C    -0.4951331558   1.3144608674   0.0000000000
    C     0.4951331558  -1.3144608674   0.0000000000
    C     0.8894090436   1.0909493743   0.0000000000
    C    -0.8894090436  -1.0909493743   0.0000000000
    H    -0.8795511985   2.3437343748   0.0000000000
    H     0.8795511985  -2.3437343748   0.0000000000
    H     1.5779041557   1.9450061275   0.0000000000
    H    -1.5779041557  -1.9450061275   0.0000000000
    C     2.8845844962  -0.5210893778   0.0000000000
    C    -2.8845844962   0.5210893778   0.0000000000
    H     3.1403356810  -1.5919605685   0.0000000000
    H    -3.1403356810   1.5919605685   0.0000000000
    C     3.8800428103   0.3822535424   0.0000000000
    C    -3.8800428103  -0.3822535424   0.0000000000
    H     3.6946765858   1.4624389570   0.0000000000
    H    -3.6946765858  -1.4624389570   0.0000000000
    H     4.9316453546   0.0711049543   0.0000000000
    H    -4.9316453546  -0.0711049543   0.0000000000
}

set {
    basis sto-3g
    reference uhf
    print_basis true
    print_mos true
}

b3lyp_e, b3lyp_wfn = energy('b3lyp', return_wfn=True)
oeprop(b3lyp_wfn, 'MULLIKEN_CHARGES', 'LOWDIN_CHARGES', 'MULTIPOLES(5)')
--------------------------------------------------------------------------

*** tstart() called on copper
*** at Tue Aug  2 20:22:46 2016


         ---------------------------------------------------------
                                   SCF
            by Justin Turney, Rob Parrish, and Andy Simmonett
                              UKS Reference
                        1 Threads,    256 MiB Core
         ---------------------------------------------------------

  ==> Geometry <==

    Molecular point group: c2h
    Full point group: C2h

    Geometry (in Angstrom), charge = 1, multiplicity = 2:

       Center              X                  Y                   Z               Mass       
    ------------   -----------------  -----------------  -----------------  -----------------
           C         -1.415253322400     0.230221785400     0.000000000000    12.000000000000
           C          1.415253322400    -0.230221785400     0.000000000000    12.000000000000
           C         -0.495133155800     1.314460867400     0.000000000000    12.000000000000
           C          0.495133155800    -1.314460867400     0.000000000000    12.000000000000
           C          0.889409043600     1.090949374300     0.000000000000    12.000000000000
           C         -0.889409043600    -1.090949374300     0.000000000000    12.000000000000
           H         -0.879551198500     2.343734374800     0.000000000000     1.007825032070
           H          0.879551198500    -2.343734374800     0.000000000000     1.007825032070
           H          1.577904155700     1.945006127500     0.000000000000     1.007825032070
           H         -1.577904155700    -1.945006127500     0.000000000000     1.007825032070
           C          2.884584496200    -0.521089377800     0.000000000000    12.000000000000
           C         -2.884584496200     0.521089377800     0.000000000000    12.000000000000
           H          3.140335681000    -1.591960568500     0.000000000000     1.007825032070
           H         -3.140335681000     1.591960568500     0.000000000000     1.007825032070
           C          3.880042810300     0.382253542400     0.000000000000    12.000000000000
           C         -3.880042810300    -0.382253542400     0.000000000000    12.000000000000
           H          3.694676585800     1.462438957000     0.000000000000     1.007825032070
           H         -3.694676585800    -1.462438957000     0.000000000000     1.007825032070
           H          4.931645354600     0.071104954300     0.000000000000     1.007825032070
           H         -4.931645354600    -0.071104954300     0.000000000000     1.007825032070

  Running in c2h symmetry.

  Rotational constants: A =      0.15403  B =      0.02287  C =      0.01992 [cm^-1]
  Rotational constants: A =   4617.84332  B =    685.76183  C =    597.09209 [MHz]
  Nuclear repulsion =  445.936978114243402

  Charge       = 1
  Multiplicity = 2
  Electrons    = 69
  Nalpha       = 35
  Nbeta        = 34

  ==> Algorithm <==

  SCF Algorithm Type is DF.
  DIIS enabled.
  MOM disabled.
  Fractional occupation disabled.
  Guess Type is GWH.
  Energy threshold   = 1.00e-06
  Density threshold  = 1.00e-06
  Integral threshold = 0.00e+00

  ==> Primary Basis <==

  Basis Set: STO-3G
    Number of shells: 40
    Number of basis function: 60
    Number of Cartesian functions: 60
    Spherical Harmonics?: true
    Max angular momentum: 1

  ==> DFT Potential <==

   => B3LYP Composite Functional <= 

    B3LYP Hybrid-GGA Exchange-Correlation Functional (VWN1-RPA)

    P.J. Stephens et. al., J. Phys. Chem., 98, 11623-11627, 1994

    Points   =           5000
    Deriv    =              1
    GGA      =           TRUE
    Meta     =          FALSE

    X_LRC        =          FALSE
    X_Hybrid     =           TRUE
    X_Alpha      =   2.000000E-01
    X_Omega      =   0.000000E+00
    C_LRC        =          FALSE
    C_Hybrid     =          FALSE
    C_Alpha      =   0.000000E+00
    C_Omega      =   0.000000E+00

   => Exchange Functionals <=

    0.8000    B3_X
    0.2000      HF 

   => Correlation Functionals <=

    0.1900 VWN3RPA_C
    0.8100   LYP_C

   => Molecular Quadrature <=

    Radial Scheme    =       TREUTLER
    Pruning Scheme   =           FLAT
    Nuclear Scheme   =       TREUTLER

    BS radius alpha  =              1
    Pruning alpha    =              1
    Radial Points    =             75
    Spherical Points =            302
    Total Points     =         438996
    Total Blocks     =            376
    Max Points       =           4904
    Max Functions    =             56

  -AO BASIS SET INFORMATION:
    Name                   = STO-3G
    Total number of shells = 40
    Number of primitives   = 120
    Number of AO           = 60
    Number of SO           = 60
    Maximum AM             = 1
    Spherical Harmonics    = TRUE

  -Contraction Scheme:
    Atom   Type   All Primitives // Shells:
   ------ ------ --------------------------
       1     C     6s 3p // 2s 1p 
       2     C     6s 3p // 2s 1p 
       3     C     6s 3p // 2s 1p 
       4     C     6s 3p // 2s 1p 
       5     C     6s 3p // 2s 1p 
       6     C     6s 3p // 2s 1p 
       7     H     3s // 1s 
       8     H     3s // 1s 
       9     H     3s // 1s 
      10     H     3s // 1s 
      11     C     6s 3p // 2s 1p 
      12     C     6s 3p // 2s 1p 
      13     H     3s // 1s 
      14     H     3s // 1s 
      15     C     6s 3p // 2s 1p 
      16     C     6s 3p // 2s 1p 
      17     H     3s // 1s 
      18     H     3s // 1s 
      19     H     3s // 1s 
      20     H     3s // 1s 

  ==> AO Basis Functions <==

    [ STO-3G ]
    spherical
    ****
    C   1
    S   3 1.00
                        71.61683700           0.15432897
                        13.04509600           0.53532814
                         3.53051220           0.44463454
    S   3 1.00
                         2.94124940          -0.09996723
                         0.68348310           0.39951283
                         0.22228990           0.70011547
    P   3 1.00
                         2.94124940           0.15591627
                         0.68348310           0.60768372
                         0.22228990           0.39195739
    ****
    C   3
    S   3 1.00
                        71.61683700           0.15432897
                        13.04509600           0.53532814
                         3.53051220           0.44463454
    S   3 1.00
                         2.94124940          -0.09996723
                         0.68348310           0.39951283
                         0.22228990           0.70011547
    P   3 1.00
                         2.94124940           0.15591627
                         0.68348310           0.60768372
                         0.22228990           0.39195739
    ****
    C   5
    S   3 1.00
                        71.61683700           0.15432897
                        13.04509600           0.53532814
                         3.53051220           0.44463454
    S   3 1.00
                         2.94124940          -0.09996723
                         0.68348310           0.39951283
                         0.22228990           0.70011547
    P   3 1.00
                         2.94124940           0.15591627
                         0.68348310           0.60768372
                         0.22228990           0.39195739
    ****
    H   7
    S   3 1.00
                         3.42525091           0.15432897
                         0.62391373           0.53532814
                         0.16885540           0.44463454
    ****
    H   9
    S   3 1.00
                         3.42525091           0.15432897
                         0.62391373           0.53532814
                         0.16885540           0.44463454
    ****
    C  11
    S   3 1.00
                        71.61683700           0.15432897
                        13.04509600           0.53532814
                         3.53051220           0.44463454
    S   3 1.00
                         2.94124940          -0.09996723
                         0.68348310           0.39951283
                         0.22228990           0.70011547
    P   3 1.00
                         2.94124940           0.15591627
                         0.68348310           0.60768372
                         0.22228990           0.39195739
    ****
    H  13
    S   3 1.00
                         3.42525091           0.15432897
                         0.62391373           0.53532814
                         0.16885540           0.44463454
    ****
    C  15
    S   3 1.00
                        71.61683700           0.15432897
                        13.04509600           0.53532814
                         3.53051220           0.44463454
    S   3 1.00
                         2.94124940          -0.09996723
                         0.68348310           0.39951283
                         0.22228990           0.70011547
    P   3 1.00
                         2.94124940           0.15591627
                         0.68348310           0.60768372
                         0.22228990           0.39195739
    ****
    H  17
    S   3 1.00
                         3.42525091           0.15432897
                         0.62391373           0.53532814
                         0.16885540           0.44463454
    ****
    H  19
    S   3 1.00
                         3.42525091           0.15432897
                         0.62391373           0.53532814
                         0.16885540           0.44463454
    ****

  ==> Pre-Iterations <==

   -------------------------------------------------------
    Irrep   Nso     Nmo     Nalpha   Nbeta   Ndocc  Nsocc
   -------------------------------------------------------
     Ag        25      25       0       0       0       0
     Bg         5       5       0       0       0       0
     Au         5       5       0       0       0       0
     Bu        25      25       0       0       0       0
   -------------------------------------------------------
    Total      60      60      35      34      34       1
   -------------------------------------------------------

  ==> Integral Setup <==

  ==> DFJK: Density-Fitted J/K Matrices <==

    J tasked:                  Yes
    K tasked:                  Yes
    wK tasked:                  No
    OpenMP threads:              1
    Integrals threads:           1
    Memory (MB):               183
    Algorithm:                Core
    Integral Cache:           NONE
    Schwarz Cutoff:          1E-12
    Fitting Condition:       1E-12

   => Auxiliary Basis Set <=

  Basis Set: 
    Number of shells: 240
    Number of basis function: 700
    Number of Cartesian functions: 810
    Spherical Harmonics?: true
    Max angular momentum: 3

  Minimum eigenvalue in the overlap matrix is 1.8147107108E-01.
  Using Symmetric Orthogonalization.
  SCF Guess: Generalized Wolfsberg-Helmholtz.

  ==> Iterations <==

                           Total Energy        Delta E     RMS |[F,P]|

    Occupation by irrep:
             Ag    Bg    Au    Bu 
    DOCC [    15,    2,    2,   15 ]
    SOCC [     0,    1,    0,    0 ]

   @DF-UKS iter   1:  -380.89329779432262   -3.80893e+02   5.12457e-02 
   @DF-UKS iter   2:  -381.09374194232350   -2.00444e-01   2.91316e-02 DIIS
   @DF-UKS iter   3:  -381.29395774185377   -2.00216e-01   2.63103e-02 DIIS
   @DF-UKS iter   4:  -382.06605568378291   -7.72098e-01   4.42608e-03 DIIS
   @DF-UKS iter   5:  -382.07769159081704   -1.16359e-02   2.91553e-03 DIIS
   @DF-UKS iter   6:  -382.08625795570458   -8.56636e-03   5.89240e-04 DIIS
   @DF-UKS iter   7:  -382.08692281097558   -6.64855e-04   3.59192e-04 DIIS
   @DF-UKS iter   8:  -382.08717772102170   -2.54910e-04   2.11662e-04 DIIS
   @DF-UKS iter   9:  -382.08730547659184   -1.27756e-04   8.22826e-05 DIIS
   @DF-UKS iter  10:  -382.08732442304347   -1.89465e-05   3.97808e-05 DIIS
   @DF-UKS iter  11:  -382.08732900487735   -4.58183e-06   1.04391e-05 DIIS
   @DF-UKS iter  12:  -382.08732918511771   -1.80240e-07   4.74518e-06 DIIS
   @DF-UKS iter  13:  -382.08732922054321   -3.54255e-08   1.14481e-06 DIIS
   @DF-UKS iter  14:  -382.08732922335037   -2.80716e-09   3.14101e-07 DIIS

  ==> Post-Iterations <==

   @Spin Contamination Metric:   2.776172358E-02
   @S^2 Expected:                7.500000000E-01
   @S^2 Observed:                7.777617236E-01
   @S   Expected:                5.000000000E-01
   @S   Observed:                5.000000000E-01

    Orbital Energies (a.u.)
    -----------------------

    Alpha Occupied:                                                       

       1Bu   -10.254153     1Ag   -10.254103     2Bu   -10.220075  
       2Ag   -10.220034     3Bu   -10.218614     3Ag   -10.218516  
       4Bu   -10.218126     4Ag   -10.218122     5Bu   -10.215793  
       5Ag   -10.215793     6Ag    -1.020762     6Bu    -0.961939  
       7Ag    -0.921631     7Bu    -0.899274     8Bu    -0.876746  
       8Ag    -0.787123     9Ag    -0.759876     9Bu    -0.722516  
      10Ag    -0.703603    11Ag    -0.650479    10Bu    -0.634977  
      11Bu    -0.604000    12Bu    -0.596105    12Ag    -0.587827  
      13Bu    -0.568876    14Bu    -0.552245    13Ag    -0.537115  
       1Au    -0.533653    15Bu    -0.501075    14Ag    -0.493311  
      15Ag    -0.482726     1Bg    -0.473631     2Au    -0.417926  
       2Bg    -0.394361     3Bg    -0.369718  

    Alpha Virtual:                                                        

       3Au    -0.177440     4Au    -0.111512     4Bg    -0.094332  
       5Au    -0.029597     5Bg     0.059989    16Ag     0.139734  
      16Bu     0.149013    17Bu     0.179259    17Ag     0.196485  
      18Ag     0.214703    18Bu     0.220380    19Ag     0.239702  
      19Bu     0.240604    20Bu     0.263046    20Ag     0.285341  
      21Ag     0.319823    21Bu     0.344279    22Ag     0.380025  
      22Bu     0.397814    23Bu     0.425501    23Ag     0.438189  
      24Ag     0.477746    24Bu     0.506036    25Ag     0.567572  
      25Bu     0.581799  

    Beta Occupied:                                                        

       1Bu   -10.251176     1Ag   -10.251130     2Bu   -10.219748  
       2Ag   -10.219711     3Ag   -10.218971     3Bu   -10.218970  
       4Bu   -10.218408     4Ag   -10.218306     5Ag   -10.211329  
       5Bu   -10.211329     6Ag    -1.014708     6Bu    -0.954502  
       7Ag    -0.913757     7Bu    -0.897625     8Bu    -0.864549  
       8Ag    -0.781836     9Ag    -0.755813     9Bu    -0.718619  
      10Ag    -0.700471    11Ag    -0.648281    10Bu    -0.632907  
      11Bu    -0.601290    12Bu    -0.593273    12Ag    -0.584929  
      13Bu    -0.568172    14Bu    -0.549296    13Ag    -0.535163  
       1Au    -0.517380    15Bu    -0.499458    14Ag    -0.491806  
      15Ag    -0.481158     1Bg    -0.450811     2Bg    -0.391178  
       2Au    -0.388762  

    Beta Virtual:                                                         

       3Bg    -0.300488     3Au    -0.147009     4Au    -0.103408  
       4Bg    -0.073626     5Au    -0.008233     5Bg     0.076179  
      16Ag     0.142185    16Bu     0.150887    17Bu     0.181157  
      17Ag     0.197962    18Ag     0.220369    18Bu     0.225766  
      19Bu     0.242053    19Ag     0.246355    20Bu     0.270059  
      20Ag     0.290488    21Ag     0.323551    21Bu     0.347732  
      22Ag     0.381520    22Bu     0.399993    23Bu     0.429820  
      23Ag     0.440753    24Ag     0.481522    24Bu     0.511450  
      25Ag     0.571310    25Bu     0.584938  

    Final Occupation by Irrep:
             Ag    Bg    Au    Bu 
    DOCC [    15,    2,    2,   15 ]
    SOCC [     0,    1,    0,    0 ]

  Energy converged.

  @DF-UKS Final Energy:  -382.08732922335037

   => Energetics <=

    Nuclear Repulsion Energy =            445.9369781142434022
    One-Electron Energy =               -1386.6350851133754531
    Two-Electron Energy =                 605.0035757243789476
    DFT Exchange-Correlation Energy =     -46.3927979485972983
    Empirical Dispersion Energy =           0.0000000000000000
    PCM Polarization Energy =               0.0000000000000000
    EFP Energy =                            0.0000000000000000
    Total Energy =                       -382.0873292233504230


  Saving occupied orbitals to File 180.

  UHF NO Occupations:
  HONO-2 :    2 Bg 1.9974743
  HONO-1 :    2 Au 1.9899443
  HONO-0 :    3 Bg 1.0000000
  LUNO+0 :    3 Au 0.0100557
  LUNO+1 :    4 Bg 0.0025257
  LUNO+2 :    4 Au 0.0008988
  LUNO+3 :   16 Ag 0.0000998


  ==> Alpha-Spin Molecular Orbitals <==

                 1            2            3            4            5

    1    0.7002711    0.7002949    0.0098951    0.0062150    0.0057713
    2    0.0312522    0.0310580   -0.0075759   -0.0040941   -0.0046698
    3    0.0000000    0.0000000    0.0000000    0.0000000    0.0000000
    4    0.0010234    0.0007501   -0.0024075   -0.0008525   -0.0025848
    5   -0.0000442    0.0000057    0.0032157    0.0048248   -0.0040477
    6   -0.7002711    0.7002949   -0.0098951    0.0062150   -0.0057713
    7   -0.0312522    0.0310580    0.0075759   -0.0040941    0.0046698
    8    0.0000000    0.0000000    0.0000000    0.0000000    0.0000000
    9    0.0010234   -0.0007501   -0.0024075    0.0008525   -0.0025848
   10   -0.0000442   -0.0000057    0.0032157   -0.0048248   -0.0040477
   11   -0.0070127   -0.0074361    0.1554671   -0.1798906    0.6828308
   12   -0.0071226   -0.0065299    0.0134806   -0.0141610    0.0287341
   13    0.0000000    0.0000000    0.0000000    0.0000000    0.0000000
   14    0.0026955    0.0029160    0.0043526   -0.0043169   -0.0004761
   15    0.0035394    0.0033628   -0.0010594    0.0009896   -0.0009059
   16    0.0070127   -0.0074361   -0.1554671   -0.1798906   -0.6828308
   17    0.0071226   -0.0065299   -0.0134806   -0.0141610   -0.0287341
   18    0.0000000    0.0000000    0.0000000    0.0000000    0.0000000
   19    0.0026955   -0.0029160    0.0043526    0.0043169   -0.0004761
   20    0.0035394   -0.0033628   -0.0010594   -0.0009896   -0.0009059
   21    0.0073350   -0.0077160   -0.6827185    0.6767194    0.1564638
   22    0.0070914   -0.0064821   -0.0317685    0.0314618    0.0003347
   23    0.0000000    0.0000000    0.0000000    0.0000000    0.0000000
   24    0.0014268   -0.0017035    0.0017711   -0.0017236    0.0041009
   25   -0.0041866    0.0040700    0.0007412   -0.0004283   -0.0007580
   26   -0.0073350   -0.0077160    0.6827185    0.6767194   -0.1564638
   27   -0.0070914   -0.0064821    0.0317685    0.0314618   -0.0003347
   28    0.0000000    0.0000000    0.0000000    0.0000000    0.0000000
   29    0.0014268    0.0017035    0.0017711    0.0017236    0.0041009
   30   -0.0041866   -0.0040700    0.0007412    0.0004283   -0.0007580
   31    0.0002227    0.0001107   -0.0015662    0.0016670   -0.0060374
   32   -0.0002227    0.0001107    0.0015662    0.0016670    0.0060374
   33   -0.0002180    0.0001085    0.0061578   -0.0061688   -0.0012214
   34    0.0002180    0.0001085   -0.0061578   -0.0061688    0.0012214
   35    0.0088244   -0.0089333    0.0017138   -0.0040024    0.0132609
   36    0.0058749   -0.0059370   -0.0001607   -0.0001047    0.0004407
   37    0.0000000    0.0000000    0.0000000    0.0000000    0.0000000
   38   -0.0039844    0.0040271    0.0000533    0.0000510    0.0000413
   39    0.0008650   -0.0008733   -0.0000668    0.0001165    0.0000048
   40   -0.0088244   -0.0089333   -0.0017138   -0.0040024   -0.0132609
   41   -0.0058749   -0.0059370    0.0001607   -0.0001047   -0.0004407
   42    0.0000000    0.0000000    0.0000000    0.0000000    0.0000000
   43   -0.0039844   -0.0040271    0.0000533   -0.0000510    0.0000413
   44    0.0008650    0.0008733   -0.0000668   -0.0001165    0.0000048
   45   -0.0001534    0.0001614    0.0000268   -0.0000125   -0.0000741
   46    0.0001534    0.0001614   -0.0000268   -0.0000125    0.0000741
   47   -0.0000364    0.0000434    0.0027144   -0.0020352   -0.0004251
   48   -0.0002727    0.0002728    0.0001912   -0.0001317   -0.0001140
   49    0.0000000    0.0000000    0.0000000    0.0000000    0.0000000
   50    0.0001896   -0.0001945   -0.0000687    0.0000375    0.0000391
   51   -0.0000832    0.0000837    0.0000516   -0.0000527    0.0000399
   52    0.0000364    0.0000434   -0.0027144   -0.0020352    0.0004251
   53    0.0002727    0.0002728   -0.0001912   -0.0001317    0.0001140
   54    0.0000000    0.0000000    0.0000000    0.0000000    0.0000000
   55    0.0001896    0.0001945   -0.0000687   -0.0000375    0.0000391
   56   -0.0000832   -0.0000837    0.0000516    0.0000527    0.0000399
   57    0.0001406   -0.0001331   -0.0001924    0.0001907    0.0000258
   58   -0.0001406   -0.0001331    0.0001924    0.0001907   -0.0000258
   59    0.0000238   -0.0000229   -0.0000025    0.0000017    0.0000036
   60   -0.0000238   -0.0000229    0.0000025    0.0000017   -0.0000036

 Ene   -10.2541530  -10.2541026  -10.2200746  -10.2200337  -10.2186138
 Sym            Bu           Ag           Bu           Ag           Bu
 Occ             1            1            1            1            1


                 6            7            8            9           10

    1    0.0096282    0.0099756    0.0107737    0.0008520    0.0008975
    2   -0.0067110   -0.0051785   -0.0056137   -0.0002449   -0.0002670
    3    0.0000000    0.0000000    0.0000000    0.0000000    0.0000000
    4   -0.0034702    0.0040079    0.0037645    0.0002417    0.0002315
    5   -0.0021277   -0.0006940   -0.0007575   -0.0000658   -0.0000725
    6    0.0096282   -0.0099756    0.0107737   -0.0008520    0.0008975
    7   -0.0067110    0.0051785   -0.0056137    0.0002449   -0.0002670
    8    0.0000000    0.0000000    0.0000000    0.0000000    0.0000000
    9    0.0034702    0.0040079   -0.0037645    0.0002417   -0.0002315
   10    0.0021277   -0.0006940    0.0007575   -0.0000658    0.0000725
   11    0.6750248    0.0131614    0.0513215    0.0013264    0.0036914
   12    0.0280352    0.0006719    0.0021206    0.0000707    0.0000542
   13    0.0000000    0.0000000    0.0000000    0.0000000    0.0000000
   14   -0.0007292   -0.0000267   -0.0001545    0.0000917    0.0000072
   15   -0.0005371   -0.0000007    0.0000694    0.0000033    0.0000237
   16    0.6750248   -0.0131614    0.0513215   -0.0013264    0.0036914
   17    0.0280352   -0.0006719    0.0021206   -0.0000707    0.0000542
   18    0.0000000    0.0000000    0.0000000    0.0000000    0.0000000
   19    0.0007292   -0.0000267    0.0001545    0.0000917   -0.0000072
   20    0.0005371   -0.0000007   -0.0000694    0.0000033   -0.0000237
   21    0.1799629    0.0016255    0.0175724   -0.0026339    0.0034521
   22    0.0016928   -0.0002245    0.0003984   -0.0000891    0.0000566
   23    0.0000000    0.0000000    0.0000000    0.0000000    0.0000000
   24    0.0040742    0.0000250    0.0004313    0.0001118   -0.0000638
   25   -0.0007339   -0.0000331    0.0000244   -0.0000068    0.0000045
   26    0.1799629   -0.0016255    0.0175724    0.0026339    0.0034521
   27    0.0016928    0.0002245    0.0003984    0.0000891    0.0000566
   28    0.0000000    0.0000000    0.0000000    0.0000000    0.0000000
   29   -0.0040742    0.0000250   -0.0004313    0.0001118    0.0000638
   30    0.0007339   -0.0000331   -0.0000244   -0.0000068   -0.0000045
   31   -0.0060965   -0.0001265   -0.0004893   -0.0000225   -0.0000468
   32   -0.0060965    0.0001265   -0.0004893    0.0000225   -0.0000468
   33   -0.0015873    0.0001355   -0.0003237   -0.0000738    0.0000657
   34   -0.0015873   -0.0001355   -0.0003237    0.0000738    0.0000657
   35   -0.0543563   -0.6977126    0.6956999   -0.0606892    0.0607897
   36   -0.0022861   -0.0312580    0.0311636    0.0046901   -0.0046865
   37    0.0000000    0.0000000    0.0000000    0.0000000    0.0000000
   38   -0.0000302   -0.0012331    0.0012468    0.0033305   -0.0033286
   39   -0.0000963   -0.0011651    0.0011599    0.0030702   -0.0030698
   40   -0.0543563    0.6977126    0.6956999    0.0606892    0.0607897
   41   -0.0022861    0.0312580    0.0311636   -0.0046901   -0.0046865
   42    0.0000000    0.0000000    0.0000000    0.0000000    0.0000000
   43    0.0000302   -0.0012331   -0.0012468    0.0033305    0.0033286
   44    0.0000963   -0.0011651   -0.0011599    0.0030702    0.0030698
   45    0.0004087    0.0063208   -0.0063083    0.0004235   -0.0004251
   46    0.0004087   -0.0063208   -0.0063083   -0.0004235   -0.0004251
   47    0.0002281    0.0598192   -0.0600865   -0.6979531    0.6979326
   48    0.0005038    0.0099105   -0.0099066   -0.0302663    0.0302638
   49    0.0000000    0.0000000    0.0000000    0.0000000    0.0000000
   50   -0.0001809   -0.0035286    0.0035252    0.0008357   -0.0008346
   51   -0.0002473   -0.0031198    0.0031106    0.0007640   -0.0007635
   52    0.0002281   -0.0598192   -0.0600865    0.6979531    0.6979326
   53    0.0005038   -0.0099105   -0.0099066    0.0302663    0.0302638
   54    0.0000000    0.0000000    0.0000000    0.0000000    0.0000000
   55    0.0001809   -0.0035286   -0.0035252    0.0008357    0.0008346
   56    0.0002473   -0.0031198   -0.0031106    0.0007640    0.0007635
   57    0.0000055   -0.0006647    0.0006693    0.0063121   -0.0063120
   58    0.0000055    0.0006647    0.0006693   -0.0063121   -0.0063120
   59   -0.0000321   -0.0006807    0.0006812    0.0062964   -0.0062963
   60   -0.0000321    0.0006807    0.0006812   -0.0062964   -0.0062963

 Ene   -10.2185157  -10.2181259  -10.2181225  -10.2157930  -10.2157928
 Sym            Ag           Bu           Ag           Bu           Ag
 Occ             1            1            1            1            1


                11           12           13           14           15

    1    0.1123577    0.1122985    0.0052671    0.0174102    0.0953946
    2   -0.2906255   -0.3021609   -0.0173207   -0.0482795   -0.2668590
    3    0.0000000    0.0000000    0.0000000    0.0000000    0.0000000
    4   -0.0478338    0.0254753    0.1005029   -0.0277619   -0.0670765
    5    0.0075886   -0.0008196   -0.0090116   -0.1352783    0.0267196
    6    0.1123577   -0.1122985    0.0052671   -0.0174102   -0.0953946
    7   -0.2906255    0.3021609   -0.0173207    0.0482795    0.2668590
    8    0.0000000    0.0000000    0.0000000    0.0000000    0.0000000
    9    0.0478338    0.0254753   -0.1005029   -0.0277619   -0.0670765
   10   -0.0075886   -0.0008196    0.0090116   -0.1352783    0.0267196
   11    0.0956283    0.0408177   -0.0439229    0.1345538    0.0323232
   12   -0.2392140   -0.1057913    0.1147824   -0.3639295   -0.0882404
   13    0.0000000    0.0000000    0.0000000    0.0000000    0.0000000
   14   -0.0122181    0.0621115    0.0345366   -0.0512341    0.0874804
   15    0.0611241    0.0334889   -0.0200164    0.0114114    0.0406868
   16    0.0956283   -0.0408177   -0.0439229   -0.1345538   -0.0323232
   17   -0.2392140    0.1057913    0.1147824    0.3639295    0.0882404
   18    0.0000000    0.0000000    0.0000000    0.0000000    0.0000000
   19    0.0122181    0.0621115   -0.0345366   -0.0512341    0.0874804
   20   -0.0611241    0.0334889    0.0200164    0.0114114    0.0406868
   21    0.0961547   -0.0466945   -0.0388550    0.1182731   -0.0748936
   22   -0.2411740    0.1218155    0.1011988   -0.3204337    0.2052702
   23    0.0000000    0.0000000    0.0000000    0.0000000    0.0000000
   24    0.0302122    0.0483078   -0.0468632    0.0692501    0.0391855
   25    0.0543482   -0.0515276   -0.0060730   -0.0256781   -0.0573573
   26    0.0961547    0.0466945   -0.0388550   -0.1182731    0.0748936
   27   -0.2411740   -0.1218155    0.1011988    0.3204337   -0.2052702
   28    0.0000000    0.0000000    0.0000000    0.0000000    0.0000000
   29   -0.0302122    0.0483078    0.0468632    0.0692501    0.0391855
   30   -0.0543482   -0.0515276    0.0060730   -0.0256781   -0.0573573
   31   -0.0373856   -0.0235221    0.0191172   -0.0869850   -0.0208893
   32   -0.0373856    0.0235221    0.0191172    0.0869850    0.0208893
   33   -0.0385955    0.0285438    0.0130004   -0.0788066    0.0469587
   34   -0.0385955   -0.0285438    0.0130004    0.0788066   -0.0469587
   35    0.0465549   -0.1081158    0.1194820    0.0023081    0.0615682
   36   -0.1180821    0.2789156   -0.3123594   -0.0051861   -0.1622569
   37    0.0000000    0.0000000    0.0000000    0.0000000    0.0000000
   38    0.0290016   -0.0131998   -0.0579065   -0.0232615   -0.1240411
   39   -0.0147204    0.0399906   -0.0562319   -0.0246812   -0.0465786
   40    0.0465549    0.1081158    0.1194820   -0.0023081   -0.0615682
   41   -0.1180821   -0.2789156   -0.3123594    0.0051861    0.1622569
   42    0.0000000    0.0000000    0.0000000    0.0000000    0.0000000
   43   -0.0290016   -0.0131998    0.0579065   -0.0232615   -0.1240411
   44    0.0147204    0.0399906    0.0562319   -0.0246812   -0.0465786
   45   -0.0203597    0.0542290   -0.0656846    0.0070307   -0.0380242
   46   -0.0203597   -0.0542290   -0.0656846   -0.0070307    0.0380242
   47    0.0227902   -0.0762379    0.1201340    0.0185107    0.1138573
   48   -0.0588112    0.2008727   -0.3225048   -0.0496354   -0.3135677
   49    0.0000000    0.0000000    0.0000000    0.0000000    0.0000000
   50    0.0204145   -0.0533640    0.0636061    0.0090062    0.0330761
   51    0.0121282   -0.0374024    0.0536329    0.0009400    0.0425399
   52    0.0227902    0.0762379    0.1201340   -0.0185107   -0.1138573
   53   -0.0588112   -0.2008727   -0.3225048    0.0496354    0.3135677
   54    0.0000000    0.0000000    0.0000000    0.0000000    0.0000000
   55   -0.0204145   -0.0533640   -0.0636061    0.0090062    0.0330761
   56   -0.0121282   -0.0374024   -0.0536329    0.0009400    0.0425399
   57   -0.0111858    0.0400257   -0.0669238   -0.0149530   -0.0690620
   58   -0.0111858   -0.0400257   -0.0669238    0.0149530    0.0690620
   59   -0.0080099    0.0338517   -0.0635414   -0.0099972   -0.0743860
   60   -0.0080099   -0.0338517   -0.0635414    0.0099972    0.0743860

 Ene    -1.0207624   -0.9619386   -0.9216312   -0.8992741   -0.8767461
 Sym            Ag           Bu           Ag           Bu           Bu
 Occ             1            1            1            1            1


                16           17           18           19           20

    1    0.0750304    0.0527878    0.0087774    0.0494108    0.0307387
    2   -0.2240597   -0.1601528   -0.0248226   -0.1508161   -0.1037246
    3    0.0000000    0.0000000    0.0000000    0.0000000    0.0000000
    4    0.0799496    0.0731904   -0.1613198   -0.1622736    0.1265880
    5   -0.1324260    0.2043367    0.0624284   -0.0099164   -0.0531106
    6    0.0750304    0.0527878   -0.0087774    0.0494108    0.0307387
    7   -0.2240597   -0.1601528    0.0248226   -0.1508161   -0.1037246
    8    0.0000000    0.0000000    0.0000000    0.0000000    0.0000000
    9   -0.0799496   -0.0731904   -0.1613198    0.1622736   -0.1265880
   10    0.1324260   -0.2043367    0.0624284    0.0099164    0.0531106
   11    0.0005785   -0.1130690    0.0500376   -0.0158470    0.0165007
   12   -0.0028594    0.3343546   -0.1535918    0.0545584   -0.0622185
   13    0.0000000    0.0000000    0.0000000    0.0000000    0.0000000
   14    0.1708027   -0.0370132   -0.0005612    0.0845533    0.1357724
   15    0.0307124    0.0575420    0.0129555    0.1904670   -0.1321579
   16    0.0005785   -0.1130690   -0.0500376   -0.0158470    0.0165007
   17   -0.0028594    0.3343546    0.1535918    0.0545584   -0.0622185
   18    0.0000000    0.0000000    0.0000000    0.0000000    0.0000000
   19   -0.1708027    0.0370132   -0.0005612   -0.0845533   -0.1357724
   20   -0.0307124   -0.0575420    0.0129555   -0.1904670    0.1321579
   21   -0.0866397    0.0570157   -0.0298846   -0.0528778   -0.0153362
   22    0.2490751   -0.1698875    0.0914980    0.1707219    0.0421454
   23    0.0000000    0.0000000    0.0000000    0.0000000    0.0000000
   24   -0.0321666   -0.1788359    0.0786802    0.0287732   -0.1315241
   25    0.0574746    0.0886572   -0.0432182    0.2035150   -0.0916737
   26   -0.0866397    0.0570157    0.0298846   -0.0528778   -0.0153362
   27    0.2490751   -0.1698875   -0.0914980    0.1707219    0.0421454
   28    0.0000000    0.0000000    0.0000000    0.0000000    0.0000000
   29    0.0321666    0.1788359    0.0786802   -0.0287732    0.1315241
   30   -0.0574746   -0.0886572   -0.0432182   -0.2035150    0.0916737
   31   -0.0157834    0.1442568   -0.0420703    0.1023800   -0.1223679
   32   -0.0157834    0.1442568    0.0420703    0.1023800   -0.1223679
   33    0.0966661   -0.0771509    0.0475597    0.1548005   -0.0883720
   34    0.0966661   -0.0771509   -0.0475597    0.1548005   -0.0883720
   35    0.0491204    0.0052590    0.1000383   -0.0600637   -0.0490984
   36   -0.1481871   -0.0174782   -0.3092477    0.1855599    0.1580231
   37    0.0000000    0.0000000    0.0000000    0.0000000    0.0000000
   38    0.1368840    0.0811450    0.0617856   -0.0170187    0.1822151
   39    0.0758778   -0.0424457    0.1097799   -0.0610275   -0.1081805
   40    0.0491204    0.0052590   -0.1000383   -0.0600637   -0.0490984
   41   -0.1481871   -0.0174782    0.3092477    0.1855599    0.1580231
   42    0.0000000    0.0000000    0.0000000    0.0000000    0.0000000
   43   -0.1368840   -0.0811450    0.0617856    0.0170187   -0.1822151
   44   -0.0758778    0.0424457    0.1097799    0.0610275    0.1081805
   45   -0.0656783    0.0280583   -0.1528286    0.0999250    0.1458917
   46   -0.0656783    0.0280583    0.1528286    0.0999250    0.1458917
   47   -0.0813234   -0.0402337   -0.0849723    0.0549818    0.0245737
   48    0.2389646    0.1225193    0.2683700   -0.1774643   -0.0911936
   49    0.0000000    0.0000000    0.0000000    0.0000000    0.0000000
   50    0.0264565    0.0416157    0.0878636   -0.0776786   -0.0132819
   51    0.0250799   -0.0169207    0.1174170   -0.0741964   -0.2282574
   52   -0.0813234   -0.0402337    0.0849723    0.0549818    0.0245737
   53    0.2389646    0.1225193   -0.2683700   -0.1774643   -0.0911936
   54    0.0000000    0.0000000    0.0000000    0.0000000    0.0000000
   55   -0.0264565   -0.0416157    0.0878636    0.0776786    0.0132819
   56   -0.0250799    0.0169207    0.1174170    0.0741964    0.2282574
   57    0.0861369    0.0222309    0.1472493   -0.0878017   -0.1779278
   58    0.0861369    0.0222309   -0.1472493   -0.0878017   -0.1779278
   59    0.0795947    0.0573818    0.1145068   -0.0879626   -0.0037123
   60    0.0795947    0.0573818   -0.1145068   -0.0879626   -0.0037123

 Ene    -0.7871229   -0.7598759   -0.7225158   -0.7036031   -0.6504789
 Sym            Ag           Ag           Bu           Ag           Ag
 Occ             1            1            1            1            1


                21           22           23           24           25

    1    0.0160726    0.0502092    0.0493631    0.0176219    0.0036383
    2   -0.0565981   -0.1753496   -0.1730138   -0.0601494   -0.0130230
    3    0.0000000    0.0000000    0.0000000    0.0000000    0.0000000
    4    0.1475713    0.0720047   -0.1549918    0.0021258   -0.1034903
    5    0.1738527   -0.1813999    0.1446348   -0.0108585   -0.1019971
    6   -0.0160726   -0.0502092   -0.0493631    0.0176219   -0.0036383
    7    0.0565981    0.1753496    0.1730138   -0.0601494    0.0130230
    8    0.0000000    0.0000000    0.0000000    0.0000000    0.0000000
    9    0.1475713    0.0720047   -0.1549918   -0.0021258   -0.1034903
   10    0.1738527   -0.1813999    0.1446348    0.0108585   -0.1019971
   11   -0.0159309   -0.0485277   -0.0266879   -0.0245591    0.0212944
   12    0.0544368    0.1666348    0.0958599    0.0830759   -0.0656936
   13    0.0000000    0.0000000    0.0000000    0.0000000    0.0000000
   14   -0.2149714    0.0893918   -0.0800189    0.0706946   -0.1198570
   15   -0.0238459    0.1836851    0.1147535   -0.0069410    0.3344922
   16    0.0159309    0.0485277    0.0266879   -0.0245591   -0.0212944
   17   -0.0544368   -0.1666348   -0.0958599    0.0830759    0.0656936
   18    0.0000000    0.0000000    0.0000000    0.0000000    0.0000000
   19   -0.2149714    0.0893918   -0.0800189   -0.0706946   -0.1198570
   20   -0.0238459    0.1836851    0.1147535    0.0069410    0.3344922
   21    0.0368814    0.0486420    0.0182242    0.0205285    0.0163738
   22   -0.1204011   -0.1682700   -0.0684143   -0.0762470   -0.0515270
   23    0.0000000    0.0000000    0.0000000    0.0000000    0.0000000
   24    0.1414777   -0.1801147   -0.0574953   -0.1288107    0.1929509
   25   -0.1044774    0.0137165   -0.2842063   -0.0355238    0.1961215
   26   -0.0368814   -0.0486420   -0.0182242    0.0205285   -0.0163738
   27    0.1204011    0.1682700    0.0684143   -0.0762470    0.0515270
   28    0.0000000    0.0000000    0.0000000    0.0000000    0.0000000
   29    0.1414777   -0.1801147   -0.0574953    0.1288107    0.1929509
   30   -0.1044774    0.0137165   -0.2842063    0.0355238    0.1961215
   31    0.0614709    0.1744820    0.1400522    0.0080430    0.2482341
   32   -0.0614709   -0.1744820   -0.1400522    0.0080430   -0.2482341
   33   -0.0379014   -0.1375700   -0.2338866   -0.1032175    0.1909221
   34    0.0379014    0.1375700    0.2338866   -0.1032175   -0.1909221
   35   -0.0121909    0.0124857    0.0053287   -0.0220737   -0.0036962
   36    0.0357116   -0.0336354   -0.0187770    0.0621624    0.0085682
   37    0.0000000    0.0000000    0.0000000    0.0000000    0.0000000
   38   -0.0966103   -0.2084825    0.1074260    0.0584920    0.0884294
   39    0.2114653   -0.0045154    0.0015144    0.2659056    0.0175147
   40    0.0121909   -0.0124857   -0.0053287   -0.0220737    0.0036962
   41   -0.0357116    0.0336354    0.0187770    0.0621624   -0.0085682
   42    0.0000000    0.0000000    0.0000000    0.0000000    0.0000000
   43   -0.0966103   -0.2084825    0.1074260   -0.0584920    0.0884294
   44    0.2114653   -0.0045154    0.0015144   -0.2659056    0.0175147
   45   -0.1365639   -0.0538765   -0.0026555   -0.1504029   -0.0059626
   46    0.1365639    0.0538765    0.0026555   -0.1504029    0.0059626
   47    0.0144035   -0.0149090   -0.0049498    0.0028412    0.0035804
   48   -0.0533061    0.0639716    0.0116081   -0.0248876   -0.0181440
   49    0.0000000    0.0000000    0.0000000    0.0000000    0.0000000
   50   -0.1995303    0.0652937    0.0857826   -0.3507603   -0.0419948
   51    0.0810998    0.2029861   -0.1754602    0.0003175   -0.0888553
   52   -0.0144035    0.0149090    0.0049498    0.0028412   -0.0035804
   53    0.0533061   -0.0639716   -0.0116081   -0.0248876    0.0181440
   54    0.0000000    0.0000000    0.0000000    0.0000000    0.0000000
   55   -0.1995303    0.0652937    0.0857826    0.3507603   -0.0419948
   56    0.0810998    0.2029861   -0.1754602   -0.0003175   -0.0888553
   57    0.0513706    0.1438233   -0.1438547    0.0215460   -0.0538478
   58   -0.0513706   -0.1438233    0.1438547    0.0215460    0.0538478
   59   -0.1513263    0.0279102    0.0954707   -0.2461950   -0.0187766
   60    0.1513263   -0.0279102   -0.0954707   -0.2461950    0.0187766

 Ene    -0.6349773   -0.6039995   -0.5961051   -0.5878272   -0.5688756
 Sym            Bu           Bu           Bu           Ag           Bu
 Occ             1            1            1            1            1


                26           27           28           29           30

    1    0.0054297    0.0232764    0.0000000    0.0140695    0.0051576
    2   -0.0201956   -0.0852916    0.0000000   -0.0589335   -0.0269834
    3    0.0000000    0.0000000    0.3620423    0.0000000    0.0000000
    4    0.1633657   -0.0369536    0.0000000    0.2190561    0.2471384
    5    0.1351859    0.0945962    0.0000000   -0.0827080    0.1822341
    6   -0.0054297    0.0232764    0.0000000   -0.0140695    0.0051576
    7    0.0201956   -0.0852916    0.0000000    0.0589335   -0.0269834
    8    0.0000000    0.0000000    0.3620423    0.0000000    0.0000000
    9    0.1633657    0.0369536    0.0000000    0.2190561   -0.2471384
   10    0.1351859   -0.0945962    0.0000000   -0.0827080   -0.1822341
   11   -0.0121788    0.0087368    0.0000000   -0.0037736    0.0003896
   12    0.0460518   -0.0403528    0.0000000    0.0104549   -0.0037987
   13    0.0000000    0.0000000    0.2854465    0.0000000    0.0000000
   14   -0.2200755    0.1706229    0.0000000    0.0469869   -0.2446089
   15   -0.0424613   -0.1416559    0.0000000   -0.0542939   -0.1726789
   16    0.0121788    0.0087368    0.0000000    0.0037736    0.0003896
   17   -0.0460518   -0.0403528    0.0000000   -0.0104549   -0.0037987
   18    0.0000000    0.0000000    0.2854465    0.0000000    0.0000000
   19   -0.2200755   -0.1706229    0.0000000    0.0469869    0.2446089
   20   -0.0424613    0.1416559    0.0000000   -0.0542939    0.1726789
   21    0.0090310   -0.0091902    0.0000000    0.0101807    0.0036825
   22   -0.0261845    0.0308874    0.0000000   -0.0358351   -0.0041197
   23    0.0000000    0.0000000    0.2874746    0.0000000    0.0000000
   24    0.2105373   -0.1691637    0.0000000   -0.0098508    0.2173852
   25   -0.0256565    0.0679599    0.0000000    0.1265719    0.1433412
   26   -0.0090310   -0.0091902    0.0000000   -0.0101807    0.0036825
   27    0.0261845    0.0308874    0.0000000    0.0358351   -0.0041197
   28    0.0000000    0.0000000    0.2874746    0.0000000    0.0000000
   29    0.2105373    0.1691637    0.0000000   -0.0098508   -0.2173852
   30   -0.0256565   -0.0679599    0.0000000    0.1265719   -0.1433412
   31    0.0429289   -0.1701720    0.0000000   -0.0393990   -0.0744557
   32   -0.0429289   -0.1701720    0.0000000    0.0393990   -0.0744557
   33    0.0728060   -0.0043152    0.0000000    0.0404463    0.2596489
   34   -0.0728060   -0.0043152    0.0000000   -0.0404463    0.2596489
   35    0.0008319   -0.0236144    0.0000000    0.0052789    0.0139221
   36    0.0132413    0.0967135    0.0000000   -0.0254630   -0.0594051
   37    0.0000000    0.0000000    0.1635874    0.0000000    0.0000000
   38   -0.1677641   -0.1180179    0.0000000   -0.1392381    0.2109030
   39   -0.2162085   -0.1932272    0.0000000    0.2355095   -0.0391638
   40   -0.0008319   -0.0236144    0.0000000   -0.0052789    0.0139221
   41   -0.0132413    0.0967135    0.0000000    0.0254630   -0.0594051
   42    0.0000000    0.0000000    0.1635874    0.0000000    0.0000000
   43   -0.1677641    0.1180179    0.0000000   -0.1392381   -0.2109030
   44   -0.2162085    0.1932272    0.0000000    0.2355095    0.0391638
   45    0.1391598    0.1727595    0.0000000   -0.2604523    0.0534234
   46   -0.1391598    0.1727595    0.0000000    0.2604523    0.0534234
   47    0.0128761    0.0097015    0.0000000   -0.0066988   -0.0046807
   48   -0.0299330   -0.0239871    0.0000000    0.0245760    0.0097100
   49    0.0000000    0.0000000    0.0926367    0.0000000    0.0000000
   50    0.2835954   -0.0424061    0.0000000    0.1485857   -0.1520266
   51    0.0913752    0.2944589    0.0000000   -0.2338929   -0.0146988
   52   -0.0128761    0.0097015    0.0000000    0.0066988   -0.0046807
   53    0.0299330   -0.0239871    0.0000000   -0.0245760    0.0097100
   54    0.0000000    0.0000000    0.0926367    0.0000000    0.0000000
   55    0.2835954    0.0424061    0.0000000    0.1485857    0.1520266
   56    0.0913752   -0.2944589    0.0000000   -0.2338929    0.0146988
   57    0.0316251    0.2376738    0.0000000   -0.2353712    0.0515732
   58   -0.0316251    0.2376738    0.0000000    0.2353712    0.0515732
   59    0.1782999   -0.1146275    0.0000000    0.2048592   -0.1278672
   60   -0.1782999   -0.1146275    0.0000000   -0.2048592   -0.1278672

 Ene    -0.5522447   -0.5371148   -0.5336526   -0.5010751   -0.4933111
 Sym            Bu           Ag           Au           Bu           Ag
 Occ             1            1            1            1            1


                31           32           33           34           35

    1    0.0113047    0.0000000    0.0000000    0.0000000    0.0000000
    2   -0.0508886    0.0000000    0.0000000    0.0000000    0.0000000
    3    0.0000000    0.3837473    0.0286294    0.0055027    0.3778366
    4    0.1364131    0.0000000    0.0000000    0.0000000    0.0000000
    5   -0.2568122    0.0000000    0.0000000    0.0000000    0.0000000
    6    0.0113047    0.0000000    0.0000000    0.0000000    0.0000000
    7   -0.0508886    0.0000000    0.0000000    0.0000000    0.0000000
    8    0.0000000   -0.3837473    0.0286294   -0.0055027   -0.3778366
    9   -0.1364131    0.0000000    0.0000000    0.0000000    0.0000000
   10    0.2568122    0.0000000    0.0000000    0.0000000    0.0000000
   11    0.0057314    0.0000000    0.0000000    0.0000000    0.0000000
   12   -0.0131429    0.0000000    0.0000000    0.0000000    0.0000000
   13    0.0000000    0.1342527    0.1690117    0.4608860    0.1939385
   14   -0.0886565    0.0000000    0.0000000    0.0000000    0.0000000
   15    0.2019524    0.0000000    0.0000000    0.0000000    0.0000000
   16    0.0057314    0.0000000    0.0000000    0.0000000    0.0000000
   17   -0.0131429    0.0000000    0.0000000    0.0000000    0.0000000
   18    0.0000000   -0.1342527    0.1690117   -0.4608860   -0.1939385
   19    0.0886565    0.0000000    0.0000000    0.0000000    0.0000000
   20   -0.2019524    0.0000000    0.0000000    0.0000000    0.0000000
   21   -0.0022157    0.0000000    0.0000000    0.0000000    0.0000000
   22    0.0044590    0.0000000    0.0000000    0.0000000    0.0000000
   23    0.0000000   -0.1401557    0.1678458    0.4603509   -0.2012267
   24    0.1102085    0.0000000    0.0000000    0.0000000    0.0000000
   25   -0.2514154    0.0000000    0.0000000    0.0000000    0.0000000
   26   -0.0022157    0.0000000    0.0000000    0.0000000    0.0000000
   27    0.0044590    0.0000000    0.0000000    0.0000000    0.0000000
   28    0.0000000    0.1401557    0.1678458   -0.4603509    0.2012267
   29   -0.1102085    0.0000000    0.0000000    0.0000000    0.0000000
   30    0.2514154    0.0000000    0.0000000    0.0000000    0.0000000
   31    0.2344923    0.0000000    0.0000000    0.0000000    0.0000000
   32    0.2344923    0.0000000    0.0000000    0.0000000    0.0000000
   33   -0.1105468    0.0000000    0.0000000    0.0000000    0.0000000
   34   -0.1105468    0.0000000    0.0000000    0.0000000    0.0000000
   35    0.0076388    0.0000000    0.0000000    0.0000000    0.0000000
   36   -0.0248936    0.0000000    0.0000000    0.0000000    0.0000000
   37    0.0000000   -0.3429311   -0.3899181   -0.0048522    0.2282693
   38    0.1379898    0.0000000    0.0000000    0.0000000    0.0000000
   39   -0.1654801    0.0000000    0.0000000    0.0000000    0.0000000
   40    0.0076388    0.0000000    0.0000000    0.0000000    0.0000000
   41   -0.0248936    0.0000000    0.0000000    0.0000000    0.0000000
   42    0.0000000    0.3429311   -0.3899181    0.0048522   -0.2282693
   43   -0.1379898    0.0000000    0.0000000    0.0000000    0.0000000
   44    0.1654801    0.0000000    0.0000000    0.0000000    0.0000000
   45    0.2007466    0.0000000    0.0000000    0.0000000    0.0000000
   46    0.2007466    0.0000000    0.0000000    0.0000000    0.0000000
   47    0.0048085    0.0000000    0.0000000    0.0000000    0.0000000
   48   -0.0194016    0.0000000    0.0000000    0.0000000    0.0000000
   49    0.0000000   -0.2654516   -0.4475182    0.0049063    0.4293992
   50   -0.0785491    0.0000000    0.0000000    0.0000000    0.0000000
   51    0.1378220    0.0000000    0.0000000    0.0000000    0.0000000
   52    0.0048085    0.0000000    0.0000000    0.0000000    0.0000000
   53   -0.0194016    0.0000000    0.0000000    0.0000000    0.0000000
   54    0.0000000    0.2654516   -0.4475182   -0.0049063   -0.4293992
   55    0.0785491    0.0000000    0.0000000    0.0000000    0.0000000
   56   -0.1378220    0.0000000    0.0000000    0.0000000    0.0000000
   57    0.1411889    0.0000000    0.0000000    0.0000000    0.0000000
   58    0.1411889    0.0000000    0.0000000    0.0000000    0.0000000
   59   -0.1213492    0.0000000    0.0000000    0.0000000    0.0000000
   60   -0.1213492    0.0000000    0.0000000    0.0000000    0.0000000

 Ene    -0.4827259   -0.4736307   -0.4179258   -0.3943614   -0.3697184
 Sym            Ag           Bg           Au           Bg           Bg
 Occ             1            1            1            1            1


                36           37           38           39           40

    1    0.0000000    0.0000000    0.0000000    0.0000000    0.0000000
    2    0.0000000    0.0000000    0.0000000    0.0000000    0.0000000
    3    0.4546400    0.0292464    0.0167664    0.4680353    0.5268679
    4    0.0000000    0.0000000    0.0000000    0.0000000    0.0000000
    5    0.0000000    0.0000000    0.0000000    0.0000000    0.0000000
    6    0.0000000    0.0000000    0.0000000    0.0000000    0.0000000
    7    0.0000000    0.0000000    0.0000000    0.0000000    0.0000000
    8    0.4546400    0.0292464   -0.0167664    0.4680353   -0.5268679
    9    0.0000000    0.0000000    0.0000000    0.0000000    0.0000000
   10    0.0000000    0.0000000    0.0000000    0.0000000    0.0000000
   11    0.0000000    0.0000000    0.0000000    0.0000000    0.0000000
   12    0.0000000    0.0000000    0.0000000    0.0000000    0.0000000
   13   -0.2571230   -0.5835629   -0.2453607   -0.1596303   -0.4729491
   14    0.0000000    0.0000000    0.0000000    0.0000000    0.0000000
   15    0.0000000    0.0000000    0.0000000    0.0000000    0.0000000
   16    0.0000000    0.0000000    0.0000000    0.0000000    0.0000000
   17    0.0000000    0.0000000    0.0000000    0.0000000    0.0000000
   18   -0.2571230   -0.5835629    0.2453607   -0.1596303    0.4729491
   19    0.0000000    0.0000000    0.0000000    0.0000000    0.0000000
   20    0.0000000    0.0000000    0.0000000    0.0000000    0.0000000
   21    0.0000000    0.0000000    0.0000000    0.0000000    0.0000000
   22    0.0000000    0.0000000    0.0000000    0.0000000    0.0000000
   23   -0.2988787    0.5525019    0.2354079   -0.1920803    0.4737849
   24    0.0000000    0.0000000    0.0000000    0.0000000    0.0000000
   25    0.0000000    0.0000000    0.0000000    0.0000000    0.0000000
   26    0.0000000    0.0000000    0.0000000    0.0000000    0.0000000
   27    0.0000000    0.0000000    0.0000000    0.0000000    0.0000000
   28   -0.2988787    0.5525019   -0.2354079   -0.1920803   -0.4737849
   29    0.0000000    0.0000000    0.0000000    0.0000000    0.0000000
   30    0.0000000    0.0000000    0.0000000    0.0000000    0.0000000
   31    0.0000000    0.0000000    0.0000000    0.0000000    0.0000000
   32    0.0000000    0.0000000    0.0000000    0.0000000    0.0000000
   33    0.0000000    0.0000000    0.0000000    0.0000000    0.0000000
   34    0.0000000    0.0000000    0.0000000    0.0000000    0.0000000
   35    0.0000000    0.0000000    0.0000000    0.0000000    0.0000000
   36    0.0000000    0.0000000    0.0000000    0.0000000    0.0000000
   37    0.2480068   -0.0054772   -0.5405423   -0.5538400    0.2920571
   38    0.0000000    0.0000000    0.0000000    0.0000000    0.0000000
   39    0.0000000    0.0000000    0.0000000    0.0000000    0.0000000
   40    0.0000000    0.0000000    0.0000000    0.0000000    0.0000000
   41    0.0000000    0.0000000    0.0000000    0.0000000    0.0000000
   42    0.2480068   -0.0054772    0.5405423   -0.5538400   -0.2920571
   43    0.0000000    0.0000000    0.0000000    0.0000000    0.0000000
   44    0.0000000    0.0000000    0.0000000    0.0000000    0.0000000
   45    0.0000000    0.0000000    0.0000000    0.0000000    0.0000000
   46    0.0000000    0.0000000    0.0000000    0.0000000    0.0000000
   47    0.0000000    0.0000000    0.0000000    0.0000000    0.0000000
   48    0.0000000    0.0000000    0.0000000    0.0000000    0.0000000
   49   -0.4140731   -0.0076195    0.5005518    0.3863993   -0.1557215
   50    0.0000000    0.0000000    0.0000000    0.0000000    0.0000000
   51    0.0000000    0.0000000    0.0000000    0.0000000    0.0000000
   52    0.0000000    0.0000000    0.0000000    0.0000000    0.0000000
   53    0.0000000    0.0000000    0.0000000    0.0000000    0.0000000
   54   -0.4140731   -0.0076195   -0.5005518    0.3863993    0.1557215
   55    0.0000000    0.0000000    0.0000000    0.0000000    0.0000000
   56    0.0000000    0.0000000    0.0000000    0.0000000    0.0000000
   57    0.0000000    0.0000000    0.0000000    0.0000000    0.0000000
   58    0.0000000    0.0000000    0.0000000    0.0000000    0.0000000
   59    0.0000000    0.0000000    0.0000000    0.0000000    0.0000000
   60    0.0000000    0.0000000    0.0000000    0.0000000    0.0000000

 Ene    -0.1774402   -0.1115119   -0.0943321   -0.0295967    0.0599885
 Sym            Au           Au           Bg           Au           Bg
 Occ             0            0            0            0            0


                41           42           43           44           45

    1    0.0821140    0.0499695    0.0588897    0.0382801    0.0709690
    2   -0.4880468   -0.2939238   -0.3432634   -0.2346519   -0.4337149
    3    0.0000000    0.0000000    0.0000000    0.0000000    0.0000000
    4    0.2938732    0.2225532    0.4467710   -0.1075118    0.1142576
    5   -0.0925428   -0.2994855    0.1837714   -0.1107070    0.3278727
    6    0.0821140   -0.0499695   -0.0588897    0.0382801    0.0709690
    7   -0.4880468    0.2939238    0.3432634   -0.2346519   -0.4337149
    8    0.0000000    0.0000000    0.0000000    0.0000000    0.0000000
    9   -0.2938732    0.2225532    0.4467710    0.1075118   -0.1142576
   10    0.0925428   -0.2994855    0.1837714    0.1107070   -0.3278727
   11    0.0193478   -0.0171409   -0.0256026   -0.0758509    0.0662784
   12   -0.1190920    0.0983922    0.1532117    0.4675798   -0.4059444
   13    0.0000000    0.0000000    0.0000000    0.0000000    0.0000000
   14    0.0185454    0.0437983    0.2589607   -0.1542061   -0.2349408
   15   -0.2951809   -0.3399140    0.1893556   -0.0239821    0.0071246
   16    0.0193478    0.0171409    0.0256026   -0.0758509    0.0662784
   17   -0.1190920   -0.0983922   -0.1532117    0.4675798   -0.4059444
   18    0.0000000    0.0000000    0.0000000    0.0000000    0.0000000
   19   -0.0185454    0.0437983    0.2589607    0.1542061    0.2349408
   20    0.2951809   -0.3399140    0.1893556    0.0239821   -0.0071246
   21    0.0383415    0.0209610    0.0155322   -0.0286298   -0.1252263
   22   -0.2320532   -0.1232811   -0.0894586    0.1804578    0.7710710
   23    0.0000000    0.0000000    0.0000000    0.0000000    0.0000000
   24   -0.0839168    0.0727594    0.2883177    0.2475411    0.0030922
   25   -0.2075457   -0.2560523    0.3046834    0.1496920   -0.1237809
   26    0.0383415   -0.0209610   -0.0155322   -0.0286298   -0.1252263
   27   -0.2320532    0.1232811    0.0894586    0.1804578    0.7710710
   28    0.0000000    0.0000000    0.0000000    0.0000000    0.0000000
   29    0.0839168    0.0727594    0.2883177   -0.2475411   -0.0030922
   30    0.2075457   -0.2560523    0.3046834   -0.1496920    0.1237809
   31    0.3780994    0.2955827   -0.1669618   -0.3219265    0.1472919
   32    0.3780994   -0.2955827    0.1669618   -0.3219265    0.1472919
   33    0.3905992    0.2231514   -0.4000491   -0.3325131   -0.2702479
   34    0.3905992   -0.2231514    0.4000491   -0.3325131   -0.2702479
   35   -0.0604973    0.0202672    0.0998928    0.0537025   -0.0356998
   36    0.3476156   -0.1195546   -0.5871682   -0.3227920    0.2174608
   37    0.0000000    0.0000000    0.0000000    0.0000000    0.0000000
   38   -0.3725656    0.2852691    0.3253076   -0.0761240   -0.2272537
   39    0.2452789   -0.3273360    0.0165020    0.2941815   -0.1827353
   40   -0.0604973   -0.0202672   -0.0998928    0.0537025   -0.0356998
   41    0.3476156    0.1195546    0.5871682   -0.3227920    0.2174608
   42    0.0000000    0.0000000    0.0000000    0.0000000    0.0000000
   43    0.3725656    0.2852691    0.3253076    0.0761240    0.2272537
   44   -0.2452789   -0.3273360    0.0165020   -0.2941815    0.1827353
   45    0.1225810   -0.3537354    0.2678219    0.5207461   -0.2585660
   46    0.1225810    0.3537354   -0.2678219    0.5207461   -0.2585660
   47    0.0383618   -0.0097801   -0.0352574   -0.0222033   -0.0817068
   48   -0.2221463    0.0594376    0.2015226    0.1288650    0.5188260
   49    0.0000000    0.0000000    0.0000000    0.0000000    0.0000000
   50   -0.1192742    0.1395897    0.0558604   -0.2103681    0.0415544
   51    0.1549799   -0.3136963   -0.0550509    0.3057022    0.1613614
   52    0.0383618    0.0097801    0.0352574   -0.0222033   -0.0817068
   53   -0.2221463   -0.0594376   -0.2015226    0.1288650    0.5188260
   54    0.0000000    0.0000000    0.0000000    0.0000000    0.0000000
   55    0.1192742    0.1395897    0.0558604    0.2103681   -0.0415544
   56   -0.1549799   -0.3136963   -0.0550509   -0.3057022   -0.1613614
   57   -0.1324061    0.3228986   -0.0023286   -0.4029858   -0.3867069
   58   -0.1324061   -0.3228986    0.0023286   -0.4029858   -0.3867069
   59    0.3474106   -0.3046885   -0.2175879    0.2262859   -0.2566897
   60    0.3474106    0.3046885    0.2175879    0.2262859   -0.2566897

 Ene     0.1397338    0.1490134    0.1792591    0.1964852    0.2147028
 Sym            Ag           Bu           Bu           Ag           Ag
 Occ             0            0            0            0            0


                46           47           48           49           50

    1    0.0839441    0.1173893    0.0170486    0.0583060    0.0256854
    2   -0.5052231   -0.7242239   -0.1128490   -0.3537484   -0.1632947
    3    0.0000000    0.0000000    0.0000000    0.0000000    0.0000000
    4   -0.1084569   -0.1729048   -0.1966725   -0.1157525   -0.0363679
    5    0.1487387   -0.0457158    0.0907921   -0.1925456   -0.3262942
    6   -0.0839441    0.1173893   -0.0170486   -0.0583060    0.0256854
    7    0.5052231   -0.7242239    0.1128490    0.3537484   -0.1632947
    8    0.0000000    0.0000000    0.0000000    0.0000000    0.0000000
    9   -0.1084569    0.1729048   -0.1966725   -0.1157525    0.0363679
   10    0.1487387    0.0457158    0.0907921   -0.1925456    0.3262942
   11   -0.0810932   -0.1021797   -0.0441122   -0.0586382   -0.0901182
   12    0.4843582    0.6387824    0.2755852    0.3612934    0.5735893
   13    0.0000000    0.0000000    0.0000000    0.0000000    0.0000000
   14   -0.0808065   -0.2319029   -0.3033042   -0.1515133    0.1429420
   15    0.1108766   -0.0447743    0.2566757   -0.1725221   -0.1485093
   16    0.0810932   -0.1021797    0.0441122    0.0586382   -0.0901182
   17   -0.4843582    0.6387824   -0.2755852   -0.3612934    0.5735893
   18    0.0000000    0.0000000    0.0000000    0.0000000    0.0000000
   19   -0.0808065    0.2319029   -0.3033042   -0.1515133   -0.1429420
   20    0.1108766    0.0447743    0.2566757   -0.1725221    0.1485093
   21    0.1058238   -0.0370069   -0.0098095    0.0529929    0.0899224
   22   -0.6433656    0.2343640    0.0707501   -0.3236354   -0.5744075
   23    0.0000000    0.0000000    0.0000000    0.0000000    0.0000000
   24   -0.2195241    0.2464281   -0.0784627   -0.0897707    0.1752200
   25    0.0442762   -0.2794314    0.2378657   -0.1452396   -0.0678330
   26   -0.1058238   -0.0370069    0.0098095   -0.0529929    0.0899224
   27    0.6433656    0.2343640   -0.0707501    0.3236354   -0.5744075
   28    0.0000000    0.0000000    0.0000000    0.0000000    0.0000000
   29   -0.2195241   -0.2464281   -0.0784627   -0.0897707   -0.1752200
   30    0.0442762    0.2794314    0.2378657   -0.1452396    0.0678330
   31   -0.4128324   -0.3400204   -0.5099399   -0.0661579   -0.1072093
   32    0.4128324   -0.3400204    0.5099399    0.0661579   -0.1072093
   33    0.4096986   -0.0923489   -0.1315150    0.4006274    0.2795047
   34   -0.4096986   -0.0923489    0.1315150   -0.4006274    0.2795047
   35    0.0180373   -0.0798935   -0.0660824    0.0765860   -0.0259569
   36   -0.1149760    0.4833060    0.4194601   -0.4695021    0.1863993
   37    0.0000000    0.0000000    0.0000000    0.0000000    0.0000000
   38    0.1193171    0.0009124   -0.0444058   -0.1375000   -0.0716274
   39    0.1351504   -0.0998210   -0.2589069    0.0368729   -0.0647038
   40   -0.0180373   -0.0798935    0.0660824   -0.0765860   -0.0259569
   41    0.1149760    0.4833060   -0.4194601    0.4695021    0.1863993
   42    0.0000000    0.0000000    0.0000000    0.0000000    0.0000000
   43    0.1193171   -0.0009124   -0.0444058   -0.1375000    0.0716274
   44    0.1351504    0.0998210   -0.2589069    0.0368729    0.0647038
   45    0.1316839   -0.3467523   -0.4583305    0.3120423   -0.0950312
   46   -0.1316839   -0.3467523    0.4583305   -0.3120423   -0.0950312
   47    0.0762405    0.0746586   -0.0439784   -0.1164882   -0.0814638
   48   -0.4814257   -0.4606948    0.2846068    0.7381639    0.5246338
   49    0.0000000    0.0000000    0.0000000    0.0000000    0.0000000
   50   -0.0720917    0.0517449    0.3407399   -0.0480336    0.4078307
   51   -0.2074217   -0.1116894   -0.0248137    0.1671193    0.1377574
   52   -0.0762405    0.0746586    0.0439784    0.1164882   -0.0814638
   53    0.4814257   -0.4606948   -0.2846068   -0.7381639    0.5246338
   54    0.0000000    0.0000000    0.0000000    0.0000000    0.0000000
   55   -0.0720917   -0.0517449    0.3407399   -0.0480336   -0.4078307
   56   -0.2074217    0.1116894   -0.0248137    0.1671193   -0.1377574
   57    0.3955480    0.3565745   -0.0287021   -0.5767229   -0.3445490
   58   -0.3955480    0.3565745    0.0287021    0.5767229   -0.3445490
   59    0.2583930    0.1664237   -0.4623949   -0.2802654   -0.5698865
   60   -0.2583930    0.1664237    0.4623949    0.2802654   -0.5698865

 Ene     0.2203801    0.2397024    0.2406042    0.2630464    0.2853412
 Sym            Bu           Ag           Bu           Bu           Ag
 Occ             0            0            0            0            0


                51           52           53           54           55

    1    0.0455934   -0.0003644    0.0016925    0.0630344    0.0772398
    2   -0.3176023    0.0103440   -0.0063046   -0.4396822   -0.5290920
    3    0.0000000    0.0000000    0.0000000    0.0000000    0.0000000
    4   -0.6134331   -0.0685648    0.0177257    0.0399557    0.0191495
    5    0.1372950   -0.5498233   -0.1548995   -0.1841517    0.1930478
    6    0.0455934    0.0003644    0.0016925   -0.0630344   -0.0772398
    7   -0.3176023   -0.0103440   -0.0063046    0.4396822    0.5290920
    8    0.0000000    0.0000000    0.0000000    0.0000000    0.0000000
    9    0.6134331   -0.0685648   -0.0177257    0.0399557    0.0191495
   10   -0.1372950   -0.5498233    0.1548995   -0.1841517    0.1930478
   11    0.0019690   -0.0952859    0.0118124    0.0481597    0.0002577
   12   -0.0093373    0.6405827   -0.0695954   -0.3265639   -0.0117161
   13    0.0000000    0.0000000    0.0000000    0.0000000    0.0000000
   14   -0.1099987   -0.1439564    0.1596702   -0.7068313   -0.0071832
   15   -0.4400336    0.0597446   -0.5439027   -0.2343720   -0.2484580
   16    0.0019690    0.0952859    0.0118124   -0.0481597   -0.0002577
   17   -0.0093373   -0.6405827   -0.0695954    0.3265639    0.0117161
   18    0.0000000    0.0000000    0.0000000    0.0000000    0.0000000
   19    0.1099987   -0.1439564   -0.1596702   -0.7068313   -0.0071832
   20    0.4400336    0.0597446    0.5439027   -0.2343720   -0.2484580
   21   -0.0363558   -0.0441270   -0.0150569   -0.0853349    0.0383762
   22    0.2375524    0.3054648    0.0901308    0.5850964   -0.2582904
   23    0.0000000    0.0000000    0.0000000    0.0000000    0.0000000
   24   -0.0843641    0.4707398    0.3532315   -0.4330591   -0.0970472
   25   -0.3358267   -0.1550675    0.5083489    0.3799788    0.3179125
   26   -0.0363558    0.0441270   -0.0150569    0.0853349   -0.0383762
   27    0.2375524   -0.3054648    0.0901308   -0.5850964    0.2582904
   28    0.0000000    0.0000000    0.0000000    0.0000000    0.0000000
   29    0.0843641    0.4707398   -0.3532315   -0.4330591   -0.0970472
   30    0.3358267   -0.1550675   -0.5083489    0.3799788    0.3179125
   31    0.3033783   -0.3559470    0.4983881    0.1246933    0.1427252
   32    0.3033783    0.3559470    0.4983881   -0.1246933   -0.1427252
   33    0.1380810   -0.2711881   -0.5499862   -0.2728631   -0.0002619
   34    0.1380810    0.2711881   -0.5499862    0.2728631    0.0002619
   35    0.0925588    0.0226424   -0.0461879    0.0561495   -0.0355142
   36   -0.6002270   -0.1697342    0.3173151   -0.3831283    0.2594145
   37    0.0000000    0.0000000    0.0000000    0.0000000    0.0000000
   38    0.0185167   -0.0585062    0.1639258    0.0023355    0.4711325
   39    0.1243492   -0.2244557    0.1378256    0.0411615   -0.3174742
   40    0.0925588   -0.0226424   -0.0461879   -0.0561495    0.0355142
   41   -0.6002270    0.1697342    0.3173151    0.3831283   -0.2594145
   42    0.0000000    0.0000000    0.0000000    0.0000000    0.0000000
   43   -0.0185167   -0.0585062   -0.1639258    0.0023355    0.4711325
   44   -0.1243492   -0.2244557   -0.1378256    0.0411615   -0.3174742
   45    0.3434523   -0.1322609   -0.0747300    0.2072761   -0.4015456
   46    0.3434523    0.1322609   -0.0747300   -0.2072761    0.4015456
   47   -0.0290652    0.0042321    0.0425839   -0.0005412    0.0212245
   48    0.1835659   -0.0152886   -0.2943758    0.0002937   -0.1495861
   49    0.0000000    0.0000000    0.0000000    0.0000000    0.0000000
   50    0.0621394   -0.4591155    0.2658725   -0.1240458   -0.2401357
   51   -0.3167250   -0.0312461    0.0636188   -0.1952988    0.5585793
   52   -0.0290652   -0.0042321    0.0425839    0.0005412   -0.0212245
   53    0.1835659    0.0152886   -0.2943758   -0.0002937    0.1495861
   54    0.0000000    0.0000000    0.0000000    0.0000000    0.0000000
   55   -0.0621394   -0.4591155   -0.2658725   -0.1240458   -0.2401357
   56    0.3167250   -0.0312461   -0.0636188   -0.1952988    0.5585793
   57    0.1732876   -0.0129557    0.1651462    0.1748329   -0.3910478
   58    0.1732876    0.0129557    0.1651462   -0.1748329    0.3910478
   59   -0.2303416    0.3775726   -0.0703958    0.0421163    0.3680176
   60   -0.2303416   -0.3775726   -0.0703958   -0.0421163   -0.3680176

 Ene     0.3198229    0.3442791    0.3800254    0.3978138    0.4255009
 Sym            Ag           Bu           Ag           Bu           Bu
 Occ             0            0            0            0            0


                56           57           58           59           60

    1    0.0146987    0.0189262    0.0198285    0.0055104    0.0401207
    2   -0.0905706   -0.1216968   -0.1406804   -0.0366839   -0.3035720
    3    0.0000000    0.0000000    0.0000000    0.0000000    0.0000000
    4    0.2780455    0.3834552   -0.1331667   -0.0458581   -0.6437148
    5   -0.1194156    0.1139026   -0.4445554   -0.6914993    0.1572911
    6    0.0146987    0.0189262   -0.0198285    0.0055104   -0.0401207
    7   -0.0905706   -0.1216968    0.1406804   -0.0366839    0.3035720
    8    0.0000000    0.0000000    0.0000000    0.0000000    0.0000000
    9   -0.2780455   -0.3834552   -0.1331667    0.0458581   -0.6437148
   10    0.1194156   -0.1139026   -0.4445554    0.6914993    0.1572911
   11    0.0257981   -0.0187103   -0.0448354   -0.0048152   -0.0473663
   12   -0.1830044    0.1338575    0.3248936    0.0342203    0.3459452
   13    0.0000000    0.0000000    0.0000000    0.0000000    0.0000000
   14   -0.4269070    0.3503218   -0.1256678   -0.5423451    0.2462124
   15    0.2311478    0.1142375   -0.1959117   -0.2418064   -0.5673452
   16    0.0257981   -0.0187103    0.0448354   -0.0048152    0.0473663
   17   -0.1830044    0.1338575   -0.3248936    0.0342203   -0.3459452
   18    0.0000000    0.0000000    0.0000000    0.0000000    0.0000000
   19    0.4269070   -0.3503218   -0.1256678    0.5423451    0.2462124
   20   -0.2311478   -0.1142375   -0.1959117    0.2418064   -0.5673452
   21   -0.0342707    0.0124487   -0.0210957    0.0043268    0.0521678
   22    0.2364216   -0.0918623    0.1568809   -0.0298282   -0.3831082
   23    0.0000000    0.0000000    0.0000000    0.0000000    0.0000000
   24   -0.3531129    0.4238469    0.2138828   -0.4196353    0.3953819
   25    0.1412745    0.0435393   -0.0367146    0.4355968    0.4974053
   26   -0.0342707    0.0124487    0.0210957    0.0043268   -0.0521678
   27    0.2364216   -0.0918623   -0.1568809   -0.0298282    0.3831082
   28    0.0000000    0.0000000    0.0000000    0.0000000    0.0000000
   29    0.3531129   -0.4238469    0.2138828    0.4196353    0.3953819
   30   -0.1412745   -0.0435393   -0.0367146   -0.4355968    0.4974053
   31   -0.2160143   -0.0540579   -0.0167203    0.0121137    0.2906418
   32   -0.2160143   -0.0540579    0.0167203    0.0121137   -0.2906418
   33   -0.0231945   -0.2149205   -0.1138538   -0.0461095   -0.2985134
   34   -0.0231945   -0.2149205    0.1138538   -0.0461095    0.2985134
   35   -0.0347709    0.0408919   -0.0587294    0.0253182   -0.0110960
   36    0.2486030   -0.3202014    0.4478724   -0.2038826    0.0655049
   37    0.0000000    0.0000000    0.0000000    0.0000000    0.0000000
   38   -0.1106271   -0.6699946    0.4532036   -0.3127416   -0.3737438
   39    0.5622333   -0.0630626    0.6245428   -0.4351141    0.0219722
   40   -0.0347709    0.0408919    0.0587294    0.0253182    0.0110960
   41    0.2486030   -0.3202014   -0.4478724   -0.2038826   -0.0655049
   42    0.0000000    0.0000000    0.0000000    0.0000000    0.0000000
   43    0.1106271    0.6699946    0.4532036    0.3127416   -0.3737438
   44   -0.5622333    0.0630626    0.6245428    0.4351141    0.0219722
   45    0.3388634    0.1862940    0.1958604   -0.1714705    0.0574198
   46    0.3388634    0.1862940   -0.1958604   -0.1714705   -0.0574198
   47    0.0296402   -0.0441925    0.0679199   -0.0393971   -0.0098779
   48   -0.2217286    0.3348190   -0.5182913    0.3115220    0.0848496
   49    0.0000000    0.0000000    0.0000000    0.0000000    0.0000000
   50    0.5526361   -0.1474320    0.5509403   -0.3207508   -0.0003501
   51   -0.1335223   -0.6066121    0.3864940   -0.2534374   -0.2383224
   52    0.0296402   -0.0441925   -0.0679199   -0.0393971    0.0098779
   53   -0.2217286    0.3348190    0.5182913    0.3115220   -0.0848496
   54    0.0000000    0.0000000    0.0000000    0.0000000    0.0000000
   55   -0.5526361    0.1474320    0.5509403    0.3207508   -0.0003501
   56    0.1335223    0.6066121    0.3864940    0.2534374   -0.2383224
   57    0.2686466    0.3095262   -0.0082810    0.0371180    0.1547087
   58    0.2686466    0.3095262    0.0082810    0.0371180   -0.1547087
   59   -0.3529010   -0.1490008   -0.1160570    0.0571121   -0.0723776
   60   -0.3529010   -0.1490008    0.1160570    0.0571121    0.0723776

 Ene     0.4381889    0.4777459    0.5060355    0.5675719    0.5817991
 Sym            Ag           Ag           Bu           Ag           Bu
 Occ             0            0            0            0            0



  ==> Beta-Spin Molecular Orbitals <==

                 1            2            3            4            5

    1    0.7003121    0.7003345    0.0108238    0.0063940    0.0103503
    2    0.0309501    0.0307603   -0.0075889   -0.0038944   -0.0047410
    3    0.0000000    0.0000000    0.0000000    0.0000000    0.0000000
    4    0.0010055    0.0007350   -0.0024556   -0.0008279    0.0041787
    5   -0.0000429    0.0000065    0.0031502    0.0048624   -0.0004515
    6   -0.7003121    0.7003345   -0.0108238    0.0063940    0.0103503
    7   -0.0309501    0.0307603    0.0075889   -0.0038944   -0.0047410
    8    0.0000000    0.0000000    0.0000000    0.0000000    0.0000000
    9    0.0010055   -0.0007350   -0.0024556    0.0008279   -0.0041787
   10   -0.0000429   -0.0000065    0.0031502   -0.0048624    0.0004515
   11   -0.0077212   -0.0081037    0.1658488   -0.1922859   -0.0349236
   12   -0.0070942   -0.0064865    0.0138870   -0.0146559   -0.0015252
   13    0.0000000    0.0000000    0.0000000    0.0000000    0.0000000
   14    0.0026548    0.0028864    0.0043388   -0.0042921   -0.0000920
   15    0.0034963    0.0033219   -0.0010679    0.0009986    0.0001494
   16    0.0077212   -0.0081037   -0.1658488   -0.1922859   -0.0349236
   17    0.0070942   -0.0064865   -0.0138870   -0.0146559   -0.0015252
   18    0.0000000    0.0000000    0.0000000    0.0000000    0.0000000
   19    0.0026548   -0.0028864    0.0043388    0.0042921    0.0000920
   20    0.0034963   -0.0033219   -0.0010679   -0.0009986   -0.0001494
   21    0.0080690   -0.0084011   -0.6802506    0.6732333    0.0003675
   22    0.0070646   -0.0064404   -0.0317036    0.0313720    0.0004250
   23    0.0000000    0.0000000    0.0000000    0.0000000    0.0000000
   24    0.0014022   -0.0016884    0.0018351   -0.0018007   -0.0001018
   25   -0.0041332    0.0040223    0.0007240   -0.0004122    0.0001178
   26   -0.0080690   -0.0084011    0.6802506    0.6732333    0.0003675
   27   -0.0070646   -0.0064404    0.0317036    0.0313720    0.0004250
   28    0.0000000    0.0000000    0.0000000    0.0000000    0.0000000
   29    0.0014022    0.0016884    0.0018351    0.0018007    0.0001018
   30   -0.0041332   -0.0040223    0.0007240    0.0004122   -0.0001178
   31    0.0002292    0.0001171   -0.0016550    0.0017762    0.0002890
   32   -0.0002292    0.0001171    0.0016550    0.0017762    0.0002890
   33   -0.0002251    0.0001154    0.0061265   -0.0061252   -0.0001664
   34    0.0002251    0.0001154   -0.0061265   -0.0061252   -0.0001664
   35    0.0096256   -0.0097587    0.0040973   -0.0100939    0.6993207
   36    0.0058481   -0.0059111   -0.0000366   -0.0003914    0.0309289
   37    0.0000000    0.0000000    0.0000000    0.0000000    0.0000000
   38   -0.0039330    0.0039754    0.0000607    0.0000377    0.0010378
   39    0.0008562   -0.0008644   -0.0000559    0.0001026    0.0009815
   40   -0.0096256   -0.0097587   -0.0040973   -0.0100939    0.6993207
   41   -0.0058481   -0.0059111    0.0000366   -0.0003914    0.0309289
   42    0.0000000    0.0000000    0.0000000    0.0000000    0.0000000
   43   -0.0039330   -0.0039754    0.0000607   -0.0000377   -0.0010378
   44    0.0008562    0.0008644   -0.0000559   -0.0001026   -0.0009815
   45   -0.0001592    0.0001675    0.0000057    0.0000447   -0.0063373
   46    0.0001592    0.0001675   -0.0000057    0.0000447   -0.0063373
   47   -0.0000947    0.0000925    0.0011896   -0.0007813   -0.0182162
   48   -0.0002850    0.0002847    0.0000972   -0.0000096   -0.0080902
   49    0.0000000    0.0000000    0.0000000    0.0000000    0.0000000
   50    0.0001921   -0.0001971   -0.0000543    0.0000033    0.0034760
   51   -0.0000767    0.0000772    0.0000637   -0.0000807    0.0030743
   52    0.0000947    0.0000925   -0.0011896   -0.0007813   -0.0182162
   53    0.0002850    0.0002847   -0.0000972   -0.0000096   -0.0080902
   54    0.0000000    0.0000000    0.0000000    0.0000000    0.0000000
   55    0.0001921    0.0001971   -0.0000543   -0.0000033   -0.0034760
   56   -0.0000767   -0.0000772    0.0000637    0.0000807   -0.0030743
   57    0.0001403   -0.0001327   -0.0001770    0.0001772    0.0002875
   58   -0.0001403   -0.0001327    0.0001770    0.0001772    0.0002875
   59    0.0000248   -0.0000238    0.0000120   -0.0000107    0.0003030
   60   -0.0000248   -0.0000238   -0.0000120   -0.0000107    0.0003030

 Ene   -10.2511764  -10.2511304  -10.2197480  -10.2197115  -10.2189705
 Sym            Bu           Ag           Bu           Ag           Ag
 Occ             1            1            1            1            1


                 6            7            8            9           10

    1    0.0106297    0.0064889    0.0118812    0.0002213   -0.0002027
    2   -0.0050199   -0.0047093   -0.0073975    0.0000718   -0.0000770
    3    0.0000000    0.0000000    0.0000000    0.0000000    0.0000000
    4    0.0041030   -0.0024041   -0.0029828    0.0000057   -0.0000068
    5   -0.0005453   -0.0041131   -0.0021137   -0.0000319    0.0000292
    6   -0.0106297   -0.0064889    0.0118812    0.0002213    0.0002027
    7    0.0050199    0.0047093   -0.0073975    0.0000718    0.0000770
    8    0.0000000    0.0000000    0.0000000    0.0000000    0.0000000
    9    0.0041030   -0.0024041    0.0029828   -0.0000057   -0.0000068
   10   -0.0005453   -0.0041131    0.0021137    0.0000319    0.0000292
   11   -0.0099261    0.6804393    0.6726593    0.0011725   -0.0004626
   12   -0.0002802    0.0284993    0.0277762   -0.0000390   -0.0000134
   13    0.0000000    0.0000000    0.0000000    0.0000000    0.0000000
   14    0.0000146   -0.0005363   -0.0008154    0.0000221   -0.0000830
   15    0.0000312   -0.0008870   -0.0005023    0.0000179   -0.0000054
   16    0.0099261   -0.6804393    0.6726593    0.0011725    0.0004626
   17    0.0002802   -0.0284993    0.0277762   -0.0000390    0.0000134
   18    0.0000000    0.0000000    0.0000000    0.0000000    0.0000000
   19    0.0000146   -0.0005363    0.0008154   -0.0000221   -0.0000830
   20    0.0000312   -0.0008870    0.0005023   -0.0000179   -0.0000054
   21   -0.0064721    0.1667731    0.1934256    0.0014400    0.0012417
[...]
   36   -0.1316168    0.4545334    0.4968775   -0.4269231    0.1943292
   37    0.0000000    0.0000000    0.0000000    0.0000000    0.0000000
   38    0.1108893   -0.0266415   -0.0146087   -0.1333371   -0.0724812
   39    0.1246860   -0.2691328   -0.0954913    0.0127772   -0.0664774
   40   -0.0207327    0.0716828   -0.0818448   -0.0699353   -0.0268999
   41    0.1316168   -0.4545334    0.4968775    0.4269231    0.1943292
   42    0.0000000    0.0000000    0.0000000    0.0000000    0.0000000
   43    0.1108893   -0.0266415    0.0146087   -0.1333371    0.0724812
   44    0.1246860   -0.2691328    0.0954913    0.0127772    0.0664774
   45    0.1311900   -0.4900648   -0.3399732    0.2654278   -0.0984646
   46   -0.1311900    0.4900648   -0.3399732   -0.2654278   -0.0984646
   47    0.0698808   -0.0352055    0.0749123   -0.1253243   -0.0859710
   48   -0.4374778    0.2271309   -0.4581609    0.7883801    0.5485810
   49    0.0000000    0.0000000    0.0000000    0.0000000    0.0000000
   50   -0.0631640    0.3410911    0.0443442    0.0007280    0.4072448
   51   -0.2108455   -0.0358233   -0.0928000    0.1746893    0.1626185
   52   -0.0698808    0.0352055    0.0749123    0.1253243   -0.0859710
   53    0.4374778   -0.2271309   -0.4581609   -0.7883801    0.5485810
   54    0.0000000    0.0000000    0.0000000    0.0000000    0.0000000
   55   -0.0631640    0.3410911   -0.0443442    0.0007280   -0.4072448
   56   -0.2108455   -0.0358233    0.0928000    0.1746893   -0.1626185
   57    0.3727130    0.0165271    0.3307992   -0.5900069   -0.3743235
   58   -0.3727130   -0.0165271    0.3307992    0.5900069   -0.3743235
   59    0.2245517   -0.4345971    0.1776254   -0.3451085   -0.5702412
   60   -0.2245517    0.4345971    0.1776254    0.3451085   -0.5702412

 Ene     0.2257663    0.2420526    0.2463550    0.2700592    0.2904884
 Sym            Bu           Bu           Ag           Bu           Ag
 Occ             0            0            0            0            0


                51           52           53           54           55

    1    0.0510978    0.0014332    0.0015108    0.0626759    0.0802249
    2   -0.3506370   -0.0175319   -0.0049568   -0.4340460   -0.5466311
    3    0.0000000    0.0000000    0.0000000    0.0000000    0.0000000
    4   -0.6192413    0.0703261    0.0203917    0.0409109    0.0240161
    5    0.1311291    0.5506005   -0.1574107   -0.2009111    0.1967208
    6    0.0510978   -0.0014332    0.0015108   -0.0626759   -0.0802249
    7   -0.3506370    0.0175319   -0.0049568    0.4340460    0.5466311
    8    0.0000000    0.0000000    0.0000000    0.0000000    0.0000000
    9    0.6192413    0.0703261   -0.0203917    0.0409109    0.0240161
   10   -0.1311291    0.5506005    0.1574107   -0.2009111    0.1967208
   11   -0.0021583    0.0957194    0.0101720    0.0456207    0.0015003
   12    0.0172028   -0.6438143   -0.0585215   -0.3095177   -0.0209533
   13    0.0000000    0.0000000    0.0000000    0.0000000    0.0000000
   14   -0.1163630    0.1306366    0.1717103   -0.7101007   -0.0252367
   15   -0.4489444   -0.0576216   -0.5444158   -0.2256118   -0.2484799
   16   -0.0021583   -0.0957194    0.0101720   -0.0456207   -0.0015003
   17    0.0172028    0.6438143   -0.0585215    0.3095177    0.0209533
   18    0.0000000    0.0000000    0.0000000    0.0000000    0.0000000
   19    0.1163630    0.1306366   -0.1717103   -0.7101007   -0.0252367
   20    0.4489444   -0.0576216    0.5444158   -0.2256118   -0.2484799
   21   -0.0372606    0.0422268   -0.0133178   -0.0861585    0.0375814
   22    0.2432242   -0.2927477    0.0783846    0.5911904   -0.2523606
   23    0.0000000    0.0000000    0.0000000    0.0000000    0.0000000
   24   -0.0712085   -0.4761971    0.3655815   -0.4245085   -0.1157352
   25   -0.3418757    0.1655967    0.5089532    0.3657769    0.3271770
   26   -0.0372606   -0.0422268   -0.0133178    0.0861585   -0.0375814
   27    0.2432242    0.2927477    0.0783846   -0.5911904    0.2523606
   28    0.0000000    0.0000000    0.0000000    0.0000000    0.0000000
   29    0.0712085   -0.4761971   -0.3655815   -0.4245085   -0.1157352
   30    0.3418757    0.1655967   -0.5089532    0.3657769    0.3271770
   31    0.2961672    0.3502652    0.4968963    0.1112263    0.1413582
   32    0.2961672   -0.3502652    0.4968963   -0.1112263   -0.1413582
   33    0.1335969    0.2600684   -0.5512426   -0.2710274   -0.0000404
   34    0.1335969   -0.2600684   -0.5512426    0.2710274    0.0000404
   35    0.0876206   -0.0222686   -0.0459824    0.0580951   -0.0319597
   36   -0.5693763    0.1677977    0.3152355   -0.3972922    0.2354896
   37    0.0000000    0.0000000    0.0000000    0.0000000    0.0000000
   38    0.0182445    0.0600174    0.1579107   -0.0074408    0.4653672
   39    0.1213987    0.2233825    0.1219020    0.0462664   -0.3211852
   40    0.0876206    0.0222686   -0.0459824   -0.0580951    0.0319597
   41   -0.5693763   -0.1677977    0.3152355    0.3972922   -0.2354896
   42    0.0000000    0.0000000    0.0000000    0.0000000    0.0000000
   43   -0.0182445    0.0600174   -0.1579107   -0.0074408    0.4653672
   44   -0.1213987    0.2233825   -0.1219020    0.0462664   -0.3211852
   45    0.3256301    0.1314933   -0.0848820    0.2167655   -0.3916313
   46    0.3256301   -0.1314933   -0.0848820   -0.2167655    0.3916313
   47   -0.0305603   -0.0038778    0.0439161   -0.0012726    0.0206927
   48    0.1917556    0.0127341   -0.2994607    0.0054465   -0.1443796
   49    0.0000000    0.0000000    0.0000000    0.0000000    0.0000000
   50    0.0844221    0.4638721    0.2489029   -0.1239016   -0.2538958
   51   -0.3088194    0.0256379    0.0579022   -0.2127552    0.5498199
   52   -0.0305603    0.0038778    0.0439161    0.0012726   -0.0206927
   53    0.1917556   -0.0127341   -0.2994607   -0.0054465    0.1443796
   54    0.0000000    0.0000000    0.0000000    0.0000000    0.0000000
   55   -0.0844221    0.4638721   -0.2489029   -0.1239016   -0.2538958
   56    0.3088194    0.0256379   -0.0579022   -0.2127552    0.5498199
   57    0.1647347    0.0207068    0.1696678    0.1850254   -0.3853099
   58    0.1647347   -0.0207068    0.1696678   -0.1850254    0.3853099
   59   -0.2490245   -0.3793486   -0.0548475    0.0355524    0.3719826
   60   -0.2490245    0.3793486   -0.0548475   -0.0355524   -0.3719826

 Ene     0.3235509    0.3477319    0.3815202    0.3999934    0.4298200
 Sym            Ag           Bu           Ag           Bu           Bu
 Occ             0            0            0            0            0


                56           57           58           59           60

    1    0.0152344    0.0189796    0.0210546    0.0057005    0.0414888
    2   -0.0935066   -0.1217586   -0.1487066   -0.0378331   -0.3116393
    3    0.0000000    0.0000000    0.0000000    0.0000000    0.0000000
    4    0.2825940    0.3806813   -0.1373623   -0.0437017   -0.6452061
    5   -0.1283538    0.1286806   -0.4402482   -0.6909970    0.1599839
    6    0.0152344    0.0189796   -0.0210546    0.0057005   -0.0414888
    7   -0.0935066   -0.1217586    0.1487066   -0.0378331    0.3116393
    8    0.0000000    0.0000000    0.0000000    0.0000000    0.0000000
    9   -0.2825940   -0.3806813   -0.1373623    0.0437017   -0.6452061
   10    0.1283538   -0.1286806   -0.4402482    0.6909970    0.1599839
   11    0.0252985   -0.0183782   -0.0450288   -0.0056388   -0.0476228
   12   -0.1795607    0.1316173    0.3264408    0.0400767    0.3475827
   13    0.0000000    0.0000000    0.0000000    0.0000000    0.0000000
   14   -0.4234843    0.3576324   -0.1240521   -0.5345647    0.2427025
   15    0.2197976    0.1203145   -0.2007049   -0.2401663   -0.5670275
   16    0.0252985   -0.0183782    0.0450288   -0.0056388    0.0476228
   17   -0.1795607    0.1316173   -0.3264408    0.0400767   -0.3475827
   18    0.0000000    0.0000000    0.0000000    0.0000000    0.0000000
   19    0.4234843   -0.3576324   -0.1240521    0.5345647    0.2427025
   20   -0.2197976   -0.1203145   -0.2007049    0.2401663   -0.5670275
   21   -0.0338855    0.0122968   -0.0201833    0.0051579    0.0527799
   22    0.2335170   -0.0908806    0.1505871   -0.0357188   -0.3873182
   23    0.0000000    0.0000000    0.0000000    0.0000000    0.0000000
   24   -0.3442349    0.4263662    0.2138773   -0.4124138    0.3906355
   25    0.1533310    0.0289849   -0.0297565    0.4325831    0.4995098
   26   -0.0338855    0.0122968    0.0201833    0.0051579   -0.0527799
   27    0.2335170   -0.0908806   -0.1505871   -0.0357188    0.3873182
   28    0.0000000    0.0000000    0.0000000    0.0000000    0.0000000
   29    0.3442349   -0.4263662    0.2138773    0.4124138    0.3906355
   30   -0.1533310   -0.0289849   -0.0297565   -0.4325831    0.4995098
   31   -0.2073438   -0.0553703   -0.0142774    0.0105972    0.2880977
   32   -0.2073438   -0.0553703    0.0142774    0.0105972   -0.2880977
   33   -0.0338844   -0.2067356   -0.1149244   -0.0454691   -0.2951521
   34   -0.0338844   -0.2067356    0.1149244   -0.0454691    0.2951521
   35   -0.0363707    0.0415930   -0.0598956    0.0266072   -0.0103795
   36    0.2597458   -0.3252429    0.4570168   -0.2138052    0.0607446
   37    0.0000000    0.0000000    0.0000000    0.0000000    0.0000000
   38   -0.1120604   -0.6654734    0.4573238   -0.3216121   -0.3736156
   39    0.5587874   -0.0617609    0.6180750   -0.4379110    0.0178094
   40   -0.0363707    0.0415930    0.0598956    0.0266072    0.0103795
   41    0.2597458   -0.3252429   -0.4570168   -0.2138052   -0.0607446
   42    0.0000000    0.0000000    0.0000000    0.0000000    0.0000000
   43    0.1120604    0.6654734    0.4573238    0.3216121   -0.3736156
   44   -0.5587874    0.0617609    0.6180750    0.4379110    0.0178094
   45    0.3311798    0.1876744    0.1868425   -0.1679221    0.0562931
   46    0.3311798    0.1876744   -0.1868425   -0.1679221   -0.0562931
   47    0.0312700   -0.0458999    0.0704457   -0.0415334   -0.0106195
   48   -0.2307453    0.3435916   -0.5320341    0.3248479    0.0895830
   49    0.0000000    0.0000000    0.0000000    0.0000000    0.0000000
   50    0.5593237   -0.1468462    0.5483604   -0.3259632   -0.0035585
   51   -0.1388607   -0.6057450    0.3914433   -0.2613400   -0.2405373
   52    0.0312700   -0.0458999   -0.0704457   -0.0415334    0.0106195
   53   -0.2307453    0.3435916    0.5320341    0.3248479   -0.0895830
   54    0.0000000    0.0000000    0.0000000    0.0000000    0.0000000
   55   -0.5593237    0.1468462    0.5483604    0.3259632   -0.0035585
   56    0.1388607    0.6057450    0.3914433    0.2613400   -0.2405373
   57    0.2775932    0.3024215   -0.0055516    0.0360992    0.1532343
   58    0.2775932    0.3024215    0.0055516    0.0360992   -0.1532343
   59   -0.3530954   -0.1527112   -0.1061181    0.0533972   -0.0722947
   60   -0.3530954   -0.1527112    0.1061181    0.0533972    0.0722947

 Ene     0.4407533    0.4815221    0.5114499    0.5713096    0.5849375
 Sym            Ag           Ag           Bu           Ag           Bu
 Occ             0            0            0            0            0



*** tstop() called on copper at Tue Aug  2 20:23:19 2016
Module time:
	user time   =      32.36 seconds =       0.54 minutes
	system time =       0.06 seconds =       0.00 minutes
	total time  =         33 seconds =       0.55 minutes
Total time:
	user time   =      32.36 seconds =       0.54 minutes
	system time =       0.06 seconds =       0.00 minutes
	total time  =         33 seconds =       0.55 minutes


Properties will be evaluated at   0.000000,   0.000000,   0.000000 Bohr

Properties computed using the SCF density matrix

  Nuclear Dipole Moment: (a.u.)
     X:     0.0000      Y:     0.0000      Z:     0.0000

  Electronic Dipole Moment: (a.u.)
     X:     0.0000      Y:     0.0000      Z:     0.0000

  Dipole Moment: (a.u.)
     X:     0.0000      Y:     0.0000      Z:     0.0000     Total:     0.0000

  Dipole Moment: (Debye)
     X:     0.0000      Y:     0.0000      Z:     0.0000     Total:     0.0000



Properties will be evaluated at   0.000000,   0.000000,   0.000000 Bohr

Properties computed using the  density matrix


 Multipole Moments:

 ------------------------------------------------------------------------------------
     Multipole             Electric (a.u.)       Nuclear  (a.u.)        Total (a.u.)
 ------------------------------------------------------------------------------------

 L = 1.  Multiply by 2.5417462300 to convert to Debye
 Dipole X            :          0.0000000            0.0000000            0.0000000
 Dipole Y            :          0.0000000            0.0000000            0.0000000
 Dipole Z            :          0.0000000            0.0000000            0.0000000

 L = 2.  Multiply by 1.3450341749 to convert to Debye.ang
 Quadrupole XX       :      -1503.3572819         1496.8839996           -6.4732823
 Quadrupole XY       :        -10.6662252           11.4580038            0.7917786
 Quadrupole XZ       :          0.0000000            0.0000000            0.0000000
 Quadrupole YY       :       -276.9570477          244.8754384          -32.0816093
 Quadrupole YZ       :          0.0000000            0.0000000            0.0000000
 Quadrupole ZZ       :        -42.0198774            0.0000000          -42.0198774

 L = 3.  Multiply by 0.7117614302 to convert to Debye.ang^2
 Octupole XXX        :          0.0000000            0.0000000            0.0000000
 Octupole XXY        :          0.0000000            0.0000000            0.0000000
 Octupole XXZ        :          0.0000000            0.0000000            0.0000000
 Octupole XYY        :          0.0000000            0.0000000            0.0000000
 Octupole XYZ        :          0.0000000            0.0000000            0.0000000
 Octupole XZZ        :          0.0000000            0.0000000            0.0000000
 Octupole YYY        :          0.0000000            0.0000000            0.0000000
 Octupole YYZ        :          0.0000000            0.0000000            0.0000000
 Octupole YZZ        :          0.0000000            0.0000000            0.0000000
 Octupole ZZZ        :          0.0000000            0.0000000            0.0000000

 L = 4.  Multiply by 0.3766479268 to convert to Debye.ang^3
 Hexadecapole XXXX   :     -71602.5051276        68490.6499305        -3111.8551971
 Hexadecapole XXXY   :      -2456.0269531         2491.6209456           35.5939925
 Hexadecapole XXXZ   :          0.0000000            0.0000000            0.0000000
 Hexadecapole XXYY   :      -3521.1264550         2641.3398575         -879.7865975
 Hexadecapole XXYZ   :          0.0000000            0.0000000            0.0000000
 Hexadecapole XXZZ   :       -929.4335767            0.0000000         -929.4335767
 Hexadecapole XYYY   :         24.1061536          -48.3518197          -24.2456661
 Hexadecapole XYYZ   :          0.0000000            0.0000000            0.0000000
 Hexadecapole XYZZ   :         -5.5595767            0.0000000           -5.5595767
 Hexadecapole XZZZ   :          0.0000000            0.0000000            0.0000000
 Hexadecapole YYYY   :      -2897.0957531         2103.6746773         -793.4210758
 Hexadecapole YYYZ   :          0.0000000            0.0000000            0.0000000
 Hexadecapole YYZZ   :       -186.4503945            0.0000000         -186.4503945
 Hexadecapole YZZZ   :          0.0000000            0.0000000            0.0000000
 Hexadecapole ZZZZ   :       -120.8957249            0.0000000         -120.8957249

 L = 5.  Multiply by 0.1993134985 to convert to Debye.ang^4
 32-pole XXXXX       :          0.0000000            0.0000000            0.0000000
 32-pole XXXXY       :          0.0000000            0.0000000            0.0000000
 32-pole XXXXZ       :          0.0000000            0.0000000            0.0000000
 32-pole XXXYY       :          0.0000000            0.0000000            0.0000000
 32-pole XXXYZ       :          0.0000000            0.0000000            0.0000000
 32-pole XXXZZ       :          0.0000000            0.0000000            0.0000000
 32-pole XXYYY       :          0.0000000            0.0000000            0.0000000
 32-pole XXYYZ       :          0.0000000            0.0000000            0.0000000
 32-pole XXYZZ       :          0.0000000            0.0000000            0.0000000
 32-pole XXZZZ       :          0.0000000            0.0000000            0.0000000
 32-pole XYYYY       :          0.0000000            0.0000000            0.0000000
 32-pole XYYYZ       :          0.0000000            0.0000000            0.0000000
 32-pole XYYZZ       :          0.0000000            0.0000000            0.0000000
 32-pole XYZZZ       :          0.0000000            0.0000000            0.0000000
 32-pole XZZZZ       :          0.0000000            0.0000000            0.0000000
 32-pole YYYYY       :          0.0000000            0.0000000            0.0000000
 32-pole YYYYZ       :          0.0000000            0.0000000            0.0000000
 32-pole YYYZZ       :          0.0000000            0.0000000            0.0000000
 32-pole YYZZZ       :          0.0000000            0.0000000            0.0000000
 32-pole YZZZZ       :          0.0000000            0.0000000            0.0000000
 32-pole ZZZZZ       :          0.0000000            0.0000000            0.0000000

 --------------------------------------------------------------------------------
  Mulliken Charges: (a.u.)
   Center  Symbol    Alpha    Beta     Spin     Total
       1     C     3.07863  2.86556  0.21306  0.05581
       2     C     3.07863  2.86556  0.21306  0.05581
       3     C     3.02839  3.01036  0.01803 -0.03876
       4     C     3.02839  3.01036  0.01803 -0.03876
       5     C     3.03379  3.00667  0.02712 -0.04046
       6     C     3.03379  3.00667  0.02712 -0.04046
       7     H     0.43571  0.43693 -0.00122  0.12736
       8     H     0.43571  0.43693 -0.00122  0.12736
       9     H     0.43762  0.43920 -0.00158  0.12318
      10     H     0.43762  0.43920 -0.00158  0.12318
      11     C     2.99207  3.04811 -0.05604 -0.04019
      12     C     2.99207  3.04811 -0.05604 -0.04019
      13     H     0.43877  0.43670  0.00207  0.12453
      14     H     0.43877  0.43670  0.00207  0.12453
      15     C     3.20226  2.87451  0.32774 -0.07677
      16     C     3.20226  2.87451  0.32774 -0.07677
      17     H     0.43100  0.44539 -0.01439  0.12361
      18     H     0.43100  0.44539 -0.01439  0.12361
      19     H     0.42175  0.43656 -0.01481  0.14169
      20     H     0.42175  0.43656 -0.01481  0.14169

   Total alpha = 35.00000, Total beta = 34.00000, Total charge =  1.00000

  Lowdin Charges: (a.u.)
   Center  Symbol    Alpha    Beta     Spin     Total
       1     C     3.06168  2.85839  0.20329  0.07992
       2     C     3.06168  2.85839  0.20329  0.07992
       3     C     3.01091  2.98974  0.02117 -0.00065
       4     C     3.01091  2.98974  0.02117 -0.00065
       5     C     3.01582  2.98614  0.02968 -0.00195
       6     C     3.01582  2.98614  0.02968 -0.00195
       7     H     0.45945  0.46036 -0.00090  0.08019
       8     H     0.45945  0.46036 -0.00090  0.08019
       9     H     0.46074  0.46190 -0.00116  0.07735
      10     H     0.46074  0.46190 -0.00116  0.07735
      11     C     2.97680  3.02150 -0.04470  0.00170
      12     C     2.97680  3.02150 -0.04470  0.00170
      13     H     0.46204  0.46047  0.00157  0.07749
      14     H     0.46204  0.46047  0.00157  0.07749
      15     C     3.14896  2.83664  0.31232  0.01440
      16     C     3.14896  2.83664  0.31232  0.01440
      17     H     0.45533  0.46578 -0.01045  0.07889
      18     H     0.45533  0.46578 -0.01045  0.07889
      19     H     0.44827  0.45908 -0.01081  0.09266
      20     H     0.44827  0.45908 -0.01081  0.09266

  Total alpha = 35.00000, Total beta = 34.00000, Total charge =  1.00000

*** Psi4 exiting successfully. Buy a developer a beer!
