    -----------------------------------------------------------------------
          Psi4: An Open-Source Ab Initio Electronic Structure Package
                              Psi4 1.0.54 Driver

                          Git: Rev {master} 8d4cec3 dirty

    J. M. Turney, A. C. Simmonett, R. M. Parrish, E. G. Hohenstein,
    F. A. Evangelista, J. T. Fermann, B. J. Mintz, L. A. Burns, J. J. Wilke,
    M. L. Abrams, N. J. Russ, M. L. Leininger, C. L. Janssen, E. T. Seidl,
    W. D. Allen, H. F. Schaefer, R. A. King, E. F. Valeev, C. D. Sherrill,
    and T. D. Crawford, WIREs Comput. Mol. Sci. 2, 556-565 (2012)
    (doi: 10.1002/wcms.93)

                         Additional Contributions by
    A. E. DePrince, U. Bozkaya, A. Yu. Sokolov, D. G. A. Smith, R. Di Remigio,
    R. M. Richard, J. F. Gonthier, H. R. McAlexander, M. Saitow, and
    B. P. Pritchard
    -----------------------------------------------------------------------


    Psi4 started on: Tue Aug  2 20:26:08 2016

    Process ID:  13241
    PSI4DATADIR: /home/eric/opt/apps/python/anaconda2/share/psi4
    Memory level set to 256.000 MB

  ==> Input File <==

--------------------------------------------------------------------------
molecule dvb {
    0 1
    C    -1.4152533224   0.2302217854   0.0000000000
    C     1.4152533224  -0.2302217854   0.0000000000
    C    -0.4951331558   1.3144608674   0.0000000000
    C     0.4951331558  -1.3144608674   0.0000000000
    C     0.8894090436   1.0909493743   0.0000000000
    C    -0.8894090436  -1.0909493743   0.0000000000
    H    -0.8795511985   2.3437343748   0.0000000000
    H     0.8795511985  -2.3437343748   0.0000000000
    H     1.5779041557   1.9450061275   0.0000000000
    H    -1.5779041557  -1.9450061275   0.0000000000
    C     2.8845844962  -0.5210893778   0.0000000000
    C    -2.8845844962   0.5210893778   0.0000000000
    H     3.1403356810  -1.5919605685   0.0000000000
    H    -3.1403356810   1.5919605685   0.0000000000
    C     3.8800428103   0.3822535424   0.0000000000
    C    -3.8800428103  -0.3822535424   0.0000000000
    H     3.6946765858   1.4624389570   0.0000000000
    H    -3.6946765858  -1.4624389570   0.0000000000
    H     4.9316453546   0.0711049543   0.0000000000
    H    -4.9316453546  -0.0711049543   0.0000000000
}

set {
    basis sto-3g
}

frequencies('scf', dertype='gradient')
--------------------------------------------------------------------------
hessian() will perform frequency computation by finite difference of analytic gradients.

-------------------------------------------------------------

  Using finite-differences of gradients to determine vibrational frequencies and 
  normal modes.  Resulting frequencies are only valid at stationary points.
	Generating geometries for use with 3-point formula.
	Displacement size will be 5.00e-03.
	Number of atoms is 20.
	Number of irreps is 4.
	Number of SALCS is 54.
	Index of salcs per irrep:
	 1 :  0  1  2  3  4  5  6  7  8  9  10  11  12  13  14  15  16  17  18 
	 2 :  19  20  21  22  23  24  25  26 
	 3 :  27  28  29  30  31  32  33  34  35 
	 4 :  36  37  38  39  40  41  42  43  44  45  46  47  48  49  50  51  52  53 
	Number of SALC's per irrep:
		 Irrep 1: 19
		 Irrep 2: 8
		 Irrep 3: 9
		 Irrep 4: 18
	Number of geometries (including reference) is 74.
	Number of displacements per irrep:
	  Irrep 1: 38
	  Irrep 2: 8
	  Irrep 3: 9
	  Irrep 4: 18

-------------------------------------------------------------

  //>>>>>>>>>>>>>>>>>>>>>>>>>>>>>>>>>>>//
  //    Loading displacement 1 of 74   //
  //<<<<<<<<<<<<<<<<<<<<<<<<<<<<<<<<<<<//
gradient() will perform analytic gradient computation.

*** tstart() called on copper
*** at Tue Aug  2 20:26:09 2016


         ---------------------------------------------------------
                                   SCF
            by Justin Turney, Rob Parrish, and Andy Simmonett
                              RHF Reference
                        1 Threads,    256 MiB Core
         ---------------------------------------------------------

  ==> Geometry <==

    Molecular point group: c2h
    Full point group: C2h

    Geometry (in Angstrom), charge = 0, multiplicity = 1:

       Center              X                  Y                   Z               Mass       
    ------------   -----------------  -----------------  -----------------  -----------------
           C         -1.415793005626     0.230226778935     0.000000000000    12.000000000000
           C          1.415793005626    -0.230226778935     0.000000000000    12.000000000000
           C         -0.495128517898     1.314462614412     0.000000000000    12.000000000000
           C          0.495128517898    -1.314462614412     0.000000000000    12.000000000000
           C          0.889412892871     1.090946236137     0.000000000000    12.000000000000
           C         -0.889412892871    -1.090946236137     0.000000000000    12.000000000000
           H         -0.879542928942     2.343737478180     0.000000000000     1.007825032070
           H          0.879542928942    -2.343737478180     0.000000000000     1.007825032070
           H          1.577911018398     1.945000560073     0.000000000000     1.007825032070
           H         -1.577911018398    -1.945000560073     0.000000000000     1.007825032070
           C          2.884582657605    -0.521099555676     0.000000000000    12.000000000000
           C         -2.884582657605     0.521099555676     0.000000000000    12.000000000000
           H          3.140330063977    -1.591971648760     0.000000000000     1.007825032070
           H         -3.140330063977     1.591971648760     0.000000000000     1.007825032070
           C          3.880044159031     0.382239852181     0.000000000000    12.000000000000
           C         -3.880044159031    -0.382239852181     0.000000000000    12.000000000000
           H          3.694681745823     1.462425920821     0.000000000000     1.007825032070
           H         -3.694681745823    -1.462425920821     0.000000000000     1.007825032070
           H          4.931645605484     0.071087553640     0.000000000000     1.007825032070
           H         -4.931645605484    -0.071087553640     0.000000000000     1.007825032070

  Running in c2h symmetry.

  Rotational constants: A =      0.15403  B =      0.02287  C =      0.01992 [cm^-1]
  Rotational constants: A =   4617.84211  B =    685.72768  C =    597.06618 [MHz]
  Nuclear repulsion =  445.928889801978698

  Charge       = 0
  Multiplicity = 1
  Electrons    = 70
  Nalpha       = 35
  Nbeta        = 35

  ==> Algorithm <==

  SCF Algorithm Type is DF.
  DIIS enabled.
  MOM disabled.
  Fractional occupation disabled.
  Guess Type is SAD.
  Energy threshold   = 1.00e-08
  Density threshold  = 1.00e-08
  Integral threshold = 0.00e+00

  ==> Primary Basis <==

  Basis Set: STO-3G
    Number of shells: 40
    Number of basis function: 60
    Number of Cartesian functions: 60
    Spherical Harmonics?: true
    Max angular momentum: 1

  ==> Pre-Iterations <==

   -------------------------------------------------------
    Irrep   Nso     Nmo     Nalpha   Nbeta   Ndocc  Nsocc
   -------------------------------------------------------
     Ag        25      25       0       0       0       0
     Bg         5       5       0       0       0       0
     Au         5       5       0       0       0       0
     Bu        25      25       0       0       0       0
   -------------------------------------------------------
    Total      60      60      35      35      35       0
   -------------------------------------------------------

  ==> Integral Setup <==

  ==> DFJK: Density-Fitted J/K Matrices <==

    J tasked:                  Yes
    K tasked:                  Yes
    wK tasked:                  No
    OpenMP threads:              1
    Integrals threads:           1
    Memory (MB):               183
    Algorithm:                Core
    Integral Cache:           NONE
    Schwarz Cutoff:          1E-12
    Fitting Condition:       1E-12

   => Auxiliary Basis Set <=

  Basis Set: 
    Number of shells: 240
    Number of basis function: 700
    Number of Cartesian functions: 810
    Spherical Harmonics?: true
    Max angular momentum: 3

  Minimum eigenvalue in the overlap matrix is 1.8155241085E-01.
  Using Symmetric Orthogonalization.
  SCF Guess: Superposition of Atomic Densities via on-the-fly atomic UHF.

  ==> Iterations <==

                           Total Energy        Delta E     RMS |[F,P]|

   @DF-RHF iter   0:  -379.40293800894801   -3.79403e+02   1.22402e-01 
   @DF-RHF iter   1:  -379.51247756525822   -1.09540e-01   1.48235e-02 
   @DF-RHF iter   2:  -379.75444983449154   -2.41972e-01   3.85591e-03 DIIS
   @DF-RHF iter   3:  -379.76938494736953   -1.49351e-02   1.54607e-03 DIIS
   @DF-RHF iter   4:  -379.77128486486993   -1.89992e-03   2.31130e-04 DIIS
   @DF-RHF iter   5:  -379.77133643785044   -5.15730e-05   2.54995e-05 DIIS
   @DF-RHF iter   6:  -379.77133774325705   -1.30541e-06   8.40995e-06 DIIS
   @DF-RHF iter   7:  -379.77133785335934   -1.10102e-07   2.68555e-06 DIIS
   @DF-RHF iter   8:  -379.77133786702393   -1.36646e-08   6.91421e-07 DIIS
   @DF-RHF iter   9:  -379.77133786780007   -7.76140e-10   2.08390e-07 DIIS
   @DF-RHF iter  10:  -379.77133786786646   -6.63931e-11   5.08845e-08 DIIS
   @DF-RHF iter  11:  -379.77133786787124   -4.77485e-12   1.17977e-08 DIIS
   @DF-RHF iter  12:  -379.77133786787147   -2.27374e-13   2.75462e-09 DIIS

  ==> Post-Iterations <==

    Orbital Energies (a.u.)
    -----------------------

    Doubly Occupied:                                                      

       1Bu   -11.040925     1Ag   -11.040863     2Bu   -11.031947  
       2Ag   -11.031947     3Bu   -11.029253     3Ag   -11.029122  
       4Bu   -11.028908     4Ag   -11.028885     5Bu   -11.017810  
       5Ag   -11.017810     6Ag    -1.090207     6Bu    -1.020321  
       7Ag    -0.974954     7Bu    -0.950236     8Bu    -0.909595  
       8Ag    -0.799932     9Ag    -0.762777     9Bu    -0.727682  
      10Ag    -0.696703    11Ag    -0.628018    10Bu    -0.605705  
      11Bu    -0.572911    12Bu    -0.553558    12Ag    -0.553161  
      13Bu    -0.525262    14Bu    -0.496611    13Ag    -0.492537  
       1Au    -0.463615    15Bu    -0.446491    14Ag    -0.421655  
      15Ag    -0.415584     1Bg    -0.376988     2Au    -0.315107  
       2Bg    -0.278287     3Bg    -0.222025  

    Virtual:                                                              

       3Au     0.198897     4Au     0.268635     4Bg     0.308848  
       5Au     0.397210     5Bg     0.521804    16Ag     0.565274  
      16Bu     0.575579    17Ag     0.621595    17Bu     0.626114  
      18Ag     0.658238    18Bu     0.659449    19Bu     0.677355  
      19Ag     0.694285    20Bu     0.706740    20Ag     0.740115  
      21Ag     0.802250    21Bu     0.825499    22Ag     0.860678  
      22Bu     0.887793    23Bu     0.921093    23Ag     0.940109  
      24Ag     0.990400    24Bu     1.027264    25Ag     1.107580  
      25Bu     1.124950  

    Final Occupation by Irrep:
             Ag    Bg    Au    Bu 
    DOCC [    15,    3,    2,   15 ]

  Energy converged.

  @DF-RHF Final Energy:  -379.77133786787147

   => Energetics <=

    Nuclear Repulsion Energy =            445.9288898019786984
    One-Electron Energy =               -1400.2056669642674933
    Two-Electron Energy =                 574.5054392944174424
    DFT Exchange-Correlation Energy =       0.0000000000000000
    Empirical Dispersion Energy =           0.0000000000000000
    PCM Polarization Energy =               0.0000000000000000
    EFP Energy =                            0.0000000000000000
    Total Energy =                       -379.7713378678713525


  Saving occupied orbitals to File 180.

*** tstop() called on copper at Tue Aug  2 20:26:10 2016
Module time:
	user time   =       1.78 seconds =       0.03 minutes
	system time =       0.01 seconds =       0.00 minutes
	total time  =          1 seconds =       0.02 minutes
Total time:
	user time   =       1.78 seconds =       0.03 minutes
	system time =       0.01 seconds =       0.00 minutes
	total time  =          1 seconds =       0.02 minutes


Properties will be evaluated at   0.000000,   0.000000,   0.000000 Bohr

Properties computed using the SCF density matrix

  Nuclear Dipole Moment: (a.u.)
     X:     0.0000      Y:     0.0000      Z:     0.0000

  Electronic Dipole Moment: (a.u.)
     X:     0.0000      Y:     0.0000      Z:     0.0000

  Dipole Moment: (a.u.)
     X:     0.0000      Y:     0.0000      Z:     0.0000     Total:     0.0000

  Dipole Moment: (Debye)
     X:     0.0000      Y:     0.0000      Z:     0.0000     Total:     0.0000


*** tstart() called on copper
*** at Tue Aug  2 20:26:10 2016


         ------------------------------------------------------------
                                   SCF GRAD                          
                          Rob Parrish, Justin Turney,                
                       Andy Simmonett, and Alex Sokolov              
         ------------------------------------------------------------

  ==> Geometry <==

    Molecular point group: c2h
    Full point group: C2h

    Geometry (in Angstrom), charge = 0, multiplicity = 1:

       Center              X                  Y                   Z               Mass       
    ------------   -----------------  -----------------  -----------------  -----------------
           C         -1.415793005626     0.230226778935     0.000000000000    12.000000000000
           C          1.415793005626    -0.230226778935     0.000000000000    12.000000000000
           C         -0.495128517898     1.314462614412     0.000000000000    12.000000000000
           C          0.495128517898    -1.314462614412     0.000000000000    12.000000000000
           C          0.889412892871     1.090946236137     0.000000000000    12.000000000000
           C         -0.889412892871    -1.090946236137     0.000000000000    12.000000000000
           H         -0.879542928942     2.343737478180     0.000000000000     1.007825032070
           H          0.879542928942    -2.343737478180     0.000000000000     1.007825032070
           H          1.577911018398     1.945000560073     0.000000000000     1.007825032070
           H         -1.577911018398    -1.945000560073     0.000000000000     1.007825032070
           C          2.884582657605    -0.521099555676     0.000000000000    12.000000000000
           C         -2.884582657605     0.521099555676     0.000000000000    12.000000000000
           H          3.140330063977    -1.591971648760     0.000000000000     1.007825032070
           H         -3.140330063977     1.591971648760     0.000000000000     1.007825032070
           C          3.880044159031     0.382239852181     0.000000000000    12.000000000000
           C         -3.880044159031    -0.382239852181     0.000000000000    12.000000000000
           H          3.694681745823     1.462425920821     0.000000000000     1.007825032070
           H         -3.694681745823    -1.462425920821     0.000000000000     1.007825032070
           H          4.931645605484     0.071087553640     0.000000000000     1.007825032070
           H         -4.931645605484    -0.071087553640     0.000000000000     1.007825032070

  Nuclear repulsion =  445.928889801978698

  ==> Basis Set <==

  Basis Set: STO-3G
    Number of shells: 40
    Number of basis function: 60
    Number of Cartesian functions: 60
    Spherical Harmonics?: true
    Max angular momentum: 1

  ==> DFJKGrad: Density-Fitted SCF Gradients <==

    Gradient:                    1
    J tasked:                  Yes
    K tasked:                  Yes
    wK tasked:                  No
    OpenMP threads:              1
    Integrals threads:           1
    Memory (MB):               183
    Schwarz Cutoff:          0E+00
    Fitting Condition:       1E-12

   => Auxiliary Basis Set <=

  Basis Set: 
    Number of shells: 240
    Number of basis function: 700
    Number of Cartesian functions: 810
    Spherical Harmonics?: true
    Max angular momentum: 3


  -Total Gradient:
     Atom            X                  Y                   Z
    ------   -----------------  -----------------  -----------------
       1       -0.025573801869     0.003904801759     0.000000000000
       2        0.025573801869    -0.003904801759     0.000000000000
       3       -0.002712027867     0.014453453739     0.000000000000
       4        0.002712027867    -0.014453453739     0.000000000000
       5        0.005434228689     0.013680112140     0.000000000000
       6       -0.005434228689    -0.013680112140     0.000000000000
       7       -0.005055248225     0.013060778354     0.000000000000
       8        0.005055248225    -0.013060778354     0.000000000000
       9        0.009886092326     0.009801529896     0.000000000000
      10       -0.009886092326    -0.009801529896     0.000000000000
      11       -0.033227343360    -0.017415955399     0.000000000000
      12        0.033227343360     0.017415955399     0.000000000000
      13        0.003220200212    -0.014108395290     0.000000000000
      14       -0.003220200212     0.014108395290     0.000000000000
      15        0.023970533387     0.021041161485     0.000000000000
      16       -0.023970533387    -0.021041161485     0.000000000000
      17       -0.003382509558     0.013514121868     0.000000000000
      18        0.003382509558    -0.013514121868     0.000000000000
      19        0.013254419335    -0.003910821949     0.000000000000
      20       -0.013254419335     0.003910821949     0.000000000000


*** tstop() called on copper at Tue Aug  2 20:26:12 2016
Module time:
	user time   =       1.97 seconds =       0.03 minutes
	system time =       0.01 seconds =       0.00 minutes
	total time  =          2 seconds =       0.03 minutes
Total time:
	user time   =       3.75 seconds =       0.06 minutes
	system time =       0.02 seconds =       0.00 minutes
	total time  =          3 seconds =       0.05 minutes

  //>>>>>>>>>>>>>>>>>>>>>>>>>>>>>>>>>>>//
  //    Loading displacement 2 of 74   //
  //<<<<<<<<<<<<<<<<<<<<<<<<<<<<<<<<<<<//
gradient() will perform analytic gradient computation.

*** tstart() called on copper
*** at Tue Aug  2 20:26:12 2016


         ---------------------------------------------------------
                                   SCF
            by Justin Turney, Rob Parrish, and Andy Simmonett
                              RHF Reference
                        1 Threads,    256 MiB Core
         ---------------------------------------------------------

  ==> Geometry <==

    Molecular point group: c2h
    Full point group: C2h

    Geometry (in Angstrom), charge = 0, multiplicity = 1:

       Center              X                  Y                   Z               Mass       
    ------------   -----------------  -----------------  -----------------  -----------------
           C         -1.414713639174     0.230216791865     0.000000000000    12.000000000000
           C          1.414713639174    -0.230216791865     0.000000000000    12.000000000000
           C         -0.495137793702     1.314459120388     0.000000000000    12.000000000000
           C          0.495137793702    -1.314459120388     0.000000000000    12.000000000000
           C          0.889405194329     1.090952512463     0.000000000000    12.000000000000
           C         -0.889405194329    -1.090952512463     0.000000000000    12.000000000000
           H         -0.879559468058     2.343731271420     0.000000000000     1.007825032070
           H          0.879559468058    -2.343731271420     0.000000000000     1.007825032070
           H          1.577897293002     1.945011694927     0.000000000000     1.007825032070
           H         -1.577897293002    -1.945011694927     0.000000000000     1.007825032070
           C          2.884586334795    -0.521079199924     0.000000000000    12.000000000000
           C         -2.884586334795     0.521079199924     0.000000000000    12.000000000000
           H          3.140341298023    -1.591949488240     0.000000000000     1.007825032070
           H         -3.140341298023     1.591949488240     0.000000000000     1.007825032070
           C          3.880041461569     0.382267232619     0.000000000000    12.000000000000
           C         -3.880041461569    -0.382267232619     0.000000000000    12.000000000000
           H          3.694671425777     1.462451993179     0.000000000000     1.007825032070
           H         -3.694671425777    -1.462451993179     0.000000000000     1.007825032070
           H          4.931645103716     0.071122354960     0.000000000000     1.007825032070
           H         -4.931645103716    -0.071122354960     0.000000000000     1.007825032070

  Running in c2h symmetry.

  Rotational constants: A =      0.15403  B =      0.02288  C =      0.01992 [cm^-1]
  Rotational constants: A =   4617.84452  B =    685.79596  C =    597.11799 [MHz]
  Nuclear repulsion =  445.945076805550514

  Charge       = 0
  Multiplicity = 1
  Electrons    = 70
  Nalpha       = 35
  Nbeta        = 35

  ==> Algorithm <==

  SCF Algorithm Type is DF.
  DIIS enabled.
  MOM disabled.
  Fractional occupation disabled.
  Guess Type is SAD.
  Energy threshold   = 1.00e-08
  Density threshold  = 1.00e-08
  Integral threshold = 0.00e+00

  ==> Primary Basis <==

  Basis Set: STO-3G
    Number of shells: 40
    Number of basis function: 60
    Number of Cartesian functions: 60
    Spherical Harmonics?: true
    Max angular momentum: 1

  ==> Pre-Iterations <==

   -------------------------------------------------------
    Irrep   Nso     Nmo     Nalpha   Nbeta   Ndocc  Nsocc
   -------------------------------------------------------
     Ag        25      25       0       0       0       0
     Bg         5       5       0       0       0       0
     Au         5       5       0       0       0       0
     Bu        25      25       0       0       0       0
   -------------------------------------------------------
    Total      60      60      35      35      35       0
   -------------------------------------------------------

  ==> Integral Setup <==

  ==> DFJK: Density-Fitted J/K Matrices <==

    J tasked:                  Yes
    K tasked:                  Yes
    wK tasked:                  No
    OpenMP threads:              1
    Integrals threads:           1
    Memory (MB):               183
    Algorithm:                Core
    Integral Cache:           NONE
    Schwarz Cutoff:          1E-12
    Fitting Condition:       1E-12

   => Auxiliary Basis Set <=

  Basis Set: 
    Number of shells: 240
    Number of basis function: 700
    Number of Cartesian functions: 810
    Spherical Harmonics?: true
    Max angular momentum: 3

  Minimum eigenvalue in the overlap matrix is 1.8138961685E-01.
  Using Symmetric Orthogonalization.
  SCF Guess: Superposition of Atomic Densities via on-the-fly atomic UHF.

  ==> Iterations <==

                           Total Energy        Delta E     RMS |[F,P]|

   @DF-RHF iter   0:  -379.40117016855351   -3.79401e+02   1.22403e-01 
   @DF-RHF iter   1:  -379.51266317137430   -1.11493e-01   1.48225e-02 
   @DF-RHF iter   2:  -379.75456270899150   -2.41900e-01   3.85500e-03 DIIS
   @DF-RHF iter   3:  -379.76948931818919   -1.49266e-02   1.54500e-03 DIIS
   @DF-RHF iter   4:  -379.77138610490925   -1.89679e-03   2.30937e-04 DIIS
   @DF-RHF iter   5:  -379.77143752292722   -5.14180e-05   2.54127e-05 DIIS
   @DF-RHF iter   6:  -379.77143881587364   -1.29295e-06   8.39095e-06 DIIS
   @DF-RHF iter   7:  -379.77143892515261   -1.09279e-07   2.67994e-06 DIIS
   @DF-RHF iter   8:  -379.77143893875763   -1.36050e-08   6.92647e-07 DIIS
   @DF-RHF iter   9:  -379.77143893953718   -7.79551e-10   2.08290e-07 DIIS
   @DF-RHF iter  10:  -379.77143893960312   -6.59384e-11   5.05936e-08 DIIS
   @DF-RHF iter  11:  -379.77143893960880   -5.68434e-12   1.17708e-08 DIIS
   @DF-RHF iter  12:  -379.77143893960857    2.27374e-13   2.74155e-09 DIIS

  ==> Post-Iterations <==

    Orbital Energies (a.u.)
    -----------------------

    Doubly Occupied:                                                      

       1Bu   -11.040938     1Ag   -11.040875     2Bu   -11.031895  
       2Ag   -11.031894     3Bu   -11.029300     3Ag   -11.029170  
       4Bu   -11.028957     4Ag   -11.028935     5Bu   -11.017754  
       5Ag   -11.017754     6Ag    -1.090379     6Bu    -1.020195  
       7Ag    -0.974886     7Bu    -0.950379     8Bu    -0.909682  
       8Ag    -0.799815     9Ag    -0.762848     9Bu    -0.727582  
      10Ag    -0.696816    11Ag    -0.628024    10Bu    -0.605592  
      11Bu    -0.572951    12Bu    -0.553578    12Ag    -0.553119  
      13Bu    -0.525415    14Bu    -0.496697    13Ag    -0.492497  
       1Au    -0.463739    15Bu    -0.446367    14Ag    -0.421626  
      15Ag    -0.415627     1Bg    -0.376857     2Au    -0.315099  
       2Bg    -0.278349     3Bg    -0.222285  

    Virtual:                                                              

       3Au     0.199226     4Au     0.268532     4Bg     0.308941  
       5Au     0.397092     5Bg     0.521885    16Ag     0.564905  
      16Bu     0.575667    17Ag     0.621670    17Bu     0.625634  
      18Ag     0.658379    18Bu     0.659483    19Bu     0.677155  
      19Ag     0.694235    20Bu     0.706818    20Ag     0.740309  
      21Ag     0.802425    21Bu     0.825907    22Ag     0.860740  
      22Bu     0.887817    23Bu     0.921067    23Ag     0.939952  
      24Ag     0.990266    24Bu     1.027336    25Ag     1.107857  
      25Bu     1.125170  

    Final Occupation by Irrep:
             Ag    Bg    Au    Bu 
    DOCC [    15,    3,    2,   15 ]

  Energy converged.

  @DF-RHF Final Energy:  -379.77143893960857

   => Energetics <=

    Nuclear Repulsion Energy =            445.9450768055505137
    One-Electron Energy =               -1400.2372756478389419
    Two-Electron Energy =                 574.5207599026798562
    DFT Exchange-Correlation Energy =       0.0000000000000000
    Empirical Dispersion Energy =           0.0000000000000000
    PCM Polarization Energy =               0.0000000000000000
    EFP Energy =                            0.0000000000000000
    Total Energy =                       -379.7714389396085153


  Saving occupied orbitals to File 180.

*** tstop() called on copper at Tue Aug  2 20:26:14 2016
Module time:
	user time   =       1.52 seconds =       0.03 minutes
	system time =       0.01 seconds =       0.00 minutes
	total time  =          2 seconds =       0.03 minutes
Total time:
	user time   =       5.43 seconds =       0.09 minutes
	system time =       0.03 seconds =       0.00 minutes
	total time  =          5 seconds =       0.08 minutes


Properties will be evaluated at   0.000000,   0.000000,   0.000000 Bohr

Properties computed using the SCF density matrix

  Nuclear Dipole Moment: (a.u.)
     X:     0.0000      Y:     0.0000      Z:     0.0000

  Electronic Dipole Moment: (a.u.)
     X:     0.0000      Y:     0.0000      Z:     0.0000

  Dipole Moment: (a.u.)
     X:     0.0000      Y:     0.0000      Z:     0.0000     Total:     0.0000

  Dipole Moment: (Debye)
     X:     0.0000      Y:     0.0000      Z:     0.0000     Total:     0.0000


*** tstart() called on copper
*** at Tue Aug  2 20:26:14 2016


         ------------------------------------------------------------
                                   SCF GRAD                          
                          Rob Parrish, Justin Turney,                
                       Andy Simmonett, and Alex Sokolov              
         ------------------------------------------------------------

  ==> Geometry <==

    Molecular point group: c2h
    Full point group: C2h

    Geometry (in Angstrom), charge = 0, multiplicity = 1:

       Center              X                  Y                   Z               Mass       
    ------------   -----------------  -----------------  -----------------  -----------------
           C         -1.414713639174     0.230216791865     0.000000000000    12.000000000000
           C          1.414713639174    -0.230216791865     0.000000000000    12.000000000000
           C         -0.495137793702     1.314459120388     0.000000000000    12.000000000000
           C          0.495137793702    -1.314459120388     0.000000000000    12.000000000000
           C          0.889405194329     1.090952512463     0.000000000000    12.000000000000
           C         -0.889405194329    -1.090952512463     0.000000000000    12.000000000000
           H         -0.879559468058     2.343731271420     0.000000000000     1.007825032070
           H          0.879559468058    -2.343731271420     0.000000000000     1.007825032070
           H          1.577897293002     1.945011694927     0.000000000000     1.007825032070
           H         -1.577897293002    -1.945011694927     0.000000000000     1.007825032070
           C          2.884586334795    -0.521079199924     0.000000000000    12.000000000000
           C         -2.884586334795     0.521079199924     0.000000000000    12.000000000000
           H          3.140341298023    -1.591949488240     0.000000000000     1.007825032070
           H         -3.140341298023     1.591949488240     0.000000000000     1.007825032070
           C          3.880041461569     0.382267232619     0.000000000000    12.000000000000
           C         -3.880041461569    -0.382267232619     0.000000000000    12.000000000000
           H          3.694671425777     1.462451993179     0.000000000000     1.007825032070
           H         -3.694671425777    -1.462451993179     0.000000000000     1.007825032070
           H          4.931645103716     0.071122354960     0.000000000000     1.007825032070
           H         -4.931645103716    -0.071122354960     0.000000000000     1.007825032070

  Nuclear repulsion =  445.945076805550514

  ==> Basis Set <==

  Basis Set: STO-3G
    Number of shells: 40
    Number of basis function: 60
    Number of Cartesian functions: 60
    Spherical Harmonics?: true
    Max angular momentum: 1

  ==> DFJKGrad: Density-Fitted SCF Gradients <==

    Gradient:                    1
    J tasked:                  Yes
    K tasked:                  Yes
    wK tasked:                  No
    OpenMP threads:              1
    Integrals threads:           1
    Memory (MB):               183
    Schwarz Cutoff:          0E+00
    Fitting Condition:       1E-12

   => Auxiliary Basis Set <=

  Basis Set: 
    Number of shells: 240
    Number of basis function: 700
    Number of Cartesian functions: 810
    Spherical Harmonics?: true
    Max angular momentum: 3


  -Total Gradient:
     Atom            X                  Y                   Z
    ------   -----------------  -----------------  -----------------
       1       -0.023904079354     0.003919240812     0.000000000000
       2        0.023904079354    -0.003919240812     0.000000000000
       3       -0.003182671524     0.014071335333     0.000000000000
       4        0.003182671524    -0.014071335333     0.000000000000
       5        0.005707949963     0.013438719644     0.000000000000
       6       -0.005707949963    -0.013438719644     0.000000000000
       7       -0.005016845304     0.013092179306     0.000000000000
       8        0.005016845304    -0.013092179306     0.000000000000
       9        0.009844347889     0.009857364336     0.000000000000
      10       -0.009844347889    -0.009857364336     0.000000000000
      11       -0.032637699371    -0.017545708695     0.000000000000
      12        0.032637699371     0.017545708695     0.000000000000
      13        0.003232487899    -0.014098151484     0.000000000000
      14       -0.003232487899     0.014098151484     0.000000000000
      15        0.024064884375     0.021065017531     0.000000000000
      16       -0.024064884375    -0.021065017531     0.000000000000
      17       -0.003386488746     0.013513115278     0.000000000000
      18        0.003386488746    -0.013513115278     0.000000000000
      19        0.013256840429    -0.003908153152     0.000000000000
      20       -0.013256840429     0.003908153152     0.000000000000


*** tstop() called on copper at Tue Aug  2 20:26:16 2016
Module time:
	user time   =       2.09 seconds =       0.03 minutes
	system time =       0.02 seconds =       0.00 minutes
	total time  =          2 seconds =       0.03 minutes
Total time:
	user time   =       7.52 seconds =       0.13 minutes
	system time =       0.05 seconds =       0.00 minutes
	total time  =          7 seconds =       0.12 minutes

  //>>>>>>>>>>>>>>>>>>>>>>>>>>>>>>>>>>>//
  //    Loading displacement 3 of 74   //
  //<<<<<<<<<<<<<<<<<<<<<<<<<<<<<<<<<<<//
gradient() will perform analytic gradient computation.

*** tstart() called on copper
*** at Tue Aug  2 20:26:16 2016


         ---------------------------------------------------------
                                   SCF
            by Justin Turney, Rob Parrish, and Andy Simmonett
                              RHF Reference
                        1 Threads,    256 MiB Core
         ---------------------------------------------------------

  ==> Geometry <==

    Molecular point group: c2h
    Full point group: C2h

    Geometry (in Angstrom), charge = 0, multiplicity = 1:

       Center              X                  Y                   Z               Mass       
    ------------   -----------------  -----------------  -----------------  -----------------
           C         -1.415253322400     0.229697281077     0.000000000000    12.000000000000
           C          1.415253322400    -0.229697281077     0.000000000000    12.000000000000
           C         -0.495103775762     1.314471934318     0.000000000000    12.000000000000
           C          0.495103775762    -1.314471934318     0.000000000000    12.000000000000
           C          0.889433427844     1.090929494764     0.000000000000    12.000000000000
           C         -0.889433427844    -1.090929494764     0.000000000000    12.000000000000
           H         -0.879498812760     2.343754033999     0.000000000000     1.007825032070
           H          0.879498812760    -2.343754033999     0.000000000000     1.007825032070
           H          1.577947629306     1.944970859136     0.000000000000     1.007825032070
           H         -1.577947629306    -1.944970859136     0.000000000000     1.007825032070
           C          2.884572849124    -0.521153852296     0.000000000000    12.000000000000
           C         -2.884572849124     0.521153852296     0.000000000000    12.000000000000
           H          3.140300098456    -1.592030759393     0.000000000000     1.007825032070
           H         -3.140300098456     1.592030759393     0.000000000000     1.007825032070
           C          3.880051354201     0.382166818019     0.000000000000    12.000000000000
           C         -3.880051354201    -0.382166818019     0.000000000000    12.000000000000
           H          3.694709273355     1.462356375813     0.000000000000     1.007825032070
           H         -3.694709273355    -1.462356375813     0.000000000000     1.007825032070
           H          4.931646943895     0.070994725132     0.000000000000     1.007825032070
           H         -4.931646943895    -0.070994725132     0.000000000000     1.007825032070

  Running in c2h symmetry.

  Rotational constants: A =      0.15404  B =      0.02287  C =      0.01992 [cm^-1]
  Rotational constants: A =   4618.10976  B =    685.76134  C =    597.09617 [MHz]
  Nuclear repulsion =  445.939128250305544

  Charge       = 0
  Multiplicity = 1
  Electrons    = 70
  Nalpha       = 35
  Nbeta        = 35

  ==> Algorithm <==

  SCF Algorithm Type is DF.
  DIIS enabled.
  MOM disabled.
  Fractional occupation disabled.
  Guess Type is SAD.
  Energy threshold   = 1.00e-08
  Density threshold  = 1.00e-08
  Integral threshold = 0.00e+00

  ==> Primary Basis <==

  Basis Set: STO-3G
    Number of shells: 40
    Number of basis function: 60
    Number of Cartesian functions: 60
    Spherical Harmonics?: true
    Max angular momentum: 1

  ==> Pre-Iterations <==

   -------------------------------------------------------
    Irrep   Nso     Nmo     Nalpha   Nbeta   Ndocc  Nsocc
   -------------------------------------------------------
     Ag        25      25       0       0       0       0
     Bg         5       5       0       0       0       0
     Au         5       5       0       0       0       0
     Bu        25      25       0       0       0       0
   -------------------------------------------------------
    Total      60      60      35      35      35       0
   -------------------------------------------------------

  ==> Integral Setup <==

  ==> DFJK: Density-Fitted J/K Matrices <==

    J tasked:                  Yes
    K tasked:                  Yes
    wK tasked:                  No
    OpenMP threads:              1
    Integrals threads:           1
    Memory (MB):               183
    Algorithm:                Core
    Integral Cache:           NONE
    Schwarz Cutoff:          1E-12
    Fitting Condition:       1E-12

   => Auxiliary Basis Set <=

  Basis Set: 
    Number of shells: 240
    Number of basis function: 700
    Number of Cartesian functions: 810
    Spherical Harmonics?: true
    Max angular momentum: 3

  Minimum eigenvalue in the overlap matrix is 1.8145426276E-01.
  Using Symmetric Orthogonalization.
  SCF Guess: Superposition of Atomic Densities via on-the-fly atomic UHF.

  ==> Iterations <==

                           Total Energy        Delta E     RMS |[F,P]|

   @DF-RHF iter   0:  -379.40137004613462   -3.79401e+02   1.22400e-01 
   @DF-RHF iter   1:  -379.51258641864422   -1.11216e-01   1.48228e-02 
   @DF-RHF iter   2:  -379.75451573095177   -2.41929e-01   3.85514e-03 DIIS
   @DF-RHF iter   3:  -379.76944630575520   -1.49306e-02   1.54489e-03 DIIS
   @DF-RHF iter   4:  -379.77134308496773   -1.89678e-03   2.31069e-04 DIIS
   @DF-RHF iter   5:  -379.77139457828537   -5.14933e-05   2.54435e-05 DIIS
   @DF-RHF iter   6:  -379.77139587652925   -1.29824e-06   8.38985e-06 DIIS
   @DF-RHF iter   7:  -379.77139598594306   -1.09414e-07   2.67979e-06 DIIS
   @DF-RHF iter   8:  -379.77139599954876   -1.36057e-08   6.91609e-07 DIIS
   @DF-RHF iter   9:  -379.77139600032592   -7.77163e-10   2.08459e-07 DIIS
   @DF-RHF iter  10:  -379.77139600039243   -6.65068e-11   5.08047e-08 DIIS
   @DF-RHF iter  11:  -379.77139600039754   -5.11591e-12   1.18063e-08 DIIS
   @DF-RHF iter  12:  -379.77139600039766   -1.13687e-13   2.75631e-09 DIIS

  ==> Post-Iterations <==

    Orbital Energies (a.u.)
    -----------------------

    Doubly Occupied:                                                      

       1Bu   -11.040929     1Ag   -11.040866     2Bu   -11.031915  
       2Ag   -11.031915     3Bu   -11.029277     3Ag   -11.029147  
       4Bu   -11.028930     4Ag   -11.028906     5Bu   -11.017769  
       5Ag   -11.017769     6Ag    -1.090303     6Bu    -1.020252  
       7Ag    -0.974916     7Bu    -0.950294     8Bu    -0.909657  
       8Ag    -0.799808     9Ag    -0.762883     9Bu    -0.727618  
      10Ag    -0.696734    11Ag    -0.628026    10Bu    -0.605631  
      11Bu    -0.572926    12Bu    -0.553632    12Ag    -0.553132  
      13Bu    -0.525319    14Bu    -0.496591    13Ag    -0.492534  
       1Au    -0.463684    15Bu    -0.446464    14Ag    -0.421481  
      15Ag    -0.415744     1Bg    -0.376909     2Au    -0.315099  
       2Bg    -0.278321     3Bg    -0.222168  

    Virtual:                                                              

       3Au     0.199108     4Au     0.268565     4Bg     0.308907  
       5Au     0.397139     5Bg     0.521848    16Ag     0.565109  
      16Bu     0.575703    17Ag     0.621585    17Bu     0.625706  
      18Ag     0.658316    18Bu     0.659505    19Bu     0.677290  
      19Ag     0.694272    20Bu     0.706717    20Ag     0.740188  
      21Ag     0.802346    21Bu     0.825845    22Ag     0.860771  
      22Bu     0.887666    23Bu     0.921181    23Ag     0.940034  
      24Ag     0.990274    24Bu     1.027254    25Ag     1.107752  
      25Bu     1.125091  

    Final Occupation by Irrep:
             Ag    Bg    Au    Bu 
    DOCC [    15,    3,    2,   15 ]

  Energy converged.

  @DF-RHF Final Energy:  -379.77139600039766

   => Energetics <=

    Nuclear Repulsion Energy =            445.9391282503055436
    One-Electron Energy =               -1400.2259500386151103
    Two-Electron Energy =                 574.5154257879116813
    DFT Exchange-Correlation Energy =       0.0000000000000000
    Empirical Dispersion Energy =           0.0000000000000000
    PCM Polarization Energy =               0.0000000000000000
    EFP Energy =                            0.0000000000000000
    Total Energy =                       -379.7713960003978855


  Saving occupied orbitals to File 180.

*** tstop() called on copper at Tue Aug  2 20:26:18 2016
Module time:
	user time   =       1.51 seconds =       0.03 minutes
	system time =       0.01 seconds =       0.00 minutes
	total time  =          2 seconds =       0.03 minutes
Total time:
	user time   =       9.30 seconds =       0.15 minutes
	system time =       0.06 seconds =       0.00 minutes
	total time  =          9 seconds =       0.15 minutes


Properties will be evaluated at   0.000000,   0.000000,   0.000000 Bohr

Properties computed using the SCF density matrix

  Nuclear Dipole Moment: (a.u.)
     X:     0.0000      Y:     0.0000      Z:     0.0000

  Electronic Dipole Moment: (a.u.)
     X:     0.0000      Y:     0.0000      Z:     0.0000

  Dipole Moment: (a.u.)
     X:     0.0000      Y:     0.0000      Z:     0.0000     Total:     0.0000

  Dipole Moment: (Debye)
     X:     0.0000      Y:     0.0000      Z:     0.0000     Total:     0.0000


*** tstart() called on copper
*** at Tue Aug  2 20:26:18 2016


         ------------------------------------------------------------
                                   SCF GRAD                          
                          Rob Parrish, Justin Turney,                
                       Andy Simmonett, and Alex Sokolov              
         ------------------------------------------------------------

  ==> Geometry <==

    Molecular point group: c2h
    Full point group: C2h

    Geometry (in Angstrom), charge = 0, multiplicity = 1:

       Center              X                  Y                   Z               Mass       
    ------------   -----------------  -----------------  -----------------  -----------------
           C         -1.415253322400     0.229697281077     0.000000000000    12.000000000000
           C          1.415253322400    -0.229697281077     0.000000000000    12.000000000000
           C         -0.495103775762     1.314471934318     0.000000000000    12.000000000000
           C          0.495103775762    -1.314471934318     0.000000000000    12.000000000000
           C          0.889433427844     1.090929494764     0.000000000000    12.000000000000
           C         -0.889433427844    -1.090929494764     0.000000000000    12.000000000000
           H         -0.879498812760     2.343754033999     0.000000000000     1.007825032070
           H          0.879498812760    -2.343754033999     0.000000000000     1.007825032070
           H          1.577947629306     1.944970859136     0.000000000000     1.007825032070
           H         -1.577947629306    -1.944970859136     0.000000000000     1.007825032070
           C          2.884572849124    -0.521153852296     0.000000000000    12.000000000000
           C         -2.884572849124     0.521153852296     0.000000000000    12.000000000000
           H          3.140300098456    -1.592030759393     0.000000000000     1.007825032070
           H         -3.140300098456     1.592030759393     0.000000000000     1.007825032070
           C          3.880051354201     0.382166818019     0.000000000000    12.000000000000
           C         -3.880051354201    -0.382166818019     0.000000000000    12.000000000000
           H          3.694709273355     1.462356375813     0.000000000000     1.007825032070
           H         -3.694709273355    -1.462356375813     0.000000000000     1.007825032070
           H          4.931646943895     0.070994725132     0.000000000000     1.007825032070
           H         -4.931646943895    -0.070994725132     0.000000000000     1.007825032070

  Nuclear repulsion =  445.939128250305544

  ==> Basis Set <==

  Basis Set: STO-3G
    Number of shells: 40
    Number of basis function: 60
    Number of Cartesian functions: 60
    Spherical Harmonics?: true
    Max angular momentum: 1

  ==> DFJKGrad: Density-Fitted SCF Gradients <==

    Gradient:                    1
    J tasked:                  Yes
    K tasked:                  Yes
    wK tasked:                  No
    OpenMP threads:              1
    Integrals threads:           1
    Memory (MB):               183
    Schwarz Cutoff:          0E+00
    Fitting Condition:       1E-12

   => Auxiliary Basis Set <=

  Basis Set: 
    Number of shells: 240
    Number of basis function: 700
    Number of Cartesian functions: 810
    Spherical Harmonics?: true
    Max angular momentum: 3


  -Total Gradient:
     Atom            X                  Y                   Z
    ------   -----------------  -----------------  -----------------
       1       -0.024753511339     0.002962798447     0.000000000000
       2        0.024753511339    -0.002962798447     0.000000000000
       3       -0.002771220557     0.014608579891     0.000000000000
       4        0.002771220557    -0.014608579891     0.000000000000
       5        0.005675039544     0.013116678783     0.000000000000
       6       -0.005675039544    -0.013116678783     0.000000000000
       7       -0.005010108345     0.013093237451     0.000000000000
       8        0.005010108345    -0.013093237451     0.000000000000
       9        0.009878740700     0.009812895571     0.000000000000
      10       -0.009878740700    -0.009812895571     0.000000000000
      11       -0.032901635853    -0.017631917919     0.000000000000
      12        0.032901635853     0.017631917919     0.000000000000
      13        0.003263898858    -0.014105284887     0.000000000000
      14       -0.003263898858     0.014105284887     0.000000000000
      15        0.023991320270     0.021073194898     0.000000000000
      16       -0.023991320270    -0.021073194898     0.000000000000
      17       -0.003382274656     0.013514507847     0.000000000000
      18        0.003382274656    -0.013514507847     0.000000000000
      19        0.013252475475    -0.003914141122     0.000000000000
      20       -0.013252475475     0.003914141122     0.000000000000


*** tstop() called on copper at Tue Aug  2 20:26:20 2016
Module time:
	user time   =       2.00 seconds =       0.03 minutes
	system time =       0.00 seconds =       0.00 minutes
	total time  =          2 seconds =       0.03 minutes
Total time:
	user time   =      11.30 seconds =       0.19 minutes
	system time =       0.06 seconds =       0.00 minutes
	total time  =         11 seconds =       0.18 minutes

  //>>>>>>>>>>>>>>>>>>>>>>>>>>>>>>>>>>>//
  //    Loading displacement 4 of 74   //
  //<<<<<<<<<<<<<<<<<<<<<<<<<<<<<<<<<<<//
gradient() will perform analytic gradient computation.

*** tstart() called on copper
*** at Tue Aug  2 20:26:20 2016


         ---------------------------------------------------------
                                   SCF
            by Justin Turney, Rob Parrish, and Andy Simmonett
                              RHF Reference
                        1 Threads,    256 MiB Core
         ---------------------------------------------------------

  ==> Geometry <==

    Molecular point group: c2h
    Full point group: C2h

    Geometry (in Angstrom), charge = 0, multiplicity = 1:

       Center              X                  Y                   Z               Mass       
    ------------   -----------------  -----------------  -----------------  -----------------
           C         -1.415253322400     0.230746289723     0.000000000000    12.000000000000
           C          1.415253322400    -0.230746289723     0.000000000000    12.000000000000
           C         -0.495162535838     1.314449800482     0.000000000000    12.000000000000
           C          0.495162535838    -1.314449800482     0.000000000000    12.000000000000
           C          0.889384659356     1.090969253836     0.000000000000    12.000000000000
           C         -0.889384659356    -1.090969253836     0.000000000000    12.000000000000
           H         -0.879603584240     2.343714715601     0.000000000000     1.007825032070
           H          0.879603584240    -2.343714715601     0.000000000000     1.007825032070
           H          1.577860682094     1.945041395864     0.000000000000     1.007825032070
           H         -1.577860682094    -1.945041395864     0.000000000000     1.007825032070
           C          2.884596143276    -0.521024903304     0.000000000000    12.000000000000
           C         -2.884596143276     0.521024903304     0.000000000000    12.000000000000
           H          3.140371263544    -1.591890377607     0.000000000000     1.007825032070
           H         -3.140371263544     1.591890377607     0.000000000000     1.007825032070
           C          3.880034266399     0.382340266781     0.000000000000    12.000000000000
           C         -3.880034266399    -0.382340266781     0.000000000000    12.000000000000
           H          3.694643898245     1.462521538187     0.000000000000     1.007825032070
           H         -3.694643898245    -1.462521538187     0.000000000000     1.007825032070
           H          4.931643765305     0.071215183468     0.000000000000     1.007825032070
           H         -4.931643765305    -0.071215183468     0.000000000000     1.007825032070

  Running in c2h symmetry.

  Rotational constants: A =      0.15403  B =      0.02287  C =      0.01992 [cm^-1]
  Rotational constants: A =   4617.57632  B =    685.76232  C =    597.08799 [MHz]
  Nuclear repulsion =  445.934833197626176

  Charge       = 0
  Multiplicity = 1
  Electrons    = 70
  Nalpha       = 35
  Nbeta        = 35

  ==> Algorithm <==

  SCF Algorithm Type is DF.
  DIIS enabled.
  MOM disabled.
  Fractional occupation disabled.
  Guess Type is SAD.
  Energy threshold   = 1.00e-08
  Density threshold  = 1.00e-08
  Integral threshold = 0.00e+00

  ==> Primary Basis <==

  Basis Set: STO-3G
    Number of shells: 40
    Number of basis function: 60
    Number of Cartesian functions: 60
    Spherical Harmonics?: true
    Max angular momentum: 1

  ==> Pre-Iterations <==

   -------------------------------------------------------
    Irrep   Nso     Nmo     Nalpha   Nbeta   Ndocc  Nsocc
   -------------------------------------------------------
     Ag        25      25       0       0       0       0
     Bg         5       5       0       0       0       0
     Au         5       5       0       0       0       0
     Bu        25      25       0       0       0       0
   -------------------------------------------------------
    Total      60      60      35      35      35       0
   -------------------------------------------------------

  ==> Integral Setup <==

  ==> DFJK: Density-Fitted J/K Matrices <==

    J tasked:                  Yes
    K tasked:                  Yes
    wK tasked:                  No
    OpenMP threads:              1
    Integrals threads:           1
    Memory (MB):               183
    Algorithm:                Core
    Integral Cache:           NONE
    Schwarz Cutoff:          1E-12
    Fitting Condition:       1E-12

   => Auxiliary Basis Set <=

  Basis Set: 
    Number of shells: 240
    Number of basis function: 700
    Number of Cartesian functions: 810
    Spherical Harmonics?: true
    Max angular momentum: 3

  Minimum eigenvalue in the overlap matrix is 1.8148727040E-01.
  Using Symmetric Orthogonalization.
  SCF Guess: Superposition of Atomic Densities via on-the-fly atomic UHF.

  ==> Iterations <==

                           Total Energy        Delta E     RMS |[F,P]|

   @DF-RHF iter   0:  -379.40273834046866   -3.79403e+02   1.22406e-01 
   @DF-RHF iter   1:  -379.51255400725586   -1.09816e-01   1.48232e-02 
   @DF-RHF iter   2:  -379.75449651286044   -2.41943e-01   3.85576e-03 DIIS
   @DF-RHF iter   3:  -379.76942766547677   -1.49312e-02   1.54618e-03 DIIS
   @DF-RHF iter   4:  -379.77132759681979   -1.89993e-03   2.30998e-04 DIIS
   @DF-RHF iter   5:  -379.77137909423686   -5.14974e-05   2.54688e-05 DIIS
   @DF-RHF iter   6:  -379.77138039431588   -1.30008e-06   8.41113e-06 DIIS
   @DF-RHF iter   7:  -379.77138050428334   -1.09967e-07   2.68569e-06 DIIS
   @DF-RHF iter   8:  -379.77138051794759   -1.36642e-08   6.92460e-07 DIIS
   @DF-RHF iter   9:  -379.77138051872589   -7.78300e-10   2.08221e-07 DIIS
   @DF-RHF iter  10:  -379.77138051879251   -6.66205e-11   5.06732e-08 DIIS
   @DF-RHF iter  11:  -379.77138051879740   -4.88853e-12   1.17627e-08 DIIS
   @DF-RHF iter  12:  -379.77138051879763   -2.27374e-13   2.74000e-09 DIIS

  ==> Post-Iterations <==

    Orbital Energies (a.u.)
    -----------------------

    Doubly Occupied:                                                      

       1Bu   -11.040935     1Ag   -11.040872     2Bu   -11.031927  
       2Ag   -11.031926     3Bu   -11.029276     3Ag   -11.029145  
       4Bu   -11.028935     4Ag   -11.028913     5Bu   -11.017796  
       5Ag   -11.017796     6Ag    -1.090283     6Bu    -1.020264  
       7Ag    -0.974924     7Bu    -0.950321     8Bu    -0.909620  
       8Ag    -0.799939     9Ag    -0.762742     9Bu    -0.727647  
      10Ag    -0.696785    11Ag    -0.628015    10Bu    -0.605666  
      11Bu    -0.572936    12Bu    -0.553505    12Ag    -0.553149  
      13Bu    -0.525359    14Bu    -0.496716    13Ag    -0.492500  
       1Au    -0.463671    15Bu    -0.446394    14Ag    -0.421792  
      15Ag    -0.415474     1Bg    -0.376936     2Au    -0.315107  
       2Bg    -0.278314     3Bg    -0.222142  

    Virtual:                                                              

       3Au     0.199015     4Au     0.268602     4Bg     0.308883  
       5Au     0.397163     5Bg     0.521840    16Ag     0.565071  
      16Bu     0.575543    17Ag     0.621680    17Bu     0.626042  
      18Ag     0.658300    18Bu     0.659426    19Bu     0.677219  
      19Ag     0.694247    20Bu     0.706841    20Ag     0.740236  
      21Ag     0.802328    21Bu     0.825561    22Ag     0.860648  
      22Bu     0.887944    23Bu     0.920979    23Ag     0.940028  
      24Ag     0.990392    24Bu     1.027348    25Ag     1.107686  
      25Bu     1.125029  

    Final Occupation by Irrep:
             Ag    Bg    Au    Bu 
    DOCC [    15,    3,    2,   15 ]

  Energy converged.

  @DF-RHF Final Energy:  -379.77138051879763

   => Energetics <=

    Nuclear Repulsion Energy =            445.9348331976261761
    One-Electron Energy =               -1400.2169817280669122
    Two-Electron Energy =                 574.5107680116431084
    DFT Exchange-Correlation Energy =       0.0000000000000000
    Empirical Dispersion Energy =           0.0000000000000000
    PCM Polarization Energy =               0.0000000000000000
    EFP Energy =                            0.0000000000000000
    Total Energy =                       -379.7713805187976277


  Saving occupied orbitals to File 180.

*** tstop() called on copper at Tue Aug  2 20:26:22 2016
Module time:
	user time   =       1.59 seconds =       0.03 minutes
	system time =       0.01 seconds =       0.00 minutes
	total time  =          2 seconds =       0.03 minutes
Total time:
	user time   =      13.07 seconds =       0.22 minutes
	system time =       0.07 seconds =       0.00 minutes
	total time  =         13 seconds =       0.22 minutes


Properties will be evaluated at   0.000000,   0.000000,   0.000000 Bohr

Properties computed using the SCF density matrix

  Nuclear Dipole Moment: (a.u.)
     X:     0.0000      Y:     0.0000      Z:     0.0000

  Electronic Dipole Moment: (a.u.)
     X:     0.0000      Y:     0.0000      Z:     0.0000

  Dipole Moment: (a.u.)
     X:     0.0000      Y:     0.0000      Z:     0.0000     Total:     0.0000

  Dipole Moment: (Debye)
     X:     0.0000      Y:     0.0000      Z:     0.0000     Total:     0.0000


*** tstart() called on copper
*** at Tue Aug  2 20:26:22 2016


         ------------------------------------------------------------
                                   SCF GRAD                          
                          Rob Parrish, Justin Turney,                
                       Andy Simmonett, and Alex Sokolov              
         ------------------------------------------------------------

  ==> Geometry <==

    Molecular point group: c2h
    Full point group: C2h

    Geometry (in Angstrom), charge = 0, multiplicity = 1:

       Center              X                  Y                   Z               Mass       
    ------------   -----------------  -----------------  -----------------  -----------------
           C         -1.415253322400     0.230746289723     0.000000000000    12.000000000000
           C          1.415253322400    -0.230746289723     0.000000000000    12.000000000000
           C         -0.495162535838     1.314449800482     0.000000000000    12.000000000000
           C          0.495162535838    -1.314449800482     0.000000000000    12.000000000000
           C          0.889384659356     1.090969253836     0.000000000000    12.000000000000
           C         -0.889384659356    -1.090969253836     0.000000000000    12.000000000000
           H         -0.879603584240     2.343714715601     0.000000000000     1.007825032070
           H          0.879603584240    -2.343714715601     0.000000000000     1.007825032070
           H          1.577860682094     1.945041395864     0.000000000000     1.007825032070
           H         -1.577860682094    -1.945041395864     0.000000000000     1.007825032070
           C          2.884596143276    -0.521024903304     0.000000000000    12.000000000000
           C         -2.884596143276     0.521024903304     0.000000000000    12.000000000000
           H          3.140371263544    -1.591890377607     0.000000000000     1.007825032070
           H         -3.140371263544     1.591890377607     0.000000000000     1.007825032070
           C          3.880034266399     0.382340266781     0.000000000000    12.000000000000
           C         -3.880034266399    -0.382340266781     0.000000000000    12.000000000000
           H          3.694643898245     1.462521538187     0.000000000000     1.007825032070
           H         -3.694643898245    -1.462521538187     0.000000000000     1.007825032070
           H          4.931643765305     0.071215183468     0.000000000000     1.007825032070
           H         -4.931643765305    -0.071215183468     0.000000000000     1.007825032070

  Nuclear repulsion =  445.934833197626176

  ==> Basis Set <==

  Basis Set: STO-3G
    Number of shells: 40
    Number of basis function: 60
    Number of Cartesian functions: 60
    Spherical Harmonics?: true
    Max angular momentum: 1

  ==> DFJKGrad: Density-Fitted SCF Gradients <==

    Gradient:                    1
    J tasked:                  Yes
    K tasked:                  Yes
    wK tasked:                  No
    OpenMP threads:              1
    Integrals threads:           1
    Memory (MB):               183
    Schwarz Cutoff:          0E+00
    Fitting Condition:       1E-12

   => Auxiliary Basis Set <=

  Basis Set: 
    Number of shells: 240
    Number of basis function: 700
    Number of Cartesian functions: 810
    Spherical Harmonics?: true
    Max angular momentum: 3


  -Total Gradient:
     Atom            X                  Y                   Z
    ------   -----------------  -----------------  -----------------
       1       -0.024722753294     0.004860168779     0.000000000000
       2        0.024722753294    -0.004860168779     0.000000000000
       3       -0.003123683412     0.013916091242     0.000000000000
       4        0.003123683412    -0.013916091242     0.000000000000
       5        0.005467570426     0.014001218229     0.000000000000
       6       -0.005467570426    -0.014001218229     0.000000000000
       7       -0.005062018313     0.013059679834     0.000000000000
       8        0.005062018313    -0.013059679834     0.000000000000
       9        0.009851716825     0.009845961739     0.000000000000
      10       -0.009851716825    -0.009845961739     0.000000000000
      11       -0.032962651567    -0.017330001356     0.000000000000
      12        0.032962651567     0.017330001356     0.000000000000
      13        0.003188776328    -0.014101259433     0.000000000000
      14       -0.003188776328     0.014101259433     0.000000000000
      15        0.024044208699     0.021033035267     0.000000000000
      16       -0.024044208699    -0.021033035267     0.000000000000
      17       -0.003386726850     0.013512727160     0.000000000000
      18        0.003386726850    -0.013512727160     0.000000000000
      19        0.013258786217    -0.003904828973     0.000000000000
      20       -0.013258786217     0.003904828973     0.000000000000


*** tstop() called on copper at Tue Aug  2 20:26:24 2016
Module time:
	user time   =       1.98 seconds =       0.03 minutes
	system time =       0.00 seconds =       0.00 minutes
	total time  =          2 seconds =       0.03 minutes
Total time:
	user time   =      15.05 seconds =       0.25 minutes
	system time =       0.07 seconds =       0.00 minutes
	total time  =         15 seconds =       0.25 minutes

  //>>>>>>>>>>>>>>>>>>>>>>>>>>>>>>>>>>>//
  //    Loading displacement 5 of 74   //
  //<<<<<<<<<<<<<<<<<<<<<<<<<<<<<<<<<<<//
gradient() will perform analytic gradient computation.

*** tstart() called on copper
*** at Tue Aug  2 20:26:24 2016


         ---------------------------------------------------------
                                   SCF
            by Justin Turney, Rob Parrish, and Andy Simmonett
                              RHF Reference
                        1 Threads,    256 MiB Core
         ---------------------------------------------------------

  ==> Geometry <==

    Molecular point group: c2h
    Full point group: C2h

    Geometry (in Angstrom), charge = 0, multiplicity = 1:

       Center              X                  Y                   Z               Mass       
    ------------   -----------------  -----------------  -----------------  -----------------
           C         -1.415253322400     0.230221785400     0.000000000000    12.000000000000
           C          1.415253322400    -0.230221785400     0.000000000000    12.000000000000
           C         -0.495659008161     1.314471738120     0.000000000000    12.000000000000
           C          0.495659008161    -1.314471738120     0.000000000000    12.000000000000
           C          0.889432995551     1.090929847196     0.000000000000    12.000000000000
           C         -0.889432995551    -1.090929847196     0.000000000000    12.000000000000
           H         -0.879499741473     2.343753685474     0.000000000000     1.007825032070
           H          0.879499741473    -2.343753685474     0.000000000000     1.007825032070
           H          1.577946858590     1.944971484386     0.000000000000     1.007825032070
           H         -1.577946858590    -1.944971484386     0.000000000000     1.007825032070
           C          2.884573055607    -0.521152709269     0.000000000000    12.000000000000
           C         -2.884573055607     0.521152709269     0.000000000000    12.000000000000
           H          3.140300729276    -1.592029515023     0.000000000000     1.007825032070
           H         -3.140300729276     1.592029515023     0.000000000000     1.007825032070
           C          3.880051202732     0.382168355500     0.000000000000    12.000000000000
           C         -3.880051202732    -0.382168355500     0.000000000000    12.000000000000
           H          3.694708693858     1.462357839842     0.000000000000     1.007825032070
           H         -3.694708693858    -1.462357839842     0.000000000000     1.007825032070
           H          4.931646915720     0.070996679314     0.000000000000     1.007825032070
           H         -4.931646915720    -0.070996679314     0.000000000000     1.007825032070

  Running in c2h symmetry.

  Rotational constants: A =      0.15403  B =      0.02287  C =      0.01992 [cm^-1]
  Rotational constants: A =   4617.85137  B =    685.74938  C =    597.08278 [MHz]
  Nuclear repulsion =  445.932965616948309

  Charge       = 0
  Multiplicity = 1
  Electrons    = 70
  Nalpha       = 35
  Nbeta        = 35

  ==> Algorithm <==

  SCF Algorithm Type is DF.
  DIIS enabled.
  MOM disabled.
  Fractional occupation disabled.
  Guess Type is SAD.
  Energy threshold   = 1.00e-08
  Density threshold  = 1.00e-08
  Integral threshold = 0.00e+00

  ==> Primary Basis <==

  Basis Set: STO-3G
    Number of shells: 40
    Number of basis function: 60
    Number of Cartesian functions: 60
    Spherical Harmonics?: true
    Max angular momentum: 1

  ==> Pre-Iterations <==

   -------------------------------------------------------
    Irrep   Nso     Nmo     Nalpha   Nbeta   Ndocc  Nsocc
   -------------------------------------------------------
     Ag        25      25       0       0       0       0
     Bg         5       5       0       0       0       0
     Au         5       5       0       0       0       0
     Bu        25      25       0       0       0       0
   -------------------------------------------------------
    Total      60      60      35      35      35       0
   -------------------------------------------------------

  ==> Integral Setup <==

  ==> DFJK: Density-Fitted J/K Matrices <==

    J tasked:                  Yes
    K tasked:                  Yes
    wK tasked:                  No
    OpenMP threads:              1
    Integrals threads:           1
    Memory (MB):               183
    Algorithm:                Core
    Integral Cache:           NONE
    Schwarz Cutoff:          1E-12
    Fitting Condition:       1E-12

   => Auxiliary Basis Set <=

  Basis Set: 
    Number of shells: 240
    Number of basis function: 700
    Number of Cartesian functions: 810
    Spherical Harmonics?: true
    Max angular momentum: 3

  Minimum eigenvalue in the overlap matrix is 1.8150663057E-01.
  Using Symmetric Orthogonalization.
  SCF Guess: Superposition of Atomic Densities via on-the-fly atomic UHF.

  ==> Iterations <==

                           Total Energy        Delta E     RMS |[F,P]|

   @DF-RHF iter   0:  -379.40056185954234   -3.79401e+02   1.22390e-01 
   @DF-RHF iter   1:  -379.51259327331206   -1.12031e-01   1.48230e-02 
   @DF-RHF iter   2:  -379.75450231139268   -2.41909e-01   3.85547e-03 DIIS
   @DF-RHF iter   3:  -379.76943044928646   -1.49281e-02   1.54579e-03 DIIS
   @DF-RHF iter   4:  -379.77132921657790   -1.89877e-03   2.30899e-04 DIIS
   @DF-RHF iter   5:  -379.77138064255882   -5.14260e-05   2.54103e-05 DIIS
   @DF-RHF iter   6:  -379.77138193799055   -1.29543e-06   8.37398e-06 DIIS
   @DF-RHF iter   7:  -379.77138204695962   -1.08969e-07   2.67770e-06 DIIS
   @DF-RHF iter   8:  -379.77138206054258   -1.35830e-08   6.91459e-07 DIIS
   @DF-RHF iter   9:  -379.77138206131974   -7.77163e-10   2.07642e-07 DIIS
   @DF-RHF iter  10:  -379.77138206138591   -6.61657e-11   5.05625e-08 DIIS
   @DF-RHF iter  11:  -379.77138206139091   -5.00222e-12   1.17340e-08 DIIS
   @DF-RHF iter  12:  -379.77138206139091    0.00000e+00   2.74866e-09 DIIS

  ==> Post-Iterations <==

    Orbital Energies (a.u.)
    -----------------------

    Doubly Occupied:                                                      

       1Bu   -11.040938     1Ag   -11.040876     2Bu   -11.031907  
       2Ag   -11.031907     3Bu   -11.029272     3Ag   -11.029141  
       4Bu   -11.028933     4Ag   -11.028911     5Bu   -11.017768  
       5Ag   -11.017768     6Ag    -1.090270     6Bu    -1.020289  
       7Ag    -0.974890     7Bu    -0.950204     8Bu    -0.909673  
       8Ag    -0.799861     9Ag    -0.762861     9Bu    -0.727631  
      10Ag    -0.696749    11Ag    -0.628006    10Bu    -0.605621  
      11Bu    -0.573026    12Bu    -0.553573    12Ag    -0.553127  
      13Bu    -0.525299    14Bu    -0.496630    13Ag    -0.492492  
       1Au    -0.463657    15Bu    -0.446439    14Ag    -0.421640  
      15Ag    -0.415660     1Bg    -0.376952     2Au    -0.315074  
       2Bg    -0.278150     3Bg    -0.222250  

    Virtual:                                                              

       3Au     0.199171     4Au     0.268390     4Bg     0.308884  
       5Au     0.397191     5Bg     0.521805    16Ag     0.565175  
      16Bu     0.575750    17Ag     0.621651    17Bu     0.625852  
      18Ag     0.658253    18Bu     0.659459    19Bu     0.677243  
      19Ag     0.694302    20Bu     0.706847    20Ag     0.740144  
      21Ag     0.802544    21Bu     0.825794    22Ag     0.860614  
      22Bu     0.887472    23Bu     0.921081    23Ag     0.939932  
      24Ag     0.990238    24Bu     1.027391    25Ag     1.107697  
      25Bu     1.124972  

    Final Occupation by Irrep:
             Ag    Bg    Au    Bu 
    DOCC [    15,    3,    2,   15 ]

  Energy converged.

  @DF-RHF Final Energy:  -379.77138206139091

   => Energetics <=

    Nuclear Repulsion Energy =            445.9329656169483087
    One-Electron Energy =               -1400.2138062375656773
    Two-Electron Energy =                 574.5094585592264593
    DFT Exchange-Correlation Energy =       0.0000000000000000
    Empirical Dispersion Energy =           0.0000000000000000
    PCM Polarization Energy =               0.0000000000000000
    EFP Energy =                            0.0000000000000000
    Total Energy =                       -379.7713820613909093


  Saving occupied orbitals to File 180.

*** tstop() called on copper at Tue Aug  2 20:26:25 2016
Module time:
	user time   =       1.50 seconds =       0.02 minutes
	system time =       0.00 seconds =       0.00 minutes
	total time  =          1 seconds =       0.02 minutes
Total time:
	user time   =      16.71 seconds =       0.28 minutes
	system time =       0.08 seconds =       0.00 minutes
	total time  =         16 seconds =       0.27 minutes


Properties will be evaluated at   0.000000,   0.000000,   0.000000 Bohr

Properties computed using the SCF density matrix

  Nuclear Dipole Moment: (a.u.)
     X:     0.0000      Y:     0.0000      Z:     0.0000

  Electronic Dipole Moment: (a.u.)
     X:     0.0000      Y:     0.0000      Z:     0.0000

  Dipole Moment: (a.u.)
     X:     0.0000      Y:     0.0000      Z:     0.0000     Total:     0.0000

  Dipole Moment: (Debye)
     X:     0.0000      Y:     0.0000      Z:     0.0000     Total:     0.0000


*** tstart() called on copper
*** at Tue Aug  2 20:26:25 2016


         ------------------------------------------------------------
                                   SCF GRAD                          
                          Rob Parrish, Justin Turney,                
                       Andy Simmonett, and Alex Sokolov              
         ------------------------------------------------------------

  ==> Geometry <==

    Molecular point group: c2h
    Full point group: C2h

    Geometry (in Angstrom), charge = 0, multiplicity = 1:

       Center              X                  Y                   Z               Mass       
    ------------   -----------------  -----------------  -----------------  -----------------
           C         -1.415253322400     0.230221785400     0.000000000000    12.000000000000
           C          1.415253322400    -0.230221785400     0.000000000000    12.000000000000
           C         -0.495659008161     1.314471738120     0.000000000000    12.000000000000
           C          0.495659008161    -1.314471738120     0.000000000000    12.000000000000
           C          0.889432995551     1.090929847196     0.000000000000    12.000000000000
           C         -0.889432995551    -1.090929847196     0.000000000000    12.000000000000
           H         -0.879499741473     2.343753685474     0.000000000000     1.007825032070
           H          0.879499741473    -2.343753685474     0.000000000000     1.007825032070
           H          1.577946858590     1.944971484386     0.000000000000     1.007825032070
           H         -1.577946858590    -1.944971484386     0.000000000000     1.007825032070
           C          2.884573055607    -0.521152709269     0.000000000000    12.000000000000
           C         -2.884573055607     0.521152709269     0.000000000000    12.000000000000
           H          3.140300729276    -1.592029515023     0.000000000000     1.007825032070
           H         -3.140300729276     1.592029515023     0.000000000000     1.007825032070
           C          3.880051202732     0.382168355500     0.000000000000    12.000000000000
           C         -3.880051202732    -0.382168355500     0.000000000000    12.000000000000
           H          3.694708693858     1.462357839842     0.000000000000     1.007825032070
           H         -3.694708693858    -1.462357839842     0.000000000000     1.007825032070
           H          4.931646915720     0.070996679314     0.000000000000     1.007825032070
           H         -4.931646915720    -0.070996679314     0.000000000000     1.007825032070

  Nuclear repulsion =  445.932965616948309

  ==> Basis Set <==

  Basis Set: STO-3G
    Number of shells: 40
    Number of basis function: 60
    Number of Cartesian functions: 60
    Spherical Harmonics?: true
    Max angular momentum: 1

  ==> DFJKGrad: Density-Fitted SCF Gradients <==

    Gradient:                    1
    J tasked:                  Yes
    K tasked:                  Yes
    wK tasked:                  No
    OpenMP threads:              1
    Integrals threads:           1
    Memory (MB):               183
    Schwarz Cutoff:          0E+00
    Fitting Condition:       1E-12

   => Auxiliary Basis Set <=

  Basis Set: 
    Number of shells: 240
    Number of basis function: 700
    Number of Cartesian functions: 810
    Spherical Harmonics?: true
    Max angular momentum: 3


  -Total Gradient:
     Atom            X                  Y                   Z
    ------   -----------------  -----------------  -----------------
       1       -0.024505234082     0.004032602085     0.000000000000
       2        0.024505234082    -0.004032602085     0.000000000000
       3       -0.003912784939     0.014315121523     0.000000000000
       4        0.003912784939    -0.014315121523     0.000000000000
       5        0.006100948899     0.013496055113     0.000000000000
       6       -0.006100948899    -0.013496055113     0.000000000000
       7       -0.004901631241     0.012955382180     0.000000000000
       8        0.004901631241    -0.012955382180     0.000000000000
       9        0.009878323150     0.009819541900     0.000000000000
      10       -0.009878323150    -0.009819541900     0.000000000000
      11       -0.032987209575    -0.017527261533     0.000000000000
      12        0.032987209575     0.017527261533     0.000000000000
      13        0.003230095292    -0.014105759384     0.000000000000
      14       -0.003230095292     0.014105759384     0.000000000000
      15        0.024018541156     0.021063542255     0.000000000000
      16       -0.024018541156    -0.021063542255     0.000000000000
      17       -0.003384196059     0.013514072667     0.000000000000
      18        0.003384196059    -0.013514072667     0.000000000000
      19        0.013255008537    -0.003911269997     0.000000000000
      20       -0.013255008537     0.003911269997     0.000000000000


*** tstop() called on copper at Tue Aug  2 20:26:27 2016
Module time:
	user time   =       1.93 seconds =       0.03 minutes
	system time =       0.02 seconds =       0.00 minutes
	total time  =          2 seconds =       0.03 minutes
Total time:
	user time   =      18.65 seconds =       0.31 minutes
	system time =       0.10 seconds =       0.00 minutes
	total time  =         18 seconds =       0.30 minutes

  //>>>>>>>>>>>>>>>>>>>>>>>>>>>>>>>>>>>//
  //    Loading displacement 6 of 74   //
  //<<<<<<<<<<<<<<<<<<<<<<<<<<<<<<<<<<<//
gradient() will perform analytic gradient computation.

*** tstart() called on copper
*** at Tue Aug  2 20:26:28 2016


         ---------------------------------------------------------
                                   SCF
            by Justin Turney, Rob Parrish, and Andy Simmonett
                              RHF Reference
                        1 Threads,    256 MiB Core
         ---------------------------------------------------------

  ==> Geometry <==

    Molecular point group: c2h
    Full point group: C2h

    Geometry (in Angstrom), charge = 0, multiplicity = 1:

       Center              X                  Y                   Z               Mass       
    ------------   -----------------  -----------------  -----------------  -----------------
           C         -1.415253322400     0.230221785400     0.000000000000    12.000000000000
           C          1.415253322400    -0.230221785400     0.000000000000    12.000000000000
           C         -0.494607303439     1.314449996680     0.000000000000    12.000000000000
           C          0.494607303439    -1.314449996680     0.000000000000    12.000000000000
           C          0.889385091649     1.090968901404     0.000000000000    12.000000000000
           C         -0.889385091649    -1.090968901404     0.000000000000    12.000000000000
           H         -0.879602655527     2.343715064126     0.000000000000     1.007825032070
           H          0.879602655527    -2.343715064126     0.000000000000     1.007825032070
           H          1.577861452810     1.945040770614     0.000000000000     1.007825032070
           H         -1.577861452810    -1.945040770614     0.000000000000     1.007825032070
           C          2.884595936793    -0.521026046331     0.000000000000    12.000000000000
           C         -2.884595936793     0.521026046331     0.000000000000    12.000000000000
           H          3.140370632724    -1.591891621977     0.000000000000     1.007825032070
           H         -3.140370632724     1.591891621977     0.000000000000     1.007825032070
           C          3.880034417868     0.382338729300     0.000000000000    12.000000000000
           C         -3.880034417868    -0.382338729300     0.000000000000    12.000000000000
           H          3.694644477742     1.462520074158     0.000000000000     1.007825032070
           H         -3.694644477742    -1.462520074158     0.000000000000     1.007825032070
           H          4.931643793480     0.071213229286     0.000000000000     1.007825032070
           H         -4.931643793480    -0.071213229286     0.000000000000     1.007825032070

  Running in c2h symmetry.

  Rotational constants: A =      0.15403  B =      0.02287  C =      0.01992 [cm^-1]
  Rotational constants: A =   4617.83536  B =    685.77426  C =    597.10138 [MHz]
  Nuclear repulsion =  445.941000642238237

  Charge       = 0
  Multiplicity = 1
[...]
  H 	   0.176  -0.011   0.000       1.007825
  C 	  -0.089  -0.072   0.000      12.000000
  C 	   0.089   0.072   0.000      12.000000
  H 	   0.248  -0.032   0.000       1.007825
  H 	  -0.248   0.032   0.000       1.007825
  H 	  -0.025   0.214   0.000       1.007825
  H 	   0.025  -0.214   0.000       1.007825

   Frequency:       1944.71
   Force constant:   0.1431
	     X       Y       Z           mass	
  C 	  -0.031  -0.012   0.000      12.000000
  C 	  -0.031  -0.012   0.000      12.000000
  C 	  -0.003   0.006   0.000      12.000000
  C 	  -0.003   0.006   0.000      12.000000
  C 	   0.014  -0.004   0.000      12.000000
  C 	   0.014  -0.004   0.000      12.000000
  H 	  -0.003   0.010   0.000       1.007825
  H 	  -0.003   0.010   0.000       1.007825
  H 	  -0.033   0.038   0.000       1.007825
  H 	  -0.033   0.038   0.000       1.007825
  C 	   0.108   0.062   0.000      12.000000
  C 	   0.108   0.062   0.000      12.000000
  H 	  -0.169   0.011   0.000       1.007825
  H 	  -0.169   0.011   0.000       1.007825
  C 	  -0.089  -0.071   0.000      12.000000
  C 	  -0.089  -0.071   0.000      12.000000
  H 	   0.248  -0.032   0.000       1.007825
  H 	   0.248  -0.032   0.000       1.007825
  H 	  -0.026   0.211   0.000       1.007825
  H 	  -0.026   0.211   0.000       1.007825

   Frequency:       3519.84
   Force constant:   0.4689
	     X       Y       Z           mass	
  C 	  -0.000  -0.000   0.000      12.000000
  C 	  -0.000  -0.000   0.000      12.000000
  C 	   0.000  -0.002   0.000      12.000000
  C 	   0.000  -0.002   0.000      12.000000
  C 	   0.002   0.003   0.000      12.000000
  C 	   0.002   0.003   0.000      12.000000
  H 	  -0.007   0.019   0.000       1.007825
  H 	  -0.007   0.019   0.000       1.007825
  H 	  -0.022  -0.030   0.000       1.007825
  H 	  -0.022  -0.030   0.000       1.007825
  C 	   0.009  -0.014   0.000      12.000000
  C 	   0.009  -0.014   0.000      12.000000
  H 	  -0.048   0.204   0.000       1.007825
  H 	  -0.048   0.204   0.000       1.007825
  C 	  -0.036  -0.029   0.000      12.000000
  C 	  -0.036  -0.029   0.000      12.000000
  H 	  -0.080   0.441   0.000       1.007825
  H 	  -0.080   0.441   0.000       1.007825
  H 	   0.450  -0.137   0.000       1.007825
  H 	   0.450  -0.137   0.000       1.007825

   Frequency:       3521.08
   Force constant:   0.4692
	     X       Y       Z           mass	
  C 	   0.000   0.000   0.000      12.000000
  C 	  -0.000  -0.000   0.000      12.000000
  C 	   0.000   0.000   0.000      12.000000
  C 	  -0.000  -0.000   0.000      12.000000
  C 	   0.002   0.002   0.000      12.000000
  C 	  -0.002  -0.002   0.000      12.000000
  H 	  -0.000   0.001   0.000       1.007825
  H 	   0.000  -0.001   0.000       1.007825
  H 	  -0.015  -0.021   0.000       1.007825
  H 	   0.015   0.021   0.000       1.007825
  C 	   0.009  -0.013   0.000      12.000000
  C 	  -0.009   0.013   0.000      12.000000
  H 	  -0.047   0.200   0.000       1.007825
  H 	   0.047  -0.200   0.000       1.007825
  C 	  -0.036  -0.029   0.000      12.000000
  C 	   0.036   0.029   0.000      12.000000
  H 	  -0.080   0.443   0.000       1.007825
  H 	   0.080  -0.443   0.000       1.007825
  H 	   0.451  -0.138   0.000       1.007825
  H 	  -0.451   0.138   0.000       1.007825

   Frequency:       3565.58
   Force constant:   0.4811
	     X       Y       Z           mass	
  C 	  -0.002   0.001   0.000      12.000000
  C 	  -0.002   0.001   0.000      12.000000
  C 	   0.000   0.000   0.000      12.000000
  C 	   0.000   0.000   0.000      12.000000
  C 	  -0.001  -0.001   0.000      12.000000
  C 	  -0.001  -0.001   0.000      12.000000
  H 	   0.001  -0.002   0.000       1.007825
  H 	   0.001  -0.002   0.000       1.007825
  H 	   0.006   0.008   0.000       1.007825
  H 	   0.006   0.008   0.000       1.007825
  C 	   0.010  -0.058   0.000      12.000000
  C 	   0.010  -0.058   0.000      12.000000
  H 	  -0.147   0.622   0.000       1.007825
  H 	  -0.147   0.622   0.000       1.007825
  C 	   0.013   0.015   0.000      12.000000
  C 	   0.013   0.015   0.000      12.000000
  H 	   0.030  -0.156   0.000       1.007825
  H 	   0.030  -0.156   0.000       1.007825
  H 	  -0.127   0.038   0.000       1.007825
  H 	  -0.127   0.038   0.000       1.007825

   Frequency:       3565.69
   Force constant:   0.4811
	     X       Y       Z           mass	
  C 	   0.002  -0.001   0.000      12.000000
  C 	  -0.002   0.001   0.000      12.000000
  C 	  -0.000   0.001   0.000      12.000000
  C 	   0.000  -0.001   0.000      12.000000
  C 	  -0.001  -0.001   0.000      12.000000
  C 	   0.001   0.001   0.000      12.000000
  H 	   0.003  -0.008   0.000       1.007825
  H 	  -0.003   0.008   0.000       1.007825
  H 	   0.008   0.010   0.000       1.007825
  H 	  -0.008  -0.010   0.000       1.007825
  C 	   0.010  -0.058   0.000      12.000000
  C 	  -0.010   0.058   0.000      12.000000
  H 	  -0.148   0.623   0.000       1.007825
  H 	   0.148  -0.623   0.000       1.007825
  C 	   0.013   0.014   0.000      12.000000
  C 	  -0.013  -0.014   0.000      12.000000
  H 	   0.030  -0.153   0.000       1.007825
  H 	  -0.030   0.153   0.000       1.007825
  H 	  -0.124   0.037   0.000       1.007825
  H 	   0.124  -0.037   0.000       1.007825

   Frequency:       3575.59
   Force constant:   0.4838
	     X       Y       Z           mass	
  C 	  -0.002  -0.001   0.000      12.000000
  C 	  -0.002  -0.001   0.000      12.000000
  C 	  -0.018   0.051   0.000      12.000000
  C 	  -0.018   0.051   0.000      12.000000
  C 	  -0.013  -0.020   0.000      12.000000
  C 	  -0.013  -0.020   0.000      12.000000
  H 	   0.214  -0.573   0.000       1.007825
  H 	   0.214  -0.573   0.000       1.007825
  H 	   0.176   0.219   0.000       1.007825
  H 	   0.176   0.219   0.000       1.007825
  C 	   0.000  -0.000   0.000      12.000000
  C 	   0.000  -0.000   0.000      12.000000
  H 	  -0.000   0.004   0.000       1.007825
  H 	  -0.000   0.004   0.000       1.007825
  C 	  -0.002  -0.001   0.000      12.000000
  C 	  -0.002  -0.001   0.000      12.000000
  H 	  -0.004   0.019   0.000       1.007825
  H 	  -0.004   0.019   0.000       1.007825
  H 	   0.029  -0.009   0.000       1.007825
  H 	   0.029  -0.009   0.000       1.007825

   Frequency:       3582.37
   Force constant:   0.4857
	     X       Y       Z           mass	
  C 	  -0.002  -0.003   0.000      12.000000
  C 	   0.002   0.003   0.000      12.000000
  C 	  -0.019   0.053   0.000      12.000000
  C 	   0.019  -0.053   0.000      12.000000
  C 	  -0.011  -0.018   0.000      12.000000
  C 	   0.011   0.018   0.000      12.000000
  H 	   0.220  -0.588   0.000       1.007825
  H 	  -0.220   0.588   0.000       1.007825
  H 	   0.152   0.188   0.000       1.007825
  H 	  -0.152  -0.188   0.000       1.007825
  C 	  -0.000   0.001   0.000      12.000000
  C 	   0.000  -0.001   0.000      12.000000
  H 	   0.002  -0.009   0.000       1.007825
  H 	  -0.002   0.009   0.000       1.007825
  C 	  -0.001  -0.000   0.000      12.000000
  C 	   0.001   0.000   0.000      12.000000
  H 	  -0.002   0.005   0.000       1.007825
  H 	   0.002  -0.005   0.000       1.007825
  H 	   0.013  -0.004   0.000       1.007825
  H 	  -0.013   0.004   0.000       1.007825

   Frequency:       3602.75
   Force constant:   0.4912
	     X       Y       Z           mass	
  C 	   0.000   0.004   0.000      12.000000
  C 	   0.000   0.004   0.000      12.000000
  C 	   0.012  -0.024   0.000      12.000000
  C 	   0.012  -0.024   0.000      12.000000
  C 	  -0.036  -0.042   0.000      12.000000
  C 	  -0.036  -0.042   0.000      12.000000
  H 	  -0.100   0.262   0.000       1.007825
  H 	  -0.100   0.262   0.000       1.007825
  H 	   0.385   0.472   0.000       1.007825
  H 	   0.385   0.472   0.000       1.007825
  C 	   0.000  -0.000   0.000      12.000000
  C 	   0.000  -0.000   0.000      12.000000
  H 	   0.001  -0.000   0.000       1.007825
  H 	   0.001  -0.000   0.000       1.007825
  C 	  -0.003   0.001   0.000      12.000000
  C 	  -0.003   0.001   0.000      12.000000
  H 	  -0.002   0.004   0.000       1.007825
  H 	  -0.002   0.004   0.000       1.007825
  H 	   0.032  -0.010   0.000       1.007825
  H 	   0.032  -0.010   0.000       1.007825

   Frequency:       3605.93
   Force constant:   0.4921
	     X       Y       Z           mass	
  C 	   0.002  -0.002   0.000      12.000000
  C 	  -0.002   0.002   0.000      12.000000
  C 	   0.011  -0.021   0.000      12.000000
  C 	  -0.011   0.021   0.000      12.000000
  C 	  -0.037  -0.043   0.000      12.000000
  C 	   0.037   0.043   0.000      12.000000
  H 	  -0.085   0.224   0.000       1.007825
  H 	   0.085  -0.224   0.000       1.007825
  H 	   0.396   0.485   0.000       1.007825
  H 	  -0.396  -0.485   0.000       1.007825
  C 	   0.000   0.000   0.000      12.000000
  C 	  -0.000  -0.000   0.000      12.000000
  H 	   0.002  -0.002   0.000       1.007825
  H 	  -0.002   0.002   0.000       1.007825
  C 	  -0.003   0.001   0.000      12.000000
  C 	   0.003  -0.001   0.000      12.000000
  H 	  -0.002   0.001   0.000       1.007825
  H 	   0.002  -0.001   0.000       1.007825
  H 	   0.033  -0.010   0.000       1.007825
  H 	  -0.033   0.010   0.000       1.007825

   Frequency:       3680.36
   Force constant:   0.5126
	     X       Y       Z           mass	
  C 	  -0.000  -0.000   0.000      12.000000
  C 	  -0.000  -0.000   0.000      12.000000
  C 	   0.000  -0.000   0.000      12.000000
  C 	   0.000  -0.000   0.000      12.000000
  C 	  -0.001  -0.001   0.000      12.000000
  C 	  -0.001  -0.001   0.000      12.000000
  H 	  -0.001   0.002   0.000       1.007825
  H 	  -0.001   0.002   0.000       1.007825
  H 	   0.014   0.017   0.000       1.007825
  H 	   0.014   0.017   0.000       1.007825
  C 	   0.000  -0.002   0.000      12.000000
  C 	   0.000  -0.002   0.000      12.000000
  H 	  -0.003   0.024   0.000       1.007825
  H 	  -0.003   0.024   0.000       1.007825
  C 	   0.044  -0.051   0.000      12.000000
  C 	   0.044  -0.051   0.000      12.000000
  H 	  -0.083   0.470   0.000       1.007825
  H 	  -0.083   0.470   0.000       1.007825
  H 	  -0.443   0.131   0.000       1.007825
  H 	  -0.443   0.131   0.000       1.007825

   Frequency:       3680.39
   Force constant:   0.5126
	     X       Y       Z           mass	
  C 	  -0.000  -0.000   0.000      12.000000
  C 	   0.000   0.000   0.000      12.000000
  C 	  -0.000   0.000   0.000      12.000000
  C 	   0.000  -0.000   0.000      12.000000
  C 	   0.001   0.002   0.000      12.000000
  C 	  -0.001  -0.002   0.000      12.000000
  H 	   0.001  -0.002   0.000       1.007825
  H 	  -0.001   0.002   0.000       1.007825
  H 	  -0.016  -0.019   0.000       1.007825
  H 	   0.016   0.019   0.000       1.007825
  C 	  -0.000   0.002   0.000      12.000000
  C 	   0.000  -0.002   0.000      12.000000
  H 	   0.003  -0.024   0.000       1.007825
  H 	  -0.003   0.024   0.000       1.007825
  C 	  -0.044   0.051   0.000      12.000000
  C 	   0.044  -0.051   0.000      12.000000
  H 	   0.083  -0.470   0.000       1.007825
  H 	  -0.083   0.470   0.000       1.007825
  H 	   0.443  -0.131   0.000       1.007825
  H 	  -0.443   0.131   0.000       1.007825

-------------------------------------------------------------

 #  #
 Irrep: 1
      1: 137.2155229
      2: 244.0817780
      3: 247.5857141
      4: 319.6081115
      5: 339.5293293
      6: 414.4096960
      7: 452.2981683
      8: 522.1676437
      9: 546.2865922
     10: 597.8097269
     11: 663.5598677
     12: 729.8793211
     13: 791.0774875
     14: 807.0524146
     15: 861.5418291
     16: 924.0638660
     17: 937.5780240
     18: 996.5771997
     19: 1062.8710253
     20: 1078.7000246
     21: 1161.3128549
     22: 1181.5230568
     23: 1181.5833468
     24: 1197.8332034
     25: 1221.9413292
     26: 1231.6393363
     27: 1236.4674100
     28: 1280.8298727
     29: 1281.0562841
     30: 1328.2527509
     31: 1381.1805952
     32: 1387.7261972
     33: 1427.1091179
     34: 1533.4838783
     35: 1542.6202161
     36: 1558.1982810
     37: 1636.4818945
     38: 1714.7728972
     39: 1727.0677572
     40: 1787.0099639
     41: 1807.0558459
     42: 1874.0267727
     43: 1942.2889879
     44: 1944.7073973
     45: 3519.8428183
     46: 3521.0751727
     47: 3565.5843090
     48: 3565.6851188
     49: 3575.5908875
     50: 3582.3665918
     51: 3602.7456388
     52: 3605.9314694
     53: 3680.3555922
     54: 3680.3904018


            *********************************************
            * Thermodynamic Analysis by R.A. King, 2012 *
            *********************************************

  ==> Inputs to Thermochemistry <==

  Temperature:                       298.15 [K]
  Pressure:                       101325.00 [Pa]
  Multiplicity:                           1
  Full point group:                 Cnh (C2h)
  Rotor type:                ASYMMETRIC_TOP
  Rotational symmetry no.:                2
  Rotational constants: A =      0.15403  B =      0.02287  C =      0.01992 [cm^-1]
  Rotational constants: A =   4617.84332  B =    685.76183  C =    597.09209 [MHz]

  No.    Vib. Freq. [cm^-1]      Vib. Temp. [K]
    1               137.216             197.422
    2               244.082             351.179
    3               247.586             356.220
    4               319.608             459.844
    5               339.529             488.506
    6               414.410             596.242
    7               452.298             650.755
    8               522.168             751.282
    9               546.287             785.984
   10               597.810             860.114
   11               663.560             954.713
   12               729.879            1050.132
   13               791.077            1138.183
   14               807.052            1161.167
   15               861.542            1239.565
   16               924.064            1329.520
   17               937.578            1348.964
   18               996.577            1433.851
   19              1062.871            1529.232
   20              1078.700            1552.007
   21              1161.313            1670.868
   22              1181.523            1699.946
   23              1181.583            1700.033
   24              1197.833            1723.413
   25              1221.941            1758.099
   26              1231.639            1772.052
   27              1236.467            1778.999
   28              1280.830            1842.826
   29              1281.056            1843.152
   30              1328.253            1911.057
   31              1381.181            1987.208
   32              1387.726            1996.626
   33              1427.109            2053.289
   34              1533.484            2206.339
   35              1542.620            2219.484
   36              1558.198            2241.897
   37              1636.482            2354.529
   38              1714.773            2467.173
   39              1727.068            2484.862
   40              1787.010            2571.106
   41              1807.056            2599.947
   42              1874.027            2696.303
   43              1942.289            2794.517
   44              1944.707            2797.997
   45              3519.843            5064.262
   46              3521.075            5066.035
   47              3565.584            5130.074
   48              3565.685            5130.219
   49              3575.591            5144.471
   50              3582.367            5154.220
   51              3602.746            5183.541
   52              3605.931            5188.125
   53              3680.356            5295.204
   54              3680.390            5295.254
    Warning: used thermodynamic relations are not appropriate for low frequency modes.

  ==> Components <==

  Entropy, S
    Electronic S          0.000 [cal/(mol K)]       0.000 [J/(mol K)]      0.00000000 [mEh/K] (multiplicity = 1)
    Translational S      40.502 [cal/(mol K)]     169.460 [J/(mol K)]      0.06454389 [mEh/K] (mol. weight = 130.0783 [u], P = 101325.00 [Pa])
    Rotational S         28.143 [cal/(mol K)]     117.751 [J/(mol K)]      0.04484898 [mEh/K] (symmetry no. = 2)
    Vibrational S        14.370 [cal/(mol K)]      60.126 [J/(mol K)]      0.02290064 [mEh/K]
  Total S                83.015 [cal/(mol K)]     347.337 [J/(mol K)]      0.13229351 [mEh/K]

  Constant volume heat capacity, Cv
    Electronic Cv         0.000 [cal/(mol K)]       0.000 [J/(mol K)]      0.00000000 [mEh/K]
    Translational Cv      2.981 [cal/(mol K)]      12.472 [J/(mol K)]      0.00475022 [mEh/K]
    Rotational Cv         2.981 [cal/(mol K)]      12.472 [J/(mol K)]      0.00475022 [mEh/K]
    Vibrational Cv       22.919 [cal/(mol K)]      95.894 [J/(mol K)]      0.03652418 [mEh/K]
  Total Cv               28.881 [cal/(mol K)]     120.838 [J/(mol K)]      0.04602462 [mEh/K]

  Constant pressure heat capacity, Cp
    Electronic Cp         0.000 [cal/(mol K)]       0.000 [J/(mol K)]      0.00000000 [mEh/K]
    Translational Cp      4.968 [cal/(mol K)]      20.786 [J/(mol K)]      0.00791704 [mEh/K]
    Rotational Cp         2.981 [cal/(mol K)]      12.472 [J/(mol K)]      0.00475022 [mEh/K]
    Vibrational Cp       22.919 [cal/(mol K)]      95.894 [J/(mol K)]      0.03652418 [mEh/K]
  Total Cp               30.868 [cal/(mol K)]     129.152 [J/(mol K)]      0.04919144 [mEh/K]

  ==> Energy Analysis <== 

  Raw electronic energy, E0
  Total E0, Electronic energy at well bottom at 0 [K]             -379.77138926 [Eh]

  Zero-point energy, ZPE_vib = Sum_i nu_i / 2
    Electronic ZPE        0.000 [kcal/mol]       0.000 [kJ/mol]      0.00000000 [Eh]
    Translational ZPE     0.000 [kcal/mol]       0.000 [kJ/mol]      0.00000000 [Eh]
    Rotational ZPE        0.000 [kcal/mol]       0.000 [kJ/mol]      0.00000000 [Eh]
    Vibrational ZPE     120.284 [kcal/mol]     503.267 [kJ/mol]      0.19168421 [Eh]       42069.815 [cm^-1]
    Correction ZPE      120.284 [kcal/mol]     503.267 [kJ/mol]      0.19168421 [Eh]       42069.815 [cm^-1]
  Total ZPE, Electronic energy at 0 [K]                           -379.57970505 [Eh]

  Thermal Energy, E (includes ZPE)
    Electronic E          0.000 [kcal/mol]       0.000 [kJ/mol]      0.00000000 [Eh]
    Translational E       0.889 [kcal/mol]       3.718 [kJ/mol]      0.00141628 [Eh]
    Rotational E          0.889 [kcal/mol]       3.718 [kJ/mol]      0.00141628 [Eh]
    Vibrational E       123.029 [kcal/mol]     514.754 [kJ/mol]      0.19605944 [Eh]
  Correction E          124.807 [kcal/mol]     522.191 [kJ/mol]      0.19889200 [Eh]
  Total E, Electronic energy at  298.15 [K]                       -379.57249726 [Eh]

  Enthalpy, H_trans = E_trans + k_B * T
    Electronic H          0.000 [kcal/mol]       0.000 [kJ/mol]      0.00000000 [Eh]
    Translational H       1.481 [kcal/mol]       6.197 [kJ/mol]      0.00236046 [Eh]
    Rotational H          0.889 [kcal/mol]       3.718 [kJ/mol]      0.00141628 [Eh]
    Vibrational H       123.029 [kcal/mol]     514.754 [kJ/mol]      0.19605944 [Eh]
  Correction H          125.399 [kcal/mol]     524.670 [kJ/mol]      0.19983619 [Eh]
  Total H, Enthalpy at  298.15 [K]                                -379.57155307 [Eh]

  Gibbs free energy, G = H - T * S
    Electronic G         -0.000 [kcal/mol]      -0.000 [kJ/mol]     -0.00000000 [Eh]
    Translational G     -10.594 [kcal/mol]     -44.327 [kJ/mol]     -0.01688330 [Eh]
    Rotational G         -7.502 [kcal/mol]     -31.389 [kJ/mol]     -0.01195544 [Eh]
    Vibrational G       118.745 [kcal/mol]     496.828 [kJ/mol]      0.18923162 [Eh]
  Correction G          100.648 [kcal/mol]     421.111 [kJ/mol]      0.16039288 [Eh]
  Total G, Free enthalpy at  298.15 [K]                           -379.61099638 [Eh]


*** Psi4 exiting successfully. Buy a developer a beer!
