
    -----------------------------------------------------------------------
          Psi4: An Open-Source Ab Initio Electronic Structure Package
                               Psi4 1.2a1.dev429 

                         Git: Rev {fixsym} 7838fc1 dirty


    R. M. Parrish, L. A. Burns, D. G. A. Smith, A. C. Simmonett,
    A. E. DePrince III, E. G. Hohenstein, U. Bozkaya, A. Yu. Sokolov,
    R. Di Remigio, R. M. Richard, J. F. Gonthier, A. M. James,
    H. R. McAlexander, A. Kumar, M. Saitow, X. Wang, B. P. Pritchard,
    P. Verma, H. F. Schaefer III, K. Patkowski, R. A. King, E. F. Valeev,
    F. A. Evangelista, J. M. Turney, T. D. Crawford, and C. D. Sherrill,
    J. Chem. Theory Comput. in press (2017).
    (doi: 10.1021/acs.jctc.7b00174)

    -----------------------------------------------------------------------


    Psi4 started on: Friday, 02 March 2018 02:39PM

    Process ID:  18045
    PSIDATADIR: /home/adabbott/Git/psi4/objdir/stage/usr/local/psi4/share/psi4
    Memory:     500.0 MiB
    Threads:    1
    
  ==> Input File <==

--------------------------------------------------------------------------
molecule water {
0 1
O
H 1 0.99
H 1 0.99 2 106.0
}

set {
    basis sto-3g
}

findif_grad = gradient('mp2', dertype=0)
--------------------------------------------------------------------------
gradient() will perform gradient computation by finite difference of analytic energies.

-------------------------------------------------------------

  Using finite-differences of energies to determine gradients (fd_geoms_1_0).
	Generating geometries for use with 3-point formula.
	Displacement size will be 5.00e-03.
	Number of atoms is 3.
	Number of symmetric SALC's is 2.
	Number of displacements (including reference) is 5.

-------------------------------------------------------------

  //>>>>>>>>>>>>>>>>>>>>>>>>>>>>>>>>>>>//
  //    Loading displacement 1 of 5    //
  //<<<<<<<<<<<<<<<<<<<<<<<<<<<<<<<<<<<//
    SCF Algorithm Type (re)set to DF.

*** tstart() called on adabbott
*** at Fri Mar  2 14:39:13 2018

   => Loading Basis Set <=

    Name: STO-3G
    Role: ORBITAL
    Keyword: BASIS
    atoms 1   entry O          line    81 file /home/adabbott/Git/psi4/objdir/stage/usr/local/psi4/share/psi4/basis/sto-3g.gbs 
    atoms 2-3 entry H          line    19 file /home/adabbott/Git/psi4/objdir/stage/usr/local/psi4/share/psi4/basis/sto-3g.gbs 


         ---------------------------------------------------------
                                   SCF
            by Justin Turney, Rob Parrish, Andy Simmonett
                             and Daniel Smith
                              RHF Reference
                        1 Threads,    500 MiB Core
         ---------------------------------------------------------

  ==> Geometry <==

    Molecular point group: c2v
    Full point group: C2v

    Geometry (in Angstrom), charge = 0, multiplicity = 1:

       Center              X                  Y                   Z               Mass       
    ------------   -----------------  -----------------  -----------------  -----------------
           O          0.000000000000     0.000000000000    -0.066899853269    15.994914619560
           H          0.000000000000    -0.790649154947     0.530874609703     1.007825032070
           H          0.000000000000     0.790649154947     0.530874609703     1.007825032070

  Running in c2v symmetry.

  Rotational constants: A =     26.35433  B =     13.37869  C =      8.87389 [cm^-1]
  Rotational constants: A = 790083.05340  B = 401083.16849  C = 266032.57262 [MHz]
  Nuclear repulsion =    8.876726379898411

  Charge       = 0
  Multiplicity = 1
  Electrons    = 10
  Nalpha       = 5
  Nbeta        = 5

  ==> Algorithm <==

  SCF Algorithm Type is DF.
  DIIS enabled.
  MOM disabled.
  Fractional occupation disabled.
  Guess Type is SAD.
  Energy threshold   = 1.00e-10
  Density threshold  = 1.00e-10
  Integral threshold = 0.00e+00

  ==> Primary Basis <==

  Basis Set: STO-3G
    Blend: STO-3G
    Number of shells: 5
    Number of basis function: 7
    Number of Cartesian functions: 7
    Spherical Harmonics?: true
    Max angular momentum: 1

   => Loading Basis Set <=

    Name: (STO-3G AUX)
    Role: JKFIT
    Keyword: DF_BASIS_SCF
    atoms 1   entry O          line   323 file /home/adabbott/Git/psi4/objdir/stage/usr/local/psi4/share/psi4/basis/def2-svp-jkfit.gbs 
    atoms 2-3 entry H          line    23 file /home/adabbott/Git/psi4/objdir/stage/usr/local/psi4/share/psi4/basis/def2-svp-jkfit.gbs 

  ==> Pre-Iterations <==

   -------------------------------------------------------
    Irrep   Nso     Nmo     Nalpha   Nbeta   Ndocc  Nsocc
   -------------------------------------------------------
     A1         4       4       0       0       0       0
     A2         0       0       0       0       0       0
     B1         1       1       0       0       0       0
     B2         2       2       0       0       0       0
   -------------------------------------------------------
    Total       7       7       5       5       5       0
   -------------------------------------------------------

  ==> Integral Setup <==

  ==> DFJK: Density-Fitted J/K Matrices <==

    J tasked:                  Yes
    K tasked:                  Yes
    wK tasked:                  No
    OpenMP threads:              1
    Integrals threads:           1
    Memory (MB):               375
    Algorithm:                Core
    Integral Cache:           NONE
    Schwarz Cutoff:          1E-12
    Fitting Condition:       1E-12

   => Auxiliary Basis Set <=

  Basis Set: (STO-3G AUX)
    Blend: DEF2-SVP-JKFIT
    Number of shells: 37
    Number of basis function: 113
    Number of Cartesian functions: 133
    Spherical Harmonics?: true
    Max angular momentum: 4

  Minimum eigenvalue in the overlap matrix is 3.6468465358E-01.
  Using Symmetric Orthogonalization.

  SCF Guess: Superposition of Atomic Densities via on-the-fly atomic UHF.

  ==> Iterations <==

                           Total Energy        Delta E     RMS |[F,P]|

   @DF-RHF iter   0:   -74.71214293173429   -7.47121e+01   3.03188e-01 
   @DF-RHF iter   1:   -74.91580250764778   -2.03660e-01   5.11023e-02 
   @DF-RHF iter   2:   -74.96234794318335   -4.65454e-02   9.20992e-03 DIIS
   @DF-RHF iter   3:   -74.96405592109679   -1.70798e-03   3.57680e-03 DIIS
   @DF-RHF iter   4:   -74.96448513640348   -4.29215e-04   3.24691e-04 DIIS
   @DF-RHF iter   5:   -74.96448766567856   -2.52928e-06   3.61424e-05 DIIS
   @DF-RHF iter   6:   -74.96448769049252   -2.48140e-08   1.09951e-06 DIIS
   @DF-RHF iter   7:   -74.96448769051231   -1.97957e-11   8.21731e-09 DIIS
   @DF-RHF iter   8:   -74.96448769051236   -4.26326e-14   1.63951e-10 DIIS
   @DF-RHF iter   9:   -74.96448769051236    0.00000e+00   8.24784e-13 DIIS

  ==> Post-Iterations <==

    Orbital Energies (a.u.)
    -----------------------

    Doubly Occupied:                                                      

       1A1   -20.244405     2A1    -1.250323     1B2    -0.602287  
       3A1    -0.445770     1B1    -0.388307  

    Virtual:                                                              

       4A1     0.569993     2B2     0.706745  

    Final Occupation by Irrep:
             A1    A2    B1    B2 
    DOCC [     3,    0,    1,    1 ]

  Energy converged.

  @DF-RHF Final Energy:   -74.96448769051236

   => Energetics <=

    Nuclear Repulsion Energy =              8.8767263798984111
    One-Electron Energy =                -121.8202454922743811
    Two-Electron Energy =                  37.9790314218636098
    Total Energy =                        -74.9644876905123567



Properties will be evaluated at   0.000000,   0.000000,   0.000000 Bohr

Properties computed using the SCF density matrix

  Nuclear Dipole Moment: (a.u.)
     X:     0.0000      Y:    -0.0000      Z:     0.9950

  Electronic Dipole Moment: (a.u.)
     X:     0.0000      Y:     0.0000      Z:    -0.3369

  Dipole Moment: (a.u.)
     X:     0.0000      Y:    -0.0000      Z:     0.6581     Total:     0.6581

  Dipole Moment: (Debye)
     X:     0.0000      Y:    -0.0000      Z:     1.6727     Total:     1.6727


*** tstop() called on adabbott at Fri Mar  2 14:39:13 2018
Module time:
	user time   =       0.23 seconds =       0.00 minutes
	system time =       0.01 seconds =       0.00 minutes
	total time  =          0 seconds =       0.00 minutes
Total time:
	user time   =       0.23 seconds =       0.00 minutes
	system time =       0.01 seconds =       0.00 minutes
	total time  =          0 seconds =       0.00 minutes

*** tstart() called on adabbott
*** at Fri Mar  2 14:39:13 2018


  //>>>>>>>>>>>>>>>>>>>>>>>>>>>>>>>>>>>//
  //               DFMP2               //
  //<<<<<<<<<<<<<<<<<<<<<<<<<<<<<<<<<<<//

   => Loading Basis Set <=

    Name: (STO-3G AUX)
    Role: RIFIT
    Keyword: DF_BASIS_MP2
    atoms 1   entry O          line   406 file /home/adabbott/Git/psi4/objdir/stage/usr/local/psi4/share/psi4/basis/def2-qzvpp-ri.gbs 
    atoms 2-3 entry H          line    24 file /home/adabbott/Git/psi4/objdir/stage/usr/local/psi4/share/psi4/basis/def2-qzvpp-ri.gbs 

	 --------------------------------------------------------
	                          DF-MP2                         
	      2nd-Order Density-Fitted Moller-Plesset Theory     
	              RMP2 Wavefunction,   1 Threads             
	                                                         
	        Rob Parrish, Justin Turney, Andy Simmonett,      
	           Ed Hohenstein, and C. David Sherrill          
	 --------------------------------------------------------

   => Auxiliary Basis Set <=

  Basis Set: (STO-3G AUX)
    Blend: DEF2-QZVPP-RI
    Number of shells: 65
    Number of basis function: 253
    Number of Cartesian functions: 333
    Spherical Harmonics?: true
    Max angular momentum: 5

	 --------------------------------------------------------
	                 NBF =     7, NAUX =   253
	 --------------------------------------------------------
	   CLASS    FOCC     OCC    AOCC    AVIR     VIR    FVIR
	   PAIRS       0       5       5       2       2       0
	 --------------------------------------------------------

	-----------------------------------------------------------
	 ==================> DF-MP2 Energies <==================== 
	-----------------------------------------------------------
	 Reference Energy          =     -74.9644876905123567 [Eh]
	 Singles Energy            =      -0.0000000000000000 [Eh]
	 Same-Spin Energy          =      -0.0021999428558661 [Eh]
	 Opposite-Spin Energy      =      -0.0359806441630562 [Eh]
	 Correlation Energy        =      -0.0381805870189223 [Eh]
	 Total Energy              =     -75.0026682775312850 [Eh]
	-----------------------------------------------------------
	 ================> DF-SCS-MP2 Energies <================== 
	-----------------------------------------------------------
	 SCS Same-Spin Scale       =       0.3333333333333333 [-]
	 SCS Opposite-Spin Scale   =       1.2000000000000000 [-]
	 SCS Same-Spin Energy      =      -0.0007333142852887 [Eh]
	 SCS Opposite-Spin Energy  =      -0.0431767729956674 [Eh]
	 SCS Correlation Energy    =      -0.0439100872809562 [Eh]
	 SCS Total Energy          =     -75.0083977777933200 [Eh]
	-----------------------------------------------------------


*** tstop() called on adabbott at Fri Mar  2 14:39:13 2018
Module time:
	user time   =       0.10 seconds =       0.00 minutes
	system time =       0.00 seconds =       0.00 minutes
	total time  =          0 seconds =       0.00 minutes
Total time:
	user time   =       0.33 seconds =       0.01 minutes
	system time =       0.01 seconds =       0.00 minutes
	total time  =          0 seconds =       0.00 minutes

  //>>>>>>>>>>>>>>>>>>>>>>>>>>>>>>>>>>>//
  //    Loading displacement 2 of 5    //
  //<<<<<<<<<<<<<<<<<<<<<<<<<<<<<<<<<<<//
    SCF Algorithm Type (re)set to DF.

*** tstart() called on adabbott
*** at Fri Mar  2 14:39:13 2018

   => Loading Basis Set <=

    Name: STO-3G
    Role: ORBITAL
    Keyword: BASIS
    atoms 1   entry O          line    81 file /home/adabbott/Git/psi4/objdir/stage/usr/local/psi4/share/psi4/basis/sto-3g.gbs 
    atoms 2-3 entry H          line    19 file /home/adabbott/Git/psi4/objdir/stage/usr/local/psi4/share/psi4/basis/sto-3g.gbs 


         ---------------------------------------------------------
                                   SCF
            by Justin Turney, Rob Parrish, Andy Simmonett
                             and Daniel Smith
                              RHF Reference
                        1 Threads,    500 MiB Core
         ---------------------------------------------------------

  ==> Geometry <==

    Molecular point group: c2v
    Full point group: C2v

    Geometry (in Angstrom), charge = 0, multiplicity = 1:

       Center              X                  Y                   Z               Mass       
    ------------   -----------------  -----------------  -----------------  -----------------
           O          0.000000000000     0.000000000000    -0.066457209789    15.994914619560
           H          0.000000000000    -0.790649154947     0.527362073080     1.007825032070
           H          0.000000000000     0.790649154947     0.527362073080     1.007825032070

  Running in c2v symmetry.

  Rotational constants: A =     26.70657  B =     13.37869  C =      8.91348 [cm^-1]
  Rotational constants: A = 800642.92491  B = 401083.16849  C = 267219.29641 [MHz]
  Nuclear repulsion =    8.897289025164431

  Charge       = 0
  Multiplicity = 1
  Electrons    = 10
  Nalpha       = 5
  Nbeta        = 5

  ==> Algorithm <==

  SCF Algorithm Type is DF.
  DIIS enabled.
  MOM disabled.
  Fractional occupation disabled.
  Guess Type is SAD.
  Energy threshold   = 1.00e-10
  Density threshold  = 1.00e-10
  Integral threshold = 0.00e+00

  ==> Primary Basis <==

  Basis Set: STO-3G
    Blend: STO-3G
    Number of shells: 5
    Number of basis function: 7
    Number of Cartesian functions: 7
    Spherical Harmonics?: true
    Max angular momentum: 1

   => Loading Basis Set <=

    Name: (STO-3G AUX)
    Role: JKFIT
    Keyword: DF_BASIS_SCF
    atoms 1   entry O          line   323 file /home/adabbott/Git/psi4/objdir/stage/usr/local/psi4/share/psi4/basis/def2-svp-jkfit.gbs 
    atoms 2-3 entry H          line    23 file /home/adabbott/Git/psi4/objdir/stage/usr/local/psi4/share/psi4/basis/def2-svp-jkfit.gbs 

  ==> Pre-Iterations <==

   -------------------------------------------------------
    Irrep   Nso     Nmo     Nalpha   Nbeta   Ndocc  Nsocc
   -------------------------------------------------------
     A1         4       4       0       0       0       0
     A2         0       0       0       0       0       0
     B1         1       1       0       0       0       0
     B2         2       2       0       0       0       0
   -------------------------------------------------------
    Total       7       7       5       5       5       0
   -------------------------------------------------------

  ==> Integral Setup <==

  ==> DFJK: Density-Fitted J/K Matrices <==

    J tasked:                  Yes
    K tasked:                  Yes
    wK tasked:                  No
    OpenMP threads:              1
    Integrals threads:           1
    Memory (MB):               375
    Algorithm:                Core
    Integral Cache:           NONE
    Schwarz Cutoff:          1E-12
    Fitting Condition:       1E-12

   => Auxiliary Basis Set <=

  Basis Set: (STO-3G AUX)
    Blend: DEF2-SVP-JKFIT
    Number of shells: 37
    Number of basis function: 113
    Number of Cartesian functions: 133
    Spherical Harmonics?: true
    Max angular momentum: 4

  Minimum eigenvalue in the overlap matrix is 3.6317875191E-01.
  Using Symmetric Orthogonalization.

  SCF Guess: Superposition of Atomic Densities via on-the-fly atomic UHF.

  ==> Iterations <==

                           Total Energy        Delta E     RMS |[F,P]|

   @DF-RHF iter   0:   -74.71705835040574   -7.47171e+01   3.04693e-01 
   @DF-RHF iter   1:   -74.91619488245979   -1.99137e-01   5.08605e-02 
   @DF-RHF iter   2:   -74.96222408605574   -4.60292e-02   9.12839e-03 DIIS
   @DF-RHF iter   3:   -74.96391214607554   -1.68806e-03   3.55743e-03 DIIS
   @DF-RHF iter   4:   -74.96433587655854   -4.23730e-04   3.20676e-04 DIIS
   @DF-RHF iter   5:   -74.96433833641194   -2.45985e-06   3.54065e-05 DIIS
   @DF-RHF iter   6:   -74.96433836006335   -2.36514e-08   1.12222e-06 DIIS
   @DF-RHF iter   7:   -74.96433836008400   -2.06484e-11   6.64541e-09 DIIS
   @DF-RHF iter   8:   -74.96433836008400    0.00000e+00   2.80897e-11 DIIS

  ==> Post-Iterations <==

    Orbital Energies (a.u.)
    -----------------------

    Doubly Occupied:                                                      

       1A1   -20.243546     2A1    -1.251000     1B2    -0.604045  
       3A1    -0.445167     1B1    -0.388123  

    Virtual:                                                              

       4A1     0.571548     2B2     0.710521  

    Final Occupation by Irrep:
             A1    A2    B1    B2 
    DOCC [     3,    0,    1,    1 ]

  Energy converged.

  @DF-RHF Final Energy:   -74.96433836008400

   => Energetics <=

    Nuclear Repulsion Energy =              8.8972890251644312
    One-Electron Energy =                -121.8594923850819356
    Two-Electron Energy =                  37.9978649998335172
    Total Energy =                        -74.9643383600839854



Properties will be evaluated at   0.000000,   0.000000,   0.000000 Bohr

Properties computed using the SCF density matrix

  Nuclear Dipole Moment: (a.u.)
     X:     0.0000      Y:     0.0000      Z:     0.9885

  Electronic Dipole Moment: (a.u.)
     X:     0.0000      Y:     0.0000      Z:    -0.3300

  Dipole Moment: (a.u.)
     X:     0.0000      Y:     0.0000      Z:     0.6585     Total:     0.6585

  Dipole Moment: (Debye)
     X:     0.0000      Y:     0.0000      Z:     1.6737     Total:     1.6737


*** tstop() called on adabbott at Fri Mar  2 14:39:13 2018
Module time:
	user time   =       0.21 seconds =       0.00 minutes
	system time =       0.00 seconds =       0.00 minutes
	total time  =          0 seconds =       0.00 minutes
Total time:
	user time   =       0.55 seconds =       0.01 minutes
	system time =       0.01 seconds =       0.00 minutes
	total time  =          0 seconds =       0.00 minutes

*** tstart() called on adabbott
*** at Fri Mar  2 14:39:13 2018


  //>>>>>>>>>>>>>>>>>>>>>>>>>>>>>>>>>>>//
  //               DFMP2               //
  //<<<<<<<<<<<<<<<<<<<<<<<<<<<<<<<<<<<//

   => Loading Basis Set <=

    Name: (STO-3G AUX)
    Role: RIFIT
    Keyword: DF_BASIS_MP2
    atoms 1   entry O          line   406 file /home/adabbott/Git/psi4/objdir/stage/usr/local/psi4/share/psi4/basis/def2-qzvpp-ri.gbs 
    atoms 2-3 entry H          line    24 file /home/adabbott/Git/psi4/objdir/stage/usr/local/psi4/share/psi4/basis/def2-qzvpp-ri.gbs 

	 --------------------------------------------------------
	                          DF-MP2                         
	      2nd-Order Density-Fitted Moller-Plesset Theory     
	              RMP2 Wavefunction,   1 Threads             
	                                                         
	        Rob Parrish, Justin Turney, Andy Simmonett,      
	           Ed Hohenstein, and C. David Sherrill          
	 --------------------------------------------------------

   => Auxiliary Basis Set <=

  Basis Set: (STO-3G AUX)
    Blend: DEF2-QZVPP-RI
    Number of shells: 65
    Number of basis function: 253
    Number of Cartesian functions: 333
    Spherical Harmonics?: true
    Max angular momentum: 5

	 --------------------------------------------------------
	                 NBF =     7, NAUX =   253
	 --------------------------------------------------------
	   CLASS    FOCC     OCC    AOCC    AVIR     VIR    FVIR
	   PAIRS       0       5       5       2       2       0
	 --------------------------------------------------------

	-----------------------------------------------------------
	 ==================> DF-MP2 Energies <==================== 
	-----------------------------------------------------------
	 Reference Energy          =     -74.9643383600839996 [Eh]
	 Singles Energy            =      -0.0000000000000000 [Eh]
	 Same-Spin Energy          =      -0.0021732602300571 [Eh]
	 Opposite-Spin Energy      =      -0.0357457158202443 [Eh]
	 Correlation Energy        =      -0.0379189760503014 [Eh]
	 Total Energy              =     -75.0022573361343063 [Eh]
	-----------------------------------------------------------
	 ================> DF-SCS-MP2 Energies <================== 
	-----------------------------------------------------------
	 SCS Same-Spin Scale       =       0.3333333333333333 [-]
	 SCS Opposite-Spin Scale   =       1.2000000000000000 [-]
	 SCS Same-Spin Energy      =      -0.0007244200766857 [Eh]
	 SCS Opposite-Spin Energy  =      -0.0428948589842932 [Eh]
	 SCS Correlation Energy    =      -0.0436192790609789 [Eh]
	 SCS Total Energy          =     -75.0079576391449763 [Eh]
	-----------------------------------------------------------


*** tstop() called on adabbott at Fri Mar  2 14:39:13 2018
Module time:
	user time   =       0.11 seconds =       0.00 minutes
	system time =       0.00 seconds =       0.00 minutes
	total time  =          0 seconds =       0.00 minutes
Total time:
	user time   =       0.66 seconds =       0.01 minutes
	system time =       0.01 seconds =       0.00 minutes
	total time  =          0 seconds =       0.00 minutes

  //>>>>>>>>>>>>>>>>>>>>>>>>>>>>>>>>>>>//
  //    Loading displacement 3 of 5    //
  //<<<<<<<<<<<<<<<<<<<<<<<<<<<<<<<<<<<//
    SCF Algorithm Type (re)set to DF.

*** tstart() called on adabbott
*** at Fri Mar  2 14:39:13 2018

   => Loading Basis Set <=

    Name: STO-3G
    Role: ORBITAL
    Keyword: BASIS
    atoms 1   entry O          line    81 file /home/adabbott/Git/psi4/objdir/stage/usr/local/psi4/share/psi4/basis/sto-3g.gbs 
    atoms 2-3 entry H          line    19 file /home/adabbott/Git/psi4/objdir/stage/usr/local/psi4/share/psi4/basis/sto-3g.gbs 


         ---------------------------------------------------------
                                   SCF
            by Justin Turney, Rob Parrish, Andy Simmonett
                             and Daniel Smith
                              RHF Reference
                        1 Threads,    500 MiB Core
         ---------------------------------------------------------

  ==> Geometry <==

    Molecular point group: c2v
    Full point group: C2v

    Geometry (in Angstrom), charge = 0, multiplicity = 1:

       Center              X                  Y                   Z               Mass       
    ------------   -----------------  -----------------  -----------------  -----------------
           O          0.000000000000     0.000000000000    -0.066678531529    15.994914619560
           H          0.000000000000    -0.792512801571     0.529118341392     1.007825032070
           H          0.000000000000     0.792512801571     0.529118341392     1.007825032070

  Running in c2v symmetry.

  Rotational constants: A =     26.52958  B =     13.31585  C =      8.86586 [cm^-1]
  Rotational constants: A = 795336.70122  B = 399199.03887  C = 265791.66789 [MHz]
  Nuclear repulsion =    8.873375429446044

  Charge       = 0
  Multiplicity = 1
  Electrons    = 10
  Nalpha       = 5
  Nbeta        = 5

  ==> Algorithm <==

  SCF Algorithm Type is DF.
  DIIS enabled.
  MOM disabled.
  Fractional occupation disabled.
  Guess Type is SAD.
  Energy threshold   = 1.00e-10
  Density threshold  = 1.00e-10
  Integral threshold = 0.00e+00

  ==> Primary Basis <==

  Basis Set: STO-3G
    Blend: STO-3G
    Number of shells: 5
    Number of basis function: 7
    Number of Cartesian functions: 7
    Spherical Harmonics?: true
    Max angular momentum: 1

   => Loading Basis Set <=

    Name: (STO-3G AUX)
    Role: JKFIT
    Keyword: DF_BASIS_SCF
    atoms 1   entry O          line   323 file /home/adabbott/Git/psi4/objdir/stage/usr/local/psi4/share/psi4/basis/def2-svp-jkfit.gbs 
    atoms 2-3 entry H          line    23 file /home/adabbott/Git/psi4/objdir/stage/usr/local/psi4/share/psi4/basis/def2-svp-jkfit.gbs 

  ==> Pre-Iterations <==

   -------------------------------------------------------
    Irrep   Nso     Nmo     Nalpha   Nbeta   Ndocc  Nsocc
   -------------------------------------------------------
     A1         4       4       0       0       0       0
     A2         0       0       0       0       0       0
     B1         1       1       0       0       0       0
     B2         2       2       0       0       0       0
   -------------------------------------------------------
    Total       7       7       5       5       5       0
   -------------------------------------------------------

  ==> Integral Setup <==

  ==> DFJK: Density-Fitted J/K Matrices <==

    J tasked:                  Yes
    K tasked:                  Yes
    wK tasked:                  No
    OpenMP threads:              1
    Integrals threads:           1
    Memory (MB):               375
    Algorithm:                Core
    Integral Cache:           NONE
    Schwarz Cutoff:          1E-12
    Fitting Condition:       1E-12

   => Auxiliary Basis Set <=

  Basis Set: (STO-3G AUX)
    Blend: DEF2-SVP-JKFIT
    Number of shells: 37
    Number of basis function: 113
    Number of Cartesian functions: 133
    Spherical Harmonics?: true
    Max angular momentum: 4

  Minimum eigenvalue in the overlap matrix is 3.6492310687E-01.
  Using Symmetric Orthogonalization.

  SCF Guess: Superposition of Atomic Densities via on-the-fly atomic UHF.

  ==> Iterations <==

                           Total Energy        Delta E     RMS |[F,P]|

   @DF-RHF iter   0:   -74.71060096874604   -7.47106e+01   3.02864e-01 
   @DF-RHF iter   1:   -74.91575105490850   -2.05150e-01   5.10130e-02 
   @DF-RHF iter   2:   -74.96217573122409   -4.64247e-02   9.20062e-03 DIIS
   @DF-RHF iter   3:   -74.96388586842178   -1.71014e-03   3.58118e-03 DIIS
   @DF-RHF iter   4:   -74.96431696090478   -4.31092e-04   3.23732e-04 DIIS
   @DF-RHF iter   5:   -74.96431947241221   -2.51151e-06   3.62637e-05 DIIS
   @DF-RHF iter   6:   -74.96431949738945   -2.49772e-08   1.12426e-06 DIIS
   @DF-RHF iter   7:   -74.96431949741022   -2.07621e-11   6.37932e-09 DIIS
   @DF-RHF iter   8:   -74.96431949741020    1.42109e-14   1.64040e-10 DIIS
   @DF-RHF iter   9:   -74.96431949741017    2.84217e-14   1.50756e-12 DIIS

  ==> Post-Iterations <==

    Orbital Energies (a.u.)
    -----------------------

    Doubly Occupied:                                                      

       1A1   -20.243985     2A1    -1.249827     1B2    -0.602596  
       3A1    -0.444978     1B1    -0.388042  

    Virtual:                                                              

       4A1     0.569087     2B2     0.707320  

    Final Occupation by Irrep:
             A1    A2    B1    B2 
    DOCC [     3,    0,    1,    1 ]

  Energy converged.

  @DF-RHF Final Energy:   -74.96431949741017

   => Energetics <=

    Nuclear Repulsion Energy =              8.8733754294460443
    One-Electron Energy =                -121.8165362537193062
    Two-Electron Energy =                  37.9788413268630904
    Total Energy =                        -74.9643194974101732



Properties will be evaluated at   0.000000,   0.000000,   0.000000 Bohr

Properties computed using the SCF density matrix

  Nuclear Dipole Moment: (a.u.)
     X:     0.0000      Y:     0.0000      Z:     0.9917

  Electronic Dipole Moment: (a.u.)
     X:     0.0000      Y:     0.0000      Z:    -0.3345

  Dipole Moment: (a.u.)
     X:     0.0000      Y:     0.0000      Z:     0.6572     Total:     0.6572

  Dipole Moment: (Debye)
     X:     0.0000      Y:     0.0000      Z:     1.6705     Total:     1.6705


*** tstop() called on adabbott at Fri Mar  2 14:39:14 2018
Module time:
	user time   =       0.23 seconds =       0.00 minutes
	system time =       0.01 seconds =       0.00 minutes
	total time  =          1 seconds =       0.02 minutes
Total time:
	user time   =       0.90 seconds =       0.01 minutes
	system time =       0.02 seconds =       0.00 minutes
	total time  =          1 seconds =       0.02 minutes

*** tstart() called on adabbott
*** at Fri Mar  2 14:39:14 2018


  //>>>>>>>>>>>>>>>>>>>>>>>>>>>>>>>>>>>//
  //               DFMP2               //
  //<<<<<<<<<<<<<<<<<<<<<<<<<<<<<<<<<<<//

   => Loading Basis Set <=

    Name: (STO-3G AUX)
    Role: RIFIT
    Keyword: DF_BASIS_MP2
    atoms 1   entry O          line   406 file /home/adabbott/Git/psi4/objdir/stage/usr/local/psi4/share/psi4/basis/def2-qzvpp-ri.gbs 
    atoms 2-3 entry H          line    24 file /home/adabbott/Git/psi4/objdir/stage/usr/local/psi4/share/psi4/basis/def2-qzvpp-ri.gbs 

	 --------------------------------------------------------
	                          DF-MP2                         
	      2nd-Order Density-Fitted Moller-Plesset Theory     
	              RMP2 Wavefunction,   1 Threads             
	                                                         
	        Rob Parrish, Justin Turney, Andy Simmonett,      
	           Ed Hohenstein, and C. David Sherrill          
	 --------------------------------------------------------

   => Auxiliary Basis Set <=

  Basis Set: (STO-3G AUX)
    Blend: DEF2-QZVPP-RI
    Number of shells: 65
    Number of basis function: 253
    Number of Cartesian functions: 333
    Spherical Harmonics?: true
    Max angular momentum: 5

	 --------------------------------------------------------
	                 NBF =     7, NAUX =   253
	 --------------------------------------------------------
	   CLASS    FOCC     OCC    AOCC    AVIR     VIR    FVIR
	   PAIRS       0       5       5       2       2       0
	 --------------------------------------------------------

	-----------------------------------------------------------
	 ==================> DF-MP2 Energies <==================== 
	-----------------------------------------------------------
	 Reference Energy          =     -74.9643194974101732 [Eh]
	 Singles Energy            =      -0.0000000000000000 [Eh]
	 Same-Spin Energy          =      -0.0021922872793990 [Eh]
	 Opposite-Spin Energy      =      -0.0359683067993390 [Eh]
	 Correlation Energy        =      -0.0381605940787380 [Eh]
	 Total Energy              =     -75.0024800914889056 [Eh]
	-----------------------------------------------------------
	 ================> DF-SCS-MP2 Energies <================== 
	-----------------------------------------------------------
	 SCS Same-Spin Scale       =       0.3333333333333333 [-]
	 SCS Opposite-Spin Scale   =       1.2000000000000000 [-]
	 SCS Same-Spin Energy      =      -0.0007307624264663 [Eh]
	 SCS Opposite-Spin Energy  =      -0.0431619681592068 [Eh]
	 SCS Correlation Energy    =      -0.0438927305856731 [Eh]
	 SCS Total Energy          =     -75.0082122279958412 [Eh]
	-----------------------------------------------------------


*** tstop() called on adabbott at Fri Mar  2 14:39:14 2018
Module time:
	user time   =       0.10 seconds =       0.00 minutes
	system time =       0.00 seconds =       0.00 minutes
	total time  =          0 seconds =       0.00 minutes
Total time:
	user time   =       1.00 seconds =       0.02 minutes
	system time =       0.02 seconds =       0.00 minutes
	total time  =          1 seconds =       0.02 minutes

  //>>>>>>>>>>>>>>>>>>>>>>>>>>>>>>>>>>>//
  //    Loading displacement 4 of 5    //
  //<<<<<<<<<<<<<<<<<<<<<<<<<<<<<<<<<<<//
    SCF Algorithm Type (re)set to DF.

*** tstart() called on adabbott
*** at Fri Mar  2 14:39:14 2018

   => Loading Basis Set <=

    Name: STO-3G
    Role: ORBITAL
    Keyword: BASIS
    atoms 1   entry O          line    81 file /home/adabbott/Git/psi4/objdir/stage/usr/local/psi4/share/psi4/basis/sto-3g.gbs 
    atoms 2-3 entry H          line    19 file /home/adabbott/Git/psi4/objdir/stage/usr/local/psi4/share/psi4/basis/sto-3g.gbs 


         ---------------------------------------------------------
                                   SCF
            by Justin Turney, Rob Parrish, Andy Simmonett
                             and Daniel Smith
                              RHF Reference
                        1 Threads,    500 MiB Core
         ---------------------------------------------------------

  ==> Geometry <==

    Molecular point group: c2v
    Full point group: C2v

    Geometry (in Angstrom), charge = 0, multiplicity = 1:

       Center              X                  Y                   Z               Mass       
    ------------   -----------------  -----------------  -----------------  -----------------
           O          0.000000000000     0.000000000000    -0.066678531529    15.994914619560
           H          0.000000000000    -0.788785508322     0.529118341392     1.007825032070
           H          0.000000000000     0.788785508322     0.529118341392     1.007825032070

  Running in c2v symmetry.

  Rotational constants: A =     26.52958  B =     13.44199  C =      8.92160 [cm^-1]
  Rotational constants: A = 795336.70122  B = 402980.66866  C = 267462.79719 [MHz]
  Nuclear repulsion =    8.900668424951693

  Charge       = 0
  Multiplicity = 1
  Electrons    = 10
  Nalpha       = 5
  Nbeta        = 5

  ==> Algorithm <==

  SCF Algorithm Type is DF.
  DIIS enabled.
  MOM disabled.
  Fractional occupation disabled.
  Guess Type is SAD.
  Energy threshold   = 1.00e-10
  Density threshold  = 1.00e-10
  Integral threshold = 0.00e+00

  ==> Primary Basis <==

  Basis Set: STO-3G
    Blend: STO-3G
    Number of shells: 5
    Number of basis function: 7
    Number of Cartesian functions: 7
    Spherical Harmonics?: true
    Max angular momentum: 1

   => Loading Basis Set <=

    Name: (STO-3G AUX)
    Role: JKFIT
    Keyword: DF_BASIS_SCF
    atoms 1   entry O          line   323 file /home/adabbott/Git/psi4/objdir/stage/usr/local/psi4/share/psi4/basis/def2-svp-jkfit.gbs 
    atoms 2-3 entry H          line    23 file /home/adabbott/Git/psi4/objdir/stage/usr/local/psi4/share/psi4/basis/def2-svp-jkfit.gbs 

  ==> Pre-Iterations <==

   -------------------------------------------------------
    Irrep   Nso     Nmo     Nalpha   Nbeta   Ndocc  Nsocc
   -------------------------------------------------------
     A1         4       4       0       0       0       0
     A2         0       0       0       0       0       0
     B1         1       1       0       0       0       0
     B2         2       2       0       0       0       0
   -------------------------------------------------------
    Total       7       7       5       5       5       0
   -------------------------------------------------------

  ==> Integral Setup <==

  ==> DFJK: Density-Fitted J/K Matrices <==

    J tasked:                  Yes
    K tasked:                  Yes
    wK tasked:                  No
    OpenMP threads:              1
    Integrals threads:           1
    Memory (MB):               375
    Algorithm:                Core
    Integral Cache:           NONE
    Schwarz Cutoff:          1E-12
    Fitting Condition:       1E-12

   => Auxiliary Basis Set <=

  Basis Set: (STO-3G AUX)
    Blend: DEF2-SVP-JKFIT
    Number of shells: 37
    Number of basis function: 113
    Number of Cartesian functions: 133
    Spherical Harmonics?: true
    Max angular momentum: 4

  Minimum eigenvalue in the overlap matrix is 3.6293873935E-01.
  Using Symmetric Orthogonalization.

  SCF Guess: Superposition of Atomic Densities via on-the-fly atomic UHF.

  ==> Iterations <==

                           Total Energy        Delta E     RMS |[F,P]|

   @DF-RHF iter   0:   -74.71861581199572   -7.47186e+01   3.05020e-01 
   @DF-RHF iter   1:   -74.91624250501452   -1.97627e-01   5.09501e-02 
   @DF-RHF iter   2:   -74.96239281149816   -4.61503e-02   9.13749e-03 DIIS
   @DF-RHF iter   3:   -74.96407864902970   -1.68584e-03   3.55307e-03 DIIS
   @DF-RHF iter   4:   -74.96450052426206   -4.21875e-04   3.21645e-04 DIIS
   @DF-RHF iter   5:   -74.96450300178509   -2.47752e-06   3.52888e-05 DIIS
   @DF-RHF iter   6:   -74.96450302528336   -2.34983e-08   1.10146e-06 DIIS
   @DF-RHF iter   7:   -74.96450302530322   -1.98526e-11   5.12281e-09 DIIS
   @DF-RHF iter   8:   -74.96450302530324   -2.84217e-14   2.66669e-11 DIIS

  ==> Post-Iterations <==

    Orbital Energies (a.u.)
    -----------------------

    Doubly Occupied:                                                      

       1A1   -20.243968     2A1    -1.251502     1B2    -0.603734  
       3A1    -0.445962     1B1    -0.388390  

    Virtual:                                                              

       4A1     0.572457     2B2     0.709944  

    Final Occupation by Irrep:
             A1    A2    B1    B2 
    DOCC [     3,    0,    1,    1 ]

  Energy converged.

  @DF-RHF Final Energy:   -74.96450302530324

   => Energetics <=

    Nuclear Repulsion Energy =              8.9006684249516930
    One-Electron Energy =                -121.8632303216108284
    Two-Electron Energy =                  37.9980588713559015
    Total Energy =                        -74.9645030253032303



Properties will be evaluated at   0.000000,   0.000000,   0.000000 Bohr

Properties computed using the SCF density matrix

  Nuclear Dipole Moment: (a.u.)
     X:     0.0000      Y:     0.0000      Z:     0.9917

  Electronic Dipole Moment: (a.u.)
     X:     0.0000      Y:     0.0000      Z:    -0.3324

  Dipole Moment: (a.u.)
     X:     0.0000      Y:     0.0000      Z:     0.6594     Total:     0.6594

  Dipole Moment: (Debye)
     X:     0.0000      Y:     0.0000      Z:     1.6760     Total:     1.6760


*** tstop() called on adabbott at Fri Mar  2 14:39:14 2018
Module time:
	user time   =       0.22 seconds =       0.00 minutes
	system time =       0.00 seconds =       0.00 minutes
	total time  =          0 seconds =       0.00 minutes
Total time:
	user time   =       1.22 seconds =       0.02 minutes
	system time =       0.02 seconds =       0.00 minutes
	total time  =          1 seconds =       0.02 minutes

*** tstart() called on adabbott
*** at Fri Mar  2 14:39:14 2018


  //>>>>>>>>>>>>>>>>>>>>>>>>>>>>>>>>>>>//
  //               DFMP2               //
  //<<<<<<<<<<<<<<<<<<<<<<<<<<<<<<<<<<<//

   => Loading Basis Set <=

    Name: (STO-3G AUX)
    Role: RIFIT
    Keyword: DF_BASIS_MP2
    atoms 1   entry O          line   406 file /home/adabbott/Git/psi4/objdir/stage/usr/local/psi4/share/psi4/basis/def2-qzvpp-ri.gbs 
    atoms 2-3 entry H          line    24 file /home/adabbott/Git/psi4/objdir/stage/usr/local/psi4/share/psi4/basis/def2-qzvpp-ri.gbs 

	 --------------------------------------------------------
	                          DF-MP2                         
	      2nd-Order Density-Fitted Moller-Plesset Theory     
	              RMP2 Wavefunction,   1 Threads             
	                                                         
	        Rob Parrish, Justin Turney, Andy Simmonett,      
	           Ed Hohenstein, and C. David Sherrill          
	 --------------------------------------------------------

   => Auxiliary Basis Set <=

  Basis Set: (STO-3G AUX)
    Blend: DEF2-QZVPP-RI
    Number of shells: 65
    Number of basis function: 253
    Number of Cartesian functions: 333
    Spherical Harmonics?: true
    Max angular momentum: 5

	 --------------------------------------------------------
	                 NBF =     7, NAUX =   253
	 --------------------------------------------------------
	   CLASS    FOCC     OCC    AOCC    AVIR     VIR    FVIR
	   PAIRS       0       5       5       2       2       0
	 --------------------------------------------------------

	-----------------------------------------------------------
	 ==================> DF-MP2 Energies <==================== 
	-----------------------------------------------------------
	 Reference Energy          =     -74.9645030253032445 [Eh]
	 Singles Energy            =      -0.0000000000000000 [Eh]
	 Same-Spin Energy          =      -0.0021808409101667 [Eh]
	 Opposite-Spin Energy      =      -0.0357580314107529 [Eh]
	 Correlation Energy        =      -0.0379388723209196 [Eh]
	 Total Energy              =     -75.0024418976241662 [Eh]
	-----------------------------------------------------------
	 ================> DF-SCS-MP2 Energies <================== 
	-----------------------------------------------------------
	 SCS Same-Spin Scale       =       0.3333333333333333 [-]
	 SCS Opposite-Spin Scale   =       1.2000000000000000 [-]
	 SCS Same-Spin Energy      =      -0.0007269469700556 [Eh]
	 SCS Opposite-Spin Energy  =      -0.0429096376929035 [Eh]
	 SCS Correlation Energy    =      -0.0436365846629590 [Eh]
	 SCS Total Energy          =     -75.0081396099662072 [Eh]
	-----------------------------------------------------------


*** tstop() called on adabbott at Fri Mar  2 14:39:14 2018
Module time:
	user time   =       0.11 seconds =       0.00 minutes
	system time =       0.00 seconds =       0.00 minutes
	total time  =          0 seconds =       0.00 minutes
Total time:
	user time   =       1.33 seconds =       0.02 minutes
	system time =       0.02 seconds =       0.00 minutes
	total time  =          1 seconds =       0.02 minutes

  //>>>>>>>>>>>>>>>>>>>>>>>>>>>>>>>>>>>//
  //    Loading displacement 5 of 5    //
  //<<<<<<<<<<<<<<<<<<<<<<<<<<<<<<<<<<<//
    SCF Algorithm Type (re)set to DF.

*** tstart() called on adabbott
*** at Fri Mar  2 14:39:14 2018

   => Loading Basis Set <=

    Name: STO-3G
    Role: ORBITAL
    Keyword: BASIS
    atoms 1   entry O          line    81 file /home/adabbott/Git/psi4/objdir/stage/usr/local/psi4/share/psi4/basis/sto-3g.gbs 
    atoms 2-3 entry H          line    19 file /home/adabbott/Git/psi4/objdir/stage/usr/local/psi4/share/psi4/basis/sto-3g.gbs 


         ---------------------------------------------------------
                                   SCF
            by Justin Turney, Rob Parrish, Andy Simmonett
                             and Daniel Smith
                              RHF Reference
                        1 Threads,    500 MiB Core
         ---------------------------------------------------------

  ==> Geometry <==

    Molecular point group: c2v
    Full point group: C2v

    Geometry (in Angstrom), charge = 0, multiplicity = 1:

       Center              X                  Y                   Z               Mass       
    ------------   -----------------  -----------------  -----------------  -----------------
           O          0.000000000000     0.000000000000    -0.066678531529    15.994914619560
           H          0.000000000000    -0.790649154947     0.529118341392     1.007825032070
           H          0.000000000000     0.790649154947     0.529118341392     1.007825032070

  Running in c2v symmetry.

  Rotational constants: A =     26.52958  B =     13.37869  C =      8.89367 [cm^-1]
  Rotational constants: A = 795336.70122  B = 401083.16849  C = 266625.59877 [MHz]
  Nuclear repulsion =    8.887006225878341

  Charge       = 0
  Multiplicity = 1
  Electrons    = 10
  Nalpha       = 5
  Nbeta        = 5

  ==> Algorithm <==

  SCF Algorithm Type is DF.
  DIIS enabled.
  MOM disabled.
  Fractional occupation disabled.
  Guess Type is SAD.
  Energy threshold   = 1.00e-10
  Density threshold  = 1.00e-10
  Integral threshold = 0.00e+00

  ==> Primary Basis <==

  Basis Set: STO-3G
    Blend: STO-3G
    Number of shells: 5
    Number of basis function: 7
    Number of Cartesian functions: 7
    Spherical Harmonics?: true
    Max angular momentum: 1

   => Loading Basis Set <=

    Name: (STO-3G AUX)
    Role: JKFIT
    Keyword: DF_BASIS_SCF
    atoms 1   entry O          line   323 file /home/adabbott/Git/psi4/objdir/stage/usr/local/psi4/share/psi4/basis/def2-svp-jkfit.gbs 
    atoms 2-3 entry H          line    23 file /home/adabbott/Git/psi4/objdir/stage/usr/local/psi4/share/psi4/basis/def2-svp-jkfit.gbs 

  ==> Pre-Iterations <==

   -------------------------------------------------------
    Irrep   Nso     Nmo     Nalpha   Nbeta   Ndocc  Nsocc
   -------------------------------------------------------
     A1         4       4       0       0       0       0
     A2         0       0       0       0       0       0
     B1         1       1       0       0       0       0
     B2         2       2       0       0       0       0
   -------------------------------------------------------
    Total       7       7       5       5       5       0
   -------------------------------------------------------

  ==> Integral Setup <==

  ==> DFJK: Density-Fitted J/K Matrices <==

    J tasked:                  Yes
    K tasked:                  Yes
    wK tasked:                  No
    OpenMP threads:              1
    Integrals threads:           1
    Memory (MB):               375
    Algorithm:                Core
    Integral Cache:           NONE
    Schwarz Cutoff:          1E-12
    Fitting Condition:       1E-12

   => Auxiliary Basis Set <=

  Basis Set: (STO-3G AUX)
    Blend: DEF2-SVP-JKFIT
    Number of shells: 37
    Number of basis function: 113
    Number of Cartesian functions: 133
    Spherical Harmonics?: true
    Max angular momentum: 4

  Minimum eigenvalue in the overlap matrix is 3.6393052139E-01.
  Using Symmetric Orthogonalization.

  SCF Guess: Superposition of Atomic Densities via on-the-fly atomic UHF.

  ==> Iterations <==

                           Total Energy        Delta E     RMS |[F,P]|

   @DF-RHF iter   0:   -74.71460191108611   -7.47146e+01   3.03940e-01 
   @DF-RHF iter   1:   -74.91600325470017   -2.01401e-01   5.09813e-02 
   @DF-RHF iter   2:   -74.96229021097125   -4.62870e-02   9.16895e-03 DIIS
   @DF-RHF iter   3:   -74.96398815218316   -1.69794e-03   3.56711e-03 DIIS
   @DF-RHF iter   4:   -74.96441461354127   -4.26461e-04   3.22682e-04 DIIS
   @DF-RHF iter   5:   -74.96441710793327   -2.49439e-06   3.57733e-05 DIIS
   @DF-RHF iter   6:   -74.96441713215955   -2.42263e-08   1.11484e-06 DIIS
   @DF-RHF iter   7:   -74.96441713217996   -2.04068e-11   4.76812e-10 DIIS
   @DF-RHF iter   8:   -74.96441713217999   -2.84217e-14   2.89541e-11 DIIS

  ==> Post-Iterations <==

    Orbital Energies (a.u.)
    -----------------------

    Doubly Occupied:                                                      

       1A1   -20.243976     2A1    -1.250662     1B2    -0.603166  
       3A1    -0.445470     1B1    -0.388215  

    Virtual:                                                              

       4A1     0.570772     2B2     0.708631  

    Final Occupation by Irrep:
             A1    A2    B1    B2 
    DOCC [     3,    0,    1,    1 ]

  Energy converged.

  @DF-RHF Final Energy:   -74.96441713217999

   => Energetics <=

    Nuclear Repulsion Energy =              8.8870062258783413
    One-Electron Energy =                -121.8398687157834104
    Two-Electron Energy =                  37.9884453577250767
    Total Energy =                        -74.9644171321799888



Properties will be evaluated at   0.000000,   0.000000,   0.000000 Bohr

Properties computed using the SCF density matrix

  Nuclear Dipole Moment: (a.u.)
     X:     0.0000      Y:     0.0000      Z:     0.9917

  Electronic Dipole Moment: (a.u.)
     X:     0.0000      Y:     0.0000      Z:    -0.3335

  Dipole Moment: (a.u.)
     X:     0.0000      Y:     0.0000      Z:     0.6583     Total:     0.6583

  Dipole Moment: (Debye)
     X:     0.0000      Y:     0.0000      Z:     1.6732     Total:     1.6732


*** tstop() called on adabbott at Fri Mar  2 14:39:14 2018
Module time:
	user time   =       0.22 seconds =       0.00 minutes
	system time =       0.00 seconds =       0.00 minutes
	total time  =          0 seconds =       0.00 minutes
Total time:
	user time   =       1.55 seconds =       0.03 minutes
	system time =       0.02 seconds =       0.00 minutes
	total time  =          1 seconds =       0.02 minutes

*** tstart() called on adabbott
*** at Fri Mar  2 14:39:14 2018


  //>>>>>>>>>>>>>>>>>>>>>>>>>>>>>>>>>>>//
  //               DFMP2               //
  //<<<<<<<<<<<<<<<<<<<<<<<<<<<<<<<<<<<//

   => Loading Basis Set <=

    Name: (STO-3G AUX)
    Role: RIFIT
    Keyword: DF_BASIS_MP2
    atoms 1   entry O          line   406 file /home/adabbott/Git/psi4/objdir/stage/usr/local/psi4/share/psi4/basis/def2-qzvpp-ri.gbs 
    atoms 2-3 entry H          line    24 file /home/adabbott/Git/psi4/objdir/stage/usr/local/psi4/share/psi4/basis/def2-qzvpp-ri.gbs 

	 --------------------------------------------------------
	                          DF-MP2                         
	      2nd-Order Density-Fitted Moller-Plesset Theory     
	              RMP2 Wavefunction,   1 Threads             
	                                                         
	        Rob Parrish, Justin Turney, Andy Simmonett,      
	           Ed Hohenstein, and C. David Sherrill          
	 --------------------------------------------------------

   => Auxiliary Basis Set <=

  Basis Set: (STO-3G AUX)
    Blend: DEF2-QZVPP-RI
    Number of shells: 65
    Number of basis function: 253
    Number of Cartesian functions: 333
    Spherical Harmonics?: true
    Max angular momentum: 5

	 --------------------------------------------------------
	                 NBF =     7, NAUX =   253
	 --------------------------------------------------------
	   CLASS    FOCC     OCC    AOCC    AVIR     VIR    FVIR
	   PAIRS       0       5       5       2       2       0
	 --------------------------------------------------------

	-----------------------------------------------------------
	 ==================> DF-MP2 Energies <==================== 
	-----------------------------------------------------------
	 Reference Energy          =     -74.9644171321799888 [Eh]
	 Singles Energy            =      -0.0000000000000000 [Eh]
	 Same-Spin Energy          =      -0.0021865372481200 [Eh]
	 Opposite-Spin Energy      =      -0.0358629201392995 [Eh]
	 Correlation Energy        =      -0.0380494573874195 [Eh]
	 Total Energy              =     -75.0024665895674048 [Eh]
	-----------------------------------------------------------
	 ================> DF-SCS-MP2 Energies <================== 
	-----------------------------------------------------------
	 SCS Same-Spin Scale       =       0.3333333333333333 [-]
	 SCS Opposite-Spin Scale   =       1.2000000000000000 [-]
	 SCS Same-Spin Energy      =      -0.0007288457493733 [Eh]
	 SCS Opposite-Spin Energy  =      -0.0430355041671594 [Eh]
	 SCS Correlation Energy    =      -0.0437643499165327 [Eh]
	 SCS Total Energy          =     -75.0081814820965178 [Eh]
	-----------------------------------------------------------


*** tstop() called on adabbott at Fri Mar  2 14:39:15 2018
Module time:
	user time   =       0.10 seconds =       0.00 minutes
	system time =       0.00 seconds =       0.00 minutes
	total time  =          1 seconds =       0.02 minutes
Total time:
	user time   =       1.65 seconds =       0.03 minutes
	system time =       0.02 seconds =       0.00 minutes
	total time  =          2 seconds =       0.03 minutes

-------------------------------------------------------------

  Computing gradient from energies (fd_1_0).
	Using 3-point formula.
	Energy without displacement:  -75.0024665896
	Check energies below for precision!
	Forces are for mass-weighted, symmetry-adapted cartesians (in au).

	 Coord      Energy(-)        Energy(+)        Force
	    0    -75.0026682775   -75.0022573361     0.0410941397
	    1    -75.0024800915   -75.0024418976     0.0038193865

	Gradient written.

-------------------------------------------------------------
  ## F-D gradient (Symmetry 0) ##
  Irrep: 1 Size: 3 x 3

                 1                   2                   3

    1     0.00000000000000     0.00000000000000     0.05498126903657
    2     0.00000000000000     0.00271126007233    -0.02749063451828
    3     0.00000000000000    -0.00271126007233    -0.02749063451828




*** Psi4 exiting successfully. Buy a developer a beer!
