/home/dlambrecht/software/qchem4.release.O2/exe/qcprog.exe .1e1a_active_0_2.qcin.10604.qcin.1 /home/dlambrecht/erb74/scratch/qchem10604/

                  Welcome to Q-Chem
     A Quantum Leap Into The Future Of Chemistry

 Y. Shao, L. Fusti-Molnar, Y. Jung, J. Kussmann, C. Ochsenfeld,
 S. T. Brown, A. T. B. Gilbert, L. V. Slipchenko,S. V. Levchenko,
 D. P. O'Neill, R. A. DiStasio Jr., R. C. Lochan, T. Wang,
 G. J. O. Beran, N. A. Besley, J. M. Herbert, C. Y. Lin,
 T. Van Voorhis, S. H. Chien, A. Sodt, R. P. Steele, 
 V. A. Rassolov, P. E. Maslen, P. P. Korambath, R. D. Adamson,
 B. Austin, J. Baker, E. F. C. Byrd, H. Dachsel, R. J. Doerksen,
 A. Dreuw, B. D. Dunietz, A. D. Dutoi, T. R. Furlani,
 S. R. Gwaltney, A. Heyden, S. Hirata, C.-P. Hsu, G. Kedziora,
 R. Z. Khaliullin, P. Klunzinger, A. M. Lee, M. S. Lee, W. Liang,
 I. Lotan, N. Nair, B. Peters, E. I. Proynov, P. A. Pieniazek, 
 Y. M. Rhee, J. Ritchie, E. Rosta, C. D. Sherrill, 
 A. C. Simmonett, J. E. Subotnik, H. L. Woodcock III,
 W. Zhang, A. T. Bell, A. K. Chakraborty, D. M. Chipman,
 F. J. Keil, A. Warshel, W. J. Hehre, H. F. Schaefer III,
 J. Kong, A. I. Krylov, P. M. W. Gill, M. Head-Gordon,

 Additional authors for Version 3.1: 
 Z. Gan, Y. Zhao, N. E. Schultz, D. Truhlar, E. Epifanovsky and M. Oana.

 Additional authors for Version 3.2: 
 R. Baer, B. R. Brooks, D. Casanova, J.-D. Chai, C.-L. Cheng, 
 C. Cramer, D. Crittenden, A. Ghysels, G. Hawkins, E. G. Hohenstein, 
 C. Kelley, W. Kurlancheek, D. Liotard, E. Livshits, P. Manohar, 
 A. Marenich, D. Neuhauser, R. Olson, M. A. Rohrdanz, K. S. Thanthiriwatte, 
 A. J. W. Thom, V. Vanovschi, C. F. Williams, Q. Wu and Z.-Q. You. 

 Additional authors for Version 4.0: 
 A. Aspuru-Guzik, C. Chang, R. G. Edgar, E. Sundstrom, J. Parkhill, K. Lawler,
 M. Gordon, M. Schmidt, N. Shenvi, D. Lambrecht, M. Goldey, R. Olivares-Amaya,
 Y. Bernard, L. Vogt, M. Watson, J. Liu, S. Yeganeh, B. Kaduk, O. Vydrov, X. Xu, 
 I. Kaliman, K. Khistyaev, N. Russ, I.Y. Zhang, W.A. Goddard III, F. Liu, R. King ,
 A. Landau, M. Wormit, A. Dreuw, M. Diedenhofen, A. Klamt, A.W. Lange, D. Ghosh,
 D. Kosenkov, T. Kus, A. Landau, D. Zuev, J. Deng, S.P. Mao, Y.C. Su, D. Small
 
 Q-Chem, Version 4.0, Q-Chem, Inc., Pittsburgh, PA (2007).


 Unrecognized platform!!! 4.0.0.1 

 Q-chem begins on Tue Jun 18 09:47:50 2013  

Host: n4
0

theFileMan(): MAXOPENFILES=32718 MAX_SUB_FILE_NUM=16
Maximum size of a physical file is 2.0 GB, maximum size of a tmp-file is 32.0 GB

Finally everything over in PARseQInput

--------------------------------------------------------------
User input:
--------------------------------------------------------------
$rem
jobtype sp
exchange b
correlation lyp
basis general
purecart 1111
max_scf_cycles 1000
max_cis_cycles 1000
stability_analysis true
$end

$molecule
0 2
C    -4.1706907500000057   0.4825802500000023  -2.6181588500000075
H    -4.4429413500000070  -0.2736944499999978  -3.3543850500000048
H    -3.5005997500000063   1.2104115500000021  -3.0756955500000061
C    -3.3136824500000013  -0.2447797499999977  -1.5821995500000057
N    -3.6615904500000065  -0.6009820499999976  -0.2693449500000042
H    -4.5025998500000037  -0.2858416499999976   0.1927046499999960
C    -2.9037378500000059  -1.5764379499999976   0.1863962499999943
H    -2.8683322500000017  -2.0177883499999973   1.1714629499999951
N    -2.1895671500000025  -1.9748166499999980  -0.8850819500000071
C    -2.2614276500000017  -1.0660555499999975  -1.9128184500000032
H    -1.6633239500000057  -1.0960863499999978  -2.8115788500000036
C    -1.9847631500000060   3.3295584500000022   1.8104441499999953
H    -0.9990904500000041   3.3843648500000025   1.3483343499999947
H    -1.9365629500000026   3.4130434500000026   2.8961774499999962
C    -2.5447261500000025   1.9682876500000028   1.4601353499999945
H    -3.5435514500000025   1.7678290500000027   1.8477857499999963
H    -2.5695486500000015   1.8325889500000028   0.3789000499999915
C    -1.6040054500000025   1.0314141500000029   2.1487601499999940
O    -1.6051870500000049   0.7370160500000025   3.3543850499999941
O    -0.5830420500000031   0.7736863500000025   1.5309506499999941
C     2.2959077499999987   1.2151589500000028   2.8651466499999962
H     3.0646291499999956   0.5944036500000025   3.3253969499999947
H     1.5062064499999932   0.5353869500000024   2.5451644499999944
C     2.9442891499999964   1.7072870500000024   1.5647427499999935
H     2.2189231499999953   2.2726412500000022   0.9796598499999973
H     3.8047477499999975   2.3527645500000025   1.7410087499999956
C     3.4129006499999983   0.5235563500000024   0.7735790499999952
O     2.6464878499999998   0.1751952500000024  -0.1311354500000022
O     4.5025998499999966  -0.1067308499999975   0.8848702499999918
Cu    0.1346911499999948  -0.9276607499999978  -0.1202934500000055
O    -0.3316096500000043   1.3154096500000025  -1.4880606500000084
H     0.4614427499999963   1.8386162500000027  -1.3716364500000042
H    -1.0164697500000059   1.9571518500000022  -1.6761179500000056
O     1.1124626499999974  -2.3446523499999978  -1.9238027500000072
H     2.0545500499999960  -2.4416427499999980  -1.7848930500000080
H     0.8773066499999940  -3.0784062499999978  -2.4917276500000090
O     0.3886751499999972  -2.4847440499999975   1.9545933499999963
H     0.4910328499999957  -3.4130434499999973   2.1643907499999955
H     0.1248041499999955  -2.0801113499999975   2.7809566499999936
H    -5.0735683937034279   0.9972757292660105  -2.2895245180690753
H    -2.5912827365058559   4.1321012513053912   1.3907311012897212
H     1.9228485528889960   2.0631418113955040   3.4394739976253659
$end

$basis
H     0 
S   4   1.00
    190.6916900              0.70815167E-03   
     28.6055320              0.54678827E-02   
      6.5095943              0.27966605E-01   
      1.8412455              0.10764538       
S   1   1.00
      0.59853725             1.0000000        
S   1   1.00
      0.21397624             1.0000000        
S   1   1.00
      0.80316286E-01         1.0000000        
P   1   1.00
      2.29200000             1.0000000        
P   1   1.00
      0.83800000             1.0000000        
P   1   1.00
      0.29200000             1.0000000        
D   1   1.00
      2.06200000             1.0000000        
D   1   1.00
      0.66200000             1.0000000        
F   1   1.00
      1.39700000             1.0000000        
****
C     0 
S   8   1.00
  67025.0710290              0.38736308501E-04      
  10039.9865380              0.30107917575E-03      
   2284.9316911              0.15787918095E-02      
    647.14122130             0.66087087195E-02      
    211.09472335             0.23367123250E-01      
     76.177643862            0.70420716898E-01      
     29.633839163            0.17360344953    
     12.187785081            0.32292305648    
S   2   1.00
     53.026006299            0.74897404492E-01      
     15.258502776            0.76136220983    
S   1   1.00
      5.2403957464           1.0000000        
S   1   1.00
      2.2905022379           1.0000000        
S   1   1.00
      0.69673283006          1.0000000        
S   1   1.00
      0.27599337363          1.0000000        
S   1   1.00
      0.10739884389          1.0000000        
P   5   1.00
    105.12555082             0.84647553844E-03      
     24.884461066            0.66274038534E-02      
      7.8637230826           0.30120390419E-01      
      2.8407001835           0.99951435476E-01      
      1.1227137335           0.23826299282    
P   1   1.00
      0.46050725555          1.0000000        
P   1   1.00
      0.18937530913          1.0000000        
P   1   1.00
      0.75983791611E-01            1.0000000        
D   1   1.00
      1.84800000             1.0000000        
D   1   1.00
      0.64900000             1.0000000        
D   1   1.00
      0.22800000             1.0000000        
F   1   1.00
      1.41900000             1.0000000        
F   1   1.00
      0.48500000             1.0000000        
G   1   1.00
      1.01100000             1.0000000        
****
N     0 
S   8   1.00
  90726.8892100              0.39257887368E-04      
  13590.5288010              0.30513316455E-03      
   3092.9883781              0.16000560446E-02      
    875.99876362             0.66982937306E-02      
    285.74469982             0.23690078765E-01      
    103.11913417             0.71455405268E-01      
     40.128556777            0.17632774876    
     16.528095704            0.32677592815    
S   2   1.00
     69.390960983            0.80052094386E-01      
     20.428200596            0.78268063538    
S   1   1.00
      7.1292587972           1.0000000        
S   1   1.00
      3.1324304893           1.0000000        
S   1   1.00
      0.98755778723          1.0000000        
S   1   1.00
      0.38765721307          1.0000000        
S   1   1.00
      0.14909883075          1.0000000        
P   5   1.00
    150.05742670            -0.86216165986E-03      
     35.491599483           -0.68571273236E-02      
     11.247864223           -0.31795688855E-01      
      4.0900305195          -0.10537396822    
      1.6220573146          -0.24519708041    
P   1   1.00
      0.66442261530          1.0000000        
P   1   1.00
      0.27099770070          1.0000000        
P   1   1.00
      0.10688749984          1.0000000        
D   1   1.00
      2.83700000             1.0000000        
D   1   1.00
      0.96800000             1.0000000        
D   1   1.00
      0.33500000             1.0000000        
F   1   1.00
      2.02700000             1.0000000        
F   1   1.00
      0.68500000             1.0000000        
G   1   1.00
      1.42700000             1.0000000        
****
O     0 
S   8   1.00
 116506.4690800              0.40383857939E-04      
  17504.3497240              0.31255139004E-03      
   3993.4513230              0.16341473495E-02      
   1133.0063186              0.68283224757E-02      
    369.99569594             0.24124410221E-01      
    133.62074349             0.72730206154E-01      
     52.035643649            0.17934429892    
     21.461939313            0.33059588895    
S   2   1.00
     89.835051252            0.96468652996E-01      
     26.428010844            0.94117481120    
S   1   1.00
      9.2822824649           1.0000000        
S   1   1.00
      4.0947728533           1.0000000        
S   1   1.00
      1.3255349078           1.0000000        
S   1   1.00
      0.51877230787          1.0000000        
S   1   1.00
      0.19772676454          1.0000000        
P   5   1.00
    191.15255810             0.25115697705E-02      
     45.233356739            0.20039240864E-01      
     14.353465922            0.93609064762E-01      
      5.2422371832           0.30618127124    
      2.0792418599           0.67810501439    
P   1   1.00
      0.84282371424          1.0000000        
P   1   1.00
      0.33617694891          1.0000000        
P   1   1.00
      0.12863997974          1.0000000        
D   1   1.00
      3.77500000             1.0000000        
D   1   1.00
      1.30000000             1.0000000        
D   1   1.00
      0.44400000             1.0000000        
F   1   1.00
      2.66600000             1.0000000        
F   1   1.00
      0.85900000             1.0000000        
G   1   1.00
      1.84600000             1.0000000        
****
Cu     0 
S   11   1.00
 5056467.8898000             0.93501916365E-05      
 759457.8383500              0.72323443222E-04      
 173524.8849700              0.37813833845E-03      
  49327.2599880              0.15870129862E-02      
  16144.1499300              0.57220685294E-02      
   5844.5964680              0.18268390048E-01      
   2284.6812739              0.51893720863E-01      
    948.88232514             0.12796192366    
    413.66215455             0.25629891036    
    187.38942059             0.36064416138    
     86.872771648            0.26833664660    
S   4   1.00
   1744.0598287              0.88587079141E-02      
    540.93295513             0.86522785813E-01      
    207.99736224             0.38932285258    
     90.475793036            0.69777199902    
S   1   1.00
     38.869687699            1.0000000        
S   1   1.00
     18.974829147            1.0000000        
S   1   1.00
      9.0953644635           1.0000000        
S   1   1.00
      3.8330020174           1.0000000        
S   1   1.00
      1.8198891499           1.0000000        
S   1   1.00
      0.79068098393          1.0000000        
S   1   1.00
      0.14914142106          1.0000000        
S   1   1.00
      0.72448090592E-01            1.0000000        
S   1   1.00
      0.30959925368E-01            1.0000000        
P   9   1.00
   9720.4614555              0.17828803512E-03      
   2302.7557452              0.15678108633E-02      
    747.48498314             0.87470094509E-02      
    285.00132623             0.36044549301E-01      
    120.15121609             0.11287209053    
     54.145261156            0.25647377341    
     25.406033563            0.38512918379    
     12.224331465            0.30316512356    
      5.7638720668           0.81677218969E-01      
P   5   1.00
     83.210837217           -0.63530359993E-02      
     29.694779129           -0.31383834666E-01      
      5.8248516206           0.30930039753    
      2.6746181180           0.63583925938    
      1.1841836775           0.50946045967    
P   1   1.00
      0.48043583535          1.0000000        
P   1   1.00
      0.1870000              1.0000000        
P   1   1.00
      0.0762000              1.0000000        
P   1   1.00
      0.0310000              1.0000000        
D   6   1.00
    249.54025080             0.12432881244E-02      
     74.683914534            0.10456901995E-01      
     28.392717116            0.46451241249E-01      
     11.955968430            0.13541359729    
      5.3210744624           0.25852899978    
      2.3661189459           0.33168127635    
D   1   1.00
      1.0131863994           1.0000000        
D   1   1.00
      0.40710035940          1.0000000        
D   1   1.00
      0.14742541032          1.0000000        
D   1   1.00
      0.71E-01               1.0000000        
F   1   1.00
      6.9620000              1.0000000        
F   1   1.00
      2.2330000              1.0000000        
F   1   1.00
      0.7040000              1.0000000        
F   1   1.00
      0.2400000              1.0000000        
G   1   1.00
      5.9530000              1.0000000        
G   1   1.00
      1.7680000              1.0000000        
****
$end
--------------------------------------------------------------
 ----------------------------------------------------
       Standard Nuclear Orientation (Angstroms)
    I     Atom         X            Y            Z
 ----------------------------------------------------
    1      C       4.530457     0.460477    -1.603389
    2      H       5.091478     1.390345    -1.510110
    3      H       4.007548     0.446002    -2.559661
    4      C       3.424613     0.542550    -0.551200
    5      N       3.326329    -0.167175     0.656334
    6      H       3.933552    -0.934525     0.906444
    7      C       2.529736     0.438211     1.512197
    8      H       2.190663     0.113867     2.484941
    9      N       2.255964     1.624638     0.934054
   10      C       2.610520     1.639499    -0.393094
   11      H       2.360109     2.421825    -1.094280
   12      C       0.763333    -3.783158    -1.058933
   13      H      -0.005736    -3.232139    -1.600238
   14      H       0.340429    -4.536340    -0.394118
   15      C       1.504816    -2.766338    -0.218926
   16      H       2.322077    -3.170772     0.378257
   17      H       1.907996    -1.972775    -0.848055
   18      C       0.454409    -2.286614     0.731549
   19      O       0.063619    -2.868356     1.755786
   20      O      -0.272149    -1.405187     0.300645
   21      C      -3.457576    -1.744839     0.332617
   22      H      -4.291152    -1.387151     0.937026
   23      H      -2.559777    -1.291202     0.752469
   24      C      -3.654729    -1.050577    -1.021182
   25      H      -2.815077    -1.275386    -1.678866
   26      H      -4.567159    -1.365763    -1.527372
   27      C      -3.738524     0.430115    -0.803731
   28      O      -2.685902     1.040682    -1.019244
   29      O      -4.752626     1.115964    -0.490201
   30      Cu     -0.257945     1.071555     0.257315
   31      O       0.487570     0.260691    -2.172973
   32      H      -0.332513     0.050373    -2.619583
   33      H       1.147876    -0.264916    -2.624598
   34      O      -0.455458     3.524833    -0.141386
   35      H      -1.378703     3.776820    -0.160219
   36      H       0.011573     4.339897     0.042417
   37      O      -1.095549     0.879292     2.718133
   38      H      -1.197186     1.421032     3.500705
   39      H      -1.160140    -0.020075     3.039379
   40      H       5.227118    -0.377300    -1.573484
   41      H       1.418126    -4.247049    -1.796599
   42      H      -3.365136    -2.821396     0.189160
 ----------------------------------------------------
 Molecular Point Group                 C1    NOp =  1
 Largest Abelian Subgroup              C1    NOp =  1
 Nuclear Repulsion Energy =  2221.0014546135 hartrees
 There are       91 alpha and       90 beta electrons
 Requested basis set is non-standard
 There are 571 shells and 1843 basis functions

Total QAlloc Memory Limit   2000 MB
Mega-Array Size        61 MB
MEM_STATIC part        62 MB
 A cutoff of  1.0D-08 yielded  70824 shell pairs
 There are    634438 function pairs (    909039 Cartesian)
 Smallest overlap matrix eigenvalue = 2.16E-05

 Q-Chem warning in module /home/dlambrecht/qclab/programs/qchem4/stvman/mkSTV.C, line 250:

 Overlap eigenvalue is smaller than square root of threshold


  Scale SEOQF with 1.000000e-02/1.000000e-01/1.000000e-01

 Standard Electronic Orientation quadrupole field applied
 Nucleus-field energy     =     0.0000000176 hartrees
 Guess MOs from core Hamiltonian diagonalization
 An unrestricted Kohn-Sham SCF calculation will be
 performed using Pulay DIIS extrapolation
 Exchange:  Becke88      Correlation:  LYP
 Using SG-1 standard quadrature grid
 SCF converges when DIIS error is below 1.0E-05
 Requested basis set is non-standard
 There are 571 shells and 1843 basis functions
 A cutoff of  1.0D-08 yielded  70824 shell pairs
 There are    634438 function pairs (    909039 Cartesian)
 ---------------------------------------
  Cycle       Energy         DIIS Error
 ---------------------------------------
    1     689.5875994592      1.17E-01
    2   -1241.8654552986      3.01E-02
    3     502.1348699998      1.25E-01
    4     414.3406705841      1.19E-01
    5     332.3124175855      1.15E-01
    6     275.8056113457      1.12E-01
    7     255.8130604445      1.10E-01
