                  Welcome to Q-Chem
     A Quantum Leap Into The Future Of Chemistry


 Q-Chem 4.2, Q-Chem, Inc., Pleasanton, CA (2014).

 Y. Shao,  Z. Gan,  E. Epifanovsky,  A. T. B. Gilbert,  M. Wormit,  
 J. Kussmann,  A. W. Lange,  A. Behn,  J. Deng,  X. Feng,  D. Ghosh,  
 M. Goldey,  P. R. Horn,  L. D. Jacobson,  I. Kaliman,  R. Z. Khaliullin,  
 T. Kus,  A. Landau,  J. Liu,  E. I. Proynov,  Y. M. Rhee,  R. M. Richard,  
 M. A. Rohrdanz,  R. P. Steele,  E. J. Sundstrom,  H. L. Woodcock III,  
 P. M. Zimmerman,  D. Zuev,  B. Albrecht,  E. Alguire,  B. Austin,  
 G. J. O. Beran,  Y. A. Bernard,  E. Berquist,  K. Brandhorst,  
 K. B. Bravaya,  S. T. Brown,  D. Casanova,  C.-M. Chang,  Y. Chen,  
 S. H. Chien,  K. D. Closser,  D. L. Crittenden,  M. Diedenhofen,  
 R. A. DiStasio Jr.,  H. Do,  A. D. Dutoi,  R. G. Edgar,  S. Fatehi,  
 L. Fusti-Molnar,  A. Ghysels,  A. Golubeva-Zadorozhnaya,  J. Gomes,  
 M. W. D. Hanson-Heine,  P. H. P. Harbach,  A. W. Hauser,  E. G. Hohenstein,  
 Z. C. Holden,  T.-C. Jagau,  H. Ji,  B. Kaduk,  K. Khistyaev,  Jaehoon Kim,  
 Jihan Kim,  R. A. King,  P. Klunzinger,  D. Kosenkov,  T. Kowalczyk,  
 C. M. Krauter,  K. U. Lao,  A. Laurent,  K. V. Lawler,  S. V. Levchenko,  
 C. Y. Lin,  F. Liu,  E. Livshits,  R. C. Lochan,  A. Luenser,  P. Manohar,  
 S. F. Manzer,  S.-P. Mao,  N. Mardirossian,  A. V. Marenich,  S. A. Maurer,  
 N. J. Mayhall,  C. M. Oana,  R. Olivares-Amaya,  D. P. O'Neill,  
 J. A. Parkhill,  T. M. Perrine,  R. Peverati,  P. A. Pieniazek,  A. Prociuk,  
 D. R. Rehn,  E. Rosta,  N. J. Russ,  N. Sergueev,  S. M. Sharada,  
 S. Sharma,  D. W. Small,  A. Sodt,  T. Stein,  D. Stuck,  Y.-C. Su,  
 A. J. W. Thom,  T. Tsuchimochi,  L. Vogt,  O. Vydrov,  T. Wang,  
 M. A. Watson,  J. Wenzel,  A. White,  C. F. Williams,  V. Vanovschi,  
 S. Yeganeh,  S. R. Yost,  Z.-Q. You,  I. Y. Zhang,  X. Zhang,  Y. Zhao,  
 B. R. Brooks,  G. K. L. Chan,  D. M. Chipman,  C. J. Cramer,  
 W. A. Goddard III,  M. S. Gordon,  W. J. Hehre,  A. Klamt,  
 H. F. Schaefer III,  M. W. Schmidt,  C. D. Sherrill,  D. G. Truhlar,  
 A. Warshel,  X. Xu,  A. Aspuru-Guzik,  R. Baer,  A. T. Bell,  N. A. Besley,  
 J.-D. Chai,  A. Dreuw,  B. D. Dunietz,  T. R. Furlani,  S. R. Gwaltney,  
 C.-P. Hsu,  Y. Jung,  J. Kong,  D. S. Lambrecht,  W. Liang,  C. Ochsenfeld,  
 V. A. Rassolov,  L. V. Slipchenko,  J. E. Subotnik,  T. Van Voorhis,  
 J. M. Herbert,  A. I. Krylov,  P. M. W. Gill,  M. Head-Gordon

 Contributors to earlier versions of Q-Chem not listed above: 
 R. D. Adamson,  J. Baker,  E. F. C. Byrd,  A. K. Chakraborty,  C.-L. Cheng,  
 H. Dachsel,  R. J. Doerksen,  G. Hawkins,  A. Heyden,  S. Hirata,  
 G. Kedziora,  F. J. Keil,  C. Kelley,  P. P. Korambath,  W. Kurlancheek,  
 A. M. Lee,  M. S. Lee,  D. Liotard,  I. Lotan,  P. E. Maslen,  N. Nair,  
 D. Neuhauser,  R. Olson,  B. Peters,  J. Ritchie,  N. E. Schultz,  
 N. Shenvi,  A. C. Simmonett,  K. S. Thanthiriwatte,  Q. Wu,  W. Zhang

 Q-Chem 4.2.2 for Intel X86 EM64T Linux

 Parts of Q-Chem use Armadillo 4.100.2 (Dirt Cruiser).
 http://arma.sourceforge.net/

 Q-Chem begins on Wed Dec 31 15:32:25 2014  

Host: 
0

     Scratch files written to /home/eric/scratch/qchem/CO2//
 Dec1314 |home|eric|opt|apps|qchem|trunk_intel_release|libmdc|qstr_info.C -1
Checking the input file for consistency...	...done.

--------------------------------------------------------------
User input:
--------------------------------------------------------------
$rem
 method = b3lyp
 basis = 6-31g**
 scf_convergence = 9
 thresh = 14
 xc_grid = 000100000302
 print_general_basis = true
 print_orbitals = 34
 scf_final_print = 2
 make_cube_files = true
$end

$plots
 molecular orbitals
 200 -10.0 10.0
 200 -10.0 10.0
 200 -10.0 10.0
 45 0 0 0
 1 2 3 4 5 6 7 8 9 10 11 12 13 14 15 16 17 18 19 20 21 22 23 24 25 26 27 28 29 30 31 32 33 34 35 36 37 38 39 40 41 42 43 44 45
$end

$molecule
 0 1
C      0.0000000000   -0.0003162467   -0.0000048217
O      0.0000000000    0.0001159898   -1.1691641452
O      0.0000000000    0.0001159547    1.1691546879
$end
--------------------------------------------------------------
 ----------------------------------------------------------------
             Standard Nuclear Orientation (Angstroms)
    I     Atom           X                Y                Z
 ----------------------------------------------------------------
    1      C       0.0000000000    -0.0003143411    -0.0000000677
    2      O      -0.0000000000     0.0001178779    -1.1691593912
    3      O       0.0000000000     0.0001178779     1.1691594419
 ----------------------------------------------------------------
 Molecular Point Group                 C*v   NOp =***
 Largest Abelian Subgroup              C2v   NOp =  1
 Nuclear Repulsion Energy =    57.9345113696 hartrees
 There are       11 alpha and       11 beta electrons
 Requested basis set is 6-31G(d,p)
Basis set in general basis input format:
-----------------------------------------------------------------------
$basis
C    0
S    6    1.000000
   3.04752490E+03    1.83470000E-03 
   4.57369510E+02    1.40373000E-02 
   1.03948690E+02    6.88426000E-02 
   2.92101550E+01    2.32184400E-01 
   9.28666300E+00    4.67941300E-01 
   3.16392700E+00    3.62312000E-01 
SP   3    1.000000
   7.86827240E+00   -1.19332400E-01   6.89991000E-02 
   1.88128850E+00   -1.60854200E-01   3.16424000E-01 
   5.44249300E-01    1.14345640E+00   7.44308300E-01 
SP   1    1.000000
   1.68714400E-01    1.00000000E+00   1.00000000E+00 
D    1    1.000000
   8.00000000E-01    1.00000000E+00 
****
O    0
S    6    1.000000
   5.48467170E+03    1.83110000E-03 
   8.25234950E+02    1.39501000E-02 
   1.88046960E+02    6.84451000E-02 
   5.29645000E+01    2.32714300E-01 
   1.68975700E+01    4.70193000E-01 
   5.79963530E+00    3.58520900E-01 
SP   3    1.000000
   1.55396160E+01   -1.10777500E-01   7.08743000E-02 
   3.59993360E+00   -1.48026300E-01   3.39752800E-01 
   1.01376180E+00    1.13076700E+00   7.27158600E-01 
SP   1    1.000000
   2.70005800E-01    1.00000000E+00   1.00000000E+00 
D    1    1.000000
   8.00000000E-01    1.00000000E+00 
****
O    0
S    6    1.000000
   5.48467170E+03    1.83110000E-03 
   8.25234950E+02    1.39501000E-02 
   1.88046960E+02    6.84451000E-02 
   5.29645000E+01    2.32714300E-01 
   1.68975700E+01    4.70193000E-01 
   5.79963530E+00    3.58520900E-01 
SP   3    1.000000
   1.55396160E+01   -1.10777500E-01   7.08743000E-02 
   3.59993360E+00   -1.48026300E-01   3.39752800E-01 
   1.01376180E+00    1.13076700E+00   7.27158600E-01 
SP   1    1.000000
   2.70005800E-01    1.00000000E+00   1.00000000E+00 
D    1    1.000000
   8.00000000E-01    1.00000000E+00 
****
$end
-----------------------------------------------------------------------
 There are 12 shells and 45 basis functions

Total QAlloc Memory Limit   2000 MB
Mega-Array Size        61 MB
MEM_STATIC part        62 MB

                       Distance Matrix (Angstroms)
             C (  1)   O (  2)
   O (  2)  1.169159
   O (  3)  1.169160  2.338319
 
 A cutoff of  1.0D-14 yielded     77 shell pairs
 There are      1115 function pairs
 
 -------------------------------------------------------
 OpenMP Integral Computing Module                       
 Release: version 1.0, May 2013, Q-Chem Inc. Pittsburgh 
 -------------------------------------------------------
 Integral Job Info:
 Integral job number is                      11
 Integral operator is                         1
 short-range coefficients               -999999
 long-range coefficients                -999999
 Omega coefficients                           0
 if combine SR and LR in K              -999999
 Integral screening is                        0
 Integral computing path is                   2
 max size of driver memory is            800000
 size of driver memory is                593474
 size of scratch memory is              2260544
 max col of scratch BK array               1296
 max len of scratch array in speh3          155
 max len of scratch index in speh4           18
 max int batch size is                      520
 min int batch size is                       52
 fixed nKL is                                52
 max L of basis functions is                  2
 order of int derivative is                   0
 number of shells is                         12
 number of basis is                          45
 number of cartesian basis is                45
 number of contracted shell pairs            77
 number of primitive shell pairs            489
 maxK2 (contraction) of shell pair           36
 max number of K2 of shell pair               1
 max number of CS2 of shell pair             11
 max number of PS2 of shell pair            108
 mem total for path MDJ                   12910
 -------------------------------------------------------
         cpu   0.00 wall   0.00
 Smallest overlap matrix eigenvalue = 2.82E-03

  Scale SEOQF with 1.000000e+00/1.000000e+00/1.000000e+00

 Standard Electronic Orientation quadrupole field applied
 Nucleus-field energy     =    -0.0000000234 hartrees
 Guess from superposition of atomic densities
 Warning:  Energy on first SCF cycle will be non-variational
 A restricted hybrid HF-DFT SCF calculation will be
 performed using Pulay DIIS extrapolation
 Exchange:     0.2000 Hartree-Fock + 0.0800 Slater + 0.7200 Becke88
 Correlation:  0.8100 LYP + 0.1900 VWN1RPA
 Using Euler-Maclaurin-Lebedev (100,302) quadrature formula
 SCF converges when DIIS error is below 1.0E-09
 ---------------------------------------
  Cycle       Energy         DIIS Error
 ---------------------------------------
    1    -189.0888966075      1.26E-01
    2    -188.5002272213      2.09E-02
    3    -188.3334404367      3.72E-02
    4    -188.5808021958      7.91E-04
    5    -188.5809191552      2.96E-04
    6    -188.5809382933      3.27E-05
    7    -188.5809384604      4.68E-06
    8    -188.5809384645      1.80E-07
    9    -188.5809384645      4.19E-07
   10    -188.5809384645      4.91E-09
   11    -188.5809384645      2.71E-10 Convergence criterion met
 ---------------------------------------
 One-Electron    Energy =  -371.9749185034
 Total Coulomb   Energy =   147.9914613655
 Alpha Exchange  Energy =    -2.1559080797
 Beta  Exchange  Energy =    -2.1559080797
 DFT   Exchange  Energy =   -17.2076918627
 DFT Correlation Energy =    -1.0124846508
 Nuclear Repu.   Energy =    57.9345113462
 Nuclear Attr.   Energy =  -558.8910028147
 Kinetic         Energy =   186.9160843113
 SCF time:  CPU 2.36 s  wall 2.36 s
 Final Alpha MO Eigenvalues
            1           2           3           4           5           6
    1 -19.2365923 -19.2365852 -10.3852972  -1.1609801  -1.1196388  -0.5623354
            7           8           9          10          11          12
    1  -0.5165495  -0.5127683  -0.5127683  -0.3699686  -0.3699686   0.0299148
           13          14          15          16
    1   0.0299155   0.0843357   0.3657521   0.4726059
 Final Alpha MO Coefficients
            1           2           3           4           5           6
    1  -0.0001434  -0.0000004   0.9928074  -0.1567333  -0.0000003  -0.1352784
    2   0.0001576   0.0000005   0.0495431   0.3020504   0.0000005   0.3149856
    3   0.0000000   0.0000000  -0.0000000  -0.0000000  -0.0000000  -0.0000000
    4  -0.0000006  -0.0000000   0.0000009   0.0000930   0.0000000  -0.0000196
    5   0.0000005  -0.0001520  -0.0000000  -0.0000006   0.3363987  -0.0000002
    6  -0.0053622  -0.0000160  -0.0007509   0.0394362   0.0000001   0.1899513
    7   0.0000000  -0.0000000   0.0000000   0.0000000  -0.0000000   0.0000000
    8  -0.0000015  -0.0000000   0.0000011  -0.0000296  -0.0000000  -0.0000439
    9   0.0000218  -0.0072957  -0.0000000   0.0000000  -0.0192394   0.0000000
   10  -0.0000529  -0.0000002  -0.0104291  -0.0296068  -0.0000000  -0.0120920
   11   0.0000000  -0.0000000  -0.0000000  -0.0000000   0.0000000  -0.0000000
   12  -0.0000529  -0.0000002  -0.0104291  -0.0296068  -0.0000000  -0.0120920
   13   0.0000000  -0.0000000  -0.0000000  -0.0000000  -0.0000000  -0.0000000
   14   0.0000000  -0.0000005  -0.0000000  -0.0000000   0.0000328  -0.0000000
   15  -0.0032122  -0.0000096  -0.0063331   0.0305793   0.0000001  -0.0232600
   16   0.7041349  -0.6997202  -0.0002739  -0.1347625   0.1468866   0.0948765
   17   0.0186042  -0.0173914   0.0000987   0.2911250  -0.3254104  -0.2118563
   18   0.0000000  -0.0000000   0.0000000  -0.0000000   0.0000000  -0.0000000
   19  -0.0000009   0.0000002   0.0000003  -0.0000401   0.0000605  -0.0001400
   20   0.0016497  -0.0008166  -0.0004624   0.1256918  -0.1300636   0.3304742
   21   0.0096910  -0.0142617  -0.0032431   0.2653801  -0.2698250  -0.3426638
   22  -0.0000000   0.0000000  -0.0000000  -0.0000000   0.0000000  -0.0000000
   23  -0.0000005   0.0000015   0.0000010  -0.0000080   0.0000174  -0.0000682
   24   0.0019468  -0.0017753  -0.0029398   0.0538481  -0.0220501   0.1728113
   25  -0.0057945   0.0061663   0.0003425  -0.0076895   0.0053285  -0.0026662
   26   0.0000000  -0.0000000  -0.0000000   0.0000000  -0.0000000   0.0000000
   27  -0.0057945   0.0061663   0.0003425  -0.0076895   0.0053285  -0.0026662
   28  -0.0000000   0.0000000  -0.0000000  -0.0000000   0.0000000  -0.0000000
   29  -0.0000010   0.0000001   0.0000010  -0.0000047   0.0000129  -0.0000185
   30  -0.0043392   0.0059137  -0.0009314   0.0118898  -0.0072097   0.0334736
   31   0.6999372   0.7039192  -0.0002739  -0.1347620  -0.1468871   0.0948764
   32   0.0184998   0.0175023   0.0000987   0.2911239   0.3254115  -0.2118561
   33   0.0000000   0.0000000  -0.0000000  -0.0000000  -0.0000000  -0.0000000
   34  -0.0000009  -0.0000002   0.0000003  -0.0000401  -0.0000605  -0.0001400
   35  -0.0016448  -0.0008265   0.0004624  -0.1256913  -0.1300640  -0.3304738
   36   0.0096055   0.0143194  -0.0032431   0.2653792   0.2698260  -0.3426635
   37  -0.0000000   0.0000000  -0.0000000   0.0000000   0.0000000  -0.0000000
   38  -0.0000004  -0.0000015   0.0000010  -0.0000080  -0.0000174  -0.0000682
   39  -0.0019362  -0.0017869   0.0029398  -0.0538481  -0.0220503  -0.1728111
   40  -0.0057575  -0.0062009   0.0003425  -0.0076895  -0.0053285  -0.0026662
   41   0.0000000   0.0000000   0.0000000  -0.0000000  -0.0000000   0.0000000
   42  -0.0057575  -0.0062009   0.0003425  -0.0076895  -0.0053285  -0.0026662
   43   0.0000000   0.0000000   0.0000000   0.0000000   0.0000000  -0.0000000
   44   0.0000010   0.0000001  -0.0000010   0.0000047   0.0000129   0.0000185
   45  -0.0043037  -0.0059395  -0.0009314   0.0118898   0.0072097   0.0334735
            7           8           9          10          11          12
    1   0.0000001   0.0000303  -0.0000002  -0.0000000  -0.0000000   0.0003816
    2  -0.0000002  -0.0000585   0.0000004  -0.0000000   0.0000000  -0.0003808
    3   0.0000000   0.0030835   0.4015727   0.0000001  -0.0000000   0.0000148
    4   0.0000000   0.4015727  -0.0030835   0.0000000   0.0000001   0.6001155
    5  -0.3512235   0.0000000   0.0000000   0.0000000   0.0000212  -0.0000000
    6  -0.0000002  -0.0000986   0.0000008  -0.0000000   0.0000000  -0.0070899
    7   0.0000000   0.0012160   0.1583613   0.0000001  -0.0000000   0.0000146
    8   0.0000000   0.1583614  -0.0012160   0.0000000   0.0000001   0.5953696
    9  -0.0002034   0.0000000   0.0000000  -0.0000001  -0.0003043  -0.0000000
   10   0.0000000  -0.0000001   0.0000000  -0.0000000  -0.0000000  -0.0000657
   11  -0.0000000   0.0000001   0.0000132   0.0000000   0.0000000  -0.0000000
   12   0.0000000   0.0000228  -0.0000002  -0.0000000   0.0000000  -0.0001106
   13   0.0000000  -0.0000000  -0.0000000   0.0577090  -0.0000250   0.0000000
   14  -0.0000009  -0.0000000   0.0000000   0.0000250   0.0577090   0.0000000
   15   0.0000000  -0.0000294   0.0000002  -0.0000000   0.0000000   0.0001810
   16   0.0714767   0.0000112  -0.0000001   0.0000000   0.0000076  -0.0002449
   17  -0.1565450  -0.0000104   0.0000001   0.0000000   0.0000242   0.0005572
   18   0.0000000   0.0027017   0.3518444  -0.4725178   0.0002048  -0.0000093
   19  -0.0002209   0.3518443  -0.0027017  -0.0002048  -0.4725178  -0.3764075
   20   0.3934713   0.0002101  -0.0000016  -0.0000001  -0.0002792   0.0009576
   21  -0.2921077  -0.0000803   0.0000006  -0.0000001  -0.0002447   0.0025927
   22   0.0000000   0.0014793   0.1926525  -0.3279023   0.0001421  -0.0000097
   23  -0.0001173   0.1926525  -0.0014793  -0.0001421  -0.3279022  -0.3925948
   24   0.1822674   0.0000971  -0.0000007  -0.0000001  -0.0002353   0.0016202
   25  -0.0022124   0.0000034  -0.0000000   0.0000000   0.0000136  -0.0000679
   26   0.0000000  -0.0000001  -0.0000116   0.0000098  -0.0000000  -0.0000000
   27  -0.0022124  -0.0000167   0.0000001   0.0000000   0.0000307  -0.0000818
   28   0.0000000   0.0002214   0.0288284  -0.0223514   0.0000097   0.0000004
   29  -0.0000179   0.0288284  -0.0002214  -0.0000097  -0.0223514   0.0148228
   30   0.0242600   0.0000317  -0.0000002  -0.0000000  -0.0000022   0.0000993
   31  -0.0714768   0.0000112  -0.0000001  -0.0000000  -0.0000076  -0.0002449
   32   0.1565452  -0.0000104   0.0000001  -0.0000000  -0.0000242   0.0005572
   33   0.0000000   0.0027017   0.3518441   0.4725181  -0.0002048  -0.0000093
   34   0.0002209   0.3518440  -0.0027017   0.0002048   0.4725180  -0.3764075
   35   0.3934716  -0.0002101   0.0000016  -0.0000001  -0.0002792  -0.0009576
   36   0.2921081  -0.0000803   0.0000006   0.0000001   0.0002447   0.0025927
   37   0.0000000   0.0014793   0.1926523   0.3279025  -0.0001421  -0.0000097
   38   0.0001174   0.1926523  -0.0014793   0.0001421   0.3279024  -0.3925947
   39   0.1822676  -0.0000971   0.0000007  -0.0000001  -0.0002353  -0.0016202
   40   0.0022124   0.0000034  -0.0000000  -0.0000000  -0.0000136  -0.0000679
   41  -0.0000000  -0.0000001  -0.0000116  -0.0000098   0.0000000  -0.0000000
   42   0.0022124  -0.0000167   0.0000001  -0.0000000  -0.0000307  -0.0000818
   43  -0.0000000  -0.0002214  -0.0288284  -0.0223515   0.0000097  -0.0000004
   44  -0.0000179  -0.0288284   0.0002214  -0.0000097  -0.0223515  -0.0148228
   45  -0.0242600   0.0000317  -0.0000002   0.0000000   0.0000022   0.0000993
           13          14          15          16
    1  -0.0000000  -0.0995488  -0.0000000  -0.0000163
    2   0.0000000   0.0638408   0.0000000   0.0004644
    3   0.6001195  -0.0000000  -0.0000000  -0.0122370
    4  -0.0000148   0.0022076   0.0000000  -0.9255474
    5   0.0000000   0.0000001   0.0657302  -0.0000000
    6   0.0000002   2.2306245  -0.0000006  -0.0001839
    7   0.5953754  -0.0000000   0.0000000   0.0173279
    8  -0.0000146   0.0027502  -0.0000000   1.3106026
    9   0.0000000  -0.0000002   4.1423871   0.0000000
   10   0.0000000   0.0210634   0.0000000   0.0000340
   11  -0.0000259   0.0000000   0.0000000  -0.0000003
   12   0.0000000   0.0210632   0.0000000  -0.0000036
   13   0.0000000  -0.0000000   0.0000000   0.0000000
   14   0.0000000   0.0000000   0.0000422   0.0000000
   15  -0.0000000  -0.0407541  -0.0000000   0.0001041
   16   0.0000000   0.0759884  -0.1025433   0.0000066
   17  -0.0000000  -0.1746733   0.0253967   0.0000042
   18  -0.3764095   0.0000000  -0.0000000  -0.0015649
   19   0.0000093  -0.0012173  -0.0001736  -0.1183650
   20  -0.0000000  -0.2982105  -0.0950593  -0.0000303
   21  -0.0000001  -0.8680655   3.0008534  -0.0002685
   22  -0.3925970   0.0000000  -0.0000000  -0.0018460
   23   0.0000097  -0.0012914  -0.0006972  -0.1396259
   24  -0.0000000  -0.5587004   0.8753212  -0.0001201
   25   0.0000000   0.0216597  -0.0816033   0.0000168
   26  -0.0000080  -0.0000000   0.0000000   0.0000003
   27   0.0000000   0.0216596  -0.0816034   0.0000510
   28   0.0148230  -0.0000000  -0.0000000  -0.0008151
   29  -0.0000004   0.0000949  -0.0000278  -0.0616528
   30  -0.0000000  -0.0312428  -0.0082955  -0.0000661
   31   0.0000000   0.0759883   0.1025433   0.0000066
   32  -0.0000000  -0.1746733  -0.0253968   0.0000042
   33  -0.3764094   0.0000000  -0.0000000  -0.0015649
   34   0.0000093  -0.0012173   0.0001736  -0.1183650
   35   0.0000000   0.2982107  -0.0950592   0.0000303
   36  -0.0000001  -0.8680650  -3.0008527  -0.0002685
   37  -0.3925969   0.0000000  -0.0000000  -0.0018460
   38   0.0000097  -0.0012914   0.0006972  -0.1396260
   39   0.0000000   0.5587004   0.8753213   0.0001201
   40   0.0000000   0.0216597   0.0816033   0.0000168
   41  -0.0000080   0.0000000   0.0000000   0.0000003
   42   0.0000000   0.0216596   0.0816033   0.0000510
   43  -0.0148230   0.0000000   0.0000000   0.0008151
   44   0.0000004  -0.0000949  -0.0000278   0.0616528
   45  -0.0000000  -0.0312428   0.0082955  -0.0000661
 Final Alpha density matrix.
            1           2           3           4           5           6
    1   1.0285321  -0.0407653   0.0000000   0.0000011   0.0000000  -0.0326221
    2  -0.0407653   0.1929049  -0.0000000  -0.0000016  -0.0000000   0.0717056
    3   0.0000000  -0.0000000   0.1612701  -0.0000000  -0.0000000   0.0000000
    4   0.0000011  -0.0000016  -0.0000000   0.1612701  -0.0000000  -0.0000397
    5   0.0000000  -0.0000000  -0.0000000  -0.0000000   0.2365221   0.0000000
    6  -0.0326221   0.0717056   0.0000000  -0.0000397   0.0000000   0.0376661
    7  -0.0000000   0.0000000   0.0635973   0.0000000   0.0000000   0.0000000
    8   0.0000165  -0.0000320   0.0000000   0.0635973   0.0000000  -0.0000251
    9  -0.0000000   0.0000000   0.0000000   0.0000000  -0.0063996   0.0000000
   10  -0.0040780  -0.0132683   0.0000000  -0.0000026   0.0000000  -0.0034564
   11   0.0000000  -0.0000000   0.0000053  -0.0000000   0.0000000  -0.0000000
   12  -0.0040780  -0.0132683  -0.0000000   0.0000066   0.0000000  -0.0034564
   13   0.0000000  -0.0000000  -0.0000000   0.0000000  -0.0000000  -0.0000000
   14  -0.0000000   0.0000000   0.0000000  -0.0000000   0.0000126   0.0000000
   15  -0.0079334   0.0015957   0.0000000  -0.0000085   0.0000000  -0.0031904
   16   0.0079144  -0.0107232  -0.0000000  -0.0000103   0.0244150   0.0089431
   17  -0.0168740   0.0212104   0.0000000   0.0000270  -0.0544829  -0.0288611
   18   0.0000000  -0.0000000   0.1412994  -0.0000000   0.0000000   0.0000000
   19   0.0000362  -0.0000768  -0.0000000   0.1412994   0.0000879  -0.0000629
   20  -0.0648653   0.1420371  -0.0000000   0.0000896  -0.1819496   0.0677222
   21   0.0015400  -0.0279352   0.0000000  -0.0000008   0.0118284  -0.0546731
   22   0.0000000  -0.0000000   0.0773685  -0.0000000  -0.0000000   0.0000000
   23   0.0000173  -0.0000351  -0.0000000   0.0773685   0.0000401  -0.0000323
   24  -0.0347363   0.0705525  -0.0000000   0.0000406  -0.0714340   0.0349411
   25   0.0019068  -0.0031464  -0.0000000   0.0000007   0.0025686  -0.0007790
   26  -0.0000000   0.0000000  -0.0000047  -0.0000000  -0.0000000   0.0000000
   27   0.0019068  -0.0031464   0.0000000  -0.0000074   0.0025686  -0.0007790
   28   0.0000000  -0.0000000   0.0115774   0.0000000   0.0000000   0.0000000
   29   0.0000051  -0.0000089   0.0000000   0.0115774   0.0000101  -0.0000065
   30  -0.0073159   0.0140882  -0.0000000   0.0000132  -0.0109469   0.0068511
   31   0.0079144  -0.0107232   0.0000000  -0.0000103  -0.0244149   0.0089431
   32  -0.0168739   0.0212104  -0.0000000   0.0000270   0.0544828  -0.0288611
   33  -0.0000000  -0.0000000   0.1412993   0.0000000  -0.0000000   0.0000000
   34   0.0000362  -0.0000768   0.0000000   0.1412993  -0.0000879  -0.0000629
   35   0.0648653  -0.1420371   0.0000000  -0.0000896  -0.1819496  -0.0677223
   36   0.0015401  -0.0279352  -0.0000000  -0.0000008  -0.0118284  -0.0546732
   37   0.0000000  -0.0000000   0.0773685  -0.0000000  -0.0000000   0.0000000
   38   0.0000173  -0.0000351  -0.0000000   0.0773685  -0.0000401  -0.0000323
   39   0.0347363  -0.0705525   0.0000000  -0.0000406  -0.0714340  -0.0349411
   40   0.0019068  -0.0031464   0.0000000   0.0000007  -0.0025686  -0.0007790
   41  -0.0000000   0.0000000  -0.0000047   0.0000000   0.0000000   0.0000000
   42   0.0019068  -0.0031464   0.0000000  -0.0000074  -0.0025686  -0.0007790
   43   0.0000000   0.0000000  -0.0115774  -0.0000000  -0.0000000  -0.0000000
   44  -0.0000051   0.0000089  -0.0000000  -0.0115774   0.0000101   0.0000065
   45  -0.0073159   0.0140882  -0.0000000   0.0000132   0.0109469   0.0068511
            7           8           9          10          11          12
    1  -0.0000000   0.0000165  -0.0000000  -0.0040780   0.0000000  -0.0040780
    2   0.0000000  -0.0000320   0.0000000  -0.0132683  -0.0000000  -0.0132683
    3   0.0635973   0.0000000   0.0000000   0.0000000   0.0000053  -0.0000000
    4   0.0000000   0.0635973   0.0000000  -0.0000026  -0.0000000   0.0000066
    5   0.0000000   0.0000000  -0.0063996   0.0000000   0.0000000   0.0000000
    6   0.0000000  -0.0000251   0.0000000  -0.0034564  -0.0000000  -0.0034564
    7   0.0250798   0.0000000   0.0000000  -0.0000000   0.0000021  -0.0000000
    8   0.0000000   0.0250798   0.0000000   0.0000014  -0.0000000   0.0000050
    9   0.0000000   0.0000000   0.0004235  -0.0000000  -0.0000000  -0.0000000
   10  -0.0000000   0.0000014  -0.0000000   0.0011315   0.0000000   0.0011315
   11   0.0000021  -0.0000000  -0.0000000   0.0000000   0.0000000   0.0000000
   12  -0.0000000   0.0000050  -0.0000000   0.0011315   0.0000000   0.0011316
   13   0.0000000   0.0000000  -0.0000000   0.0000000   0.0000000   0.0000000
   14   0.0000000   0.0000000  -0.0000182  -0.0000000   0.0000000   0.0000000
   15   0.0000000  -0.0000045  -0.0000000  -0.0005579   0.0000000  -0.0005579
   16   0.0000000   0.0000006   0.0022797   0.0028083   0.0000000   0.0028083
   17   0.0000000  -0.0000010   0.0064198  -0.0060595  -0.0000000  -0.0060595
   18   0.0557218   0.0000000   0.0000000   0.0000000   0.0000047  -0.0000000
   19   0.0000000   0.0557218   0.0001427   0.0000028  -0.0000000   0.0000109
   20   0.0000000   0.0000150   0.0024284  -0.0077127  -0.0000000  -0.0077127
   21  -0.0000000  -0.0000056   0.0053550  -0.0036802   0.0000000  -0.0036802
   22   0.0305105   0.0000000   0.0000000   0.0000000   0.0000025  -0.0000000
   23   0.0000000   0.0305105   0.0000995   0.0000010  -0.0000000   0.0000054
   24   0.0000000   0.0000062   0.0004002  -0.0036534  -0.0000000  -0.0036534
   25  -0.0000000   0.0000009  -0.0001472   0.0002566   0.0000000   0.0002566
   26  -0.0000018  -0.0000000   0.0000000  -0.0000000  -0.0000000  -0.0000000
   27   0.0000000  -0.0000023  -0.0001472   0.0002566   0.0000000   0.0002566
   28   0.0045656   0.0000000   0.0000000   0.0000000   0.0000004   0.0000000
   29   0.0000000   0.0045656   0.0000066   0.0000004  -0.0000000   0.0000010
   30   0.0000000   0.0000032   0.0000905  -0.0007468  -0.0000000  -0.0007468
   31   0.0000000   0.0000006  -0.0022797   0.0028083  -0.0000000   0.0028083
   32  -0.0000000  -0.0000010  -0.0064198  -0.0060595   0.0000000  -0.0060595
   33   0.0557218   0.0000000   0.0000000  -0.0000000   0.0000047  -0.0000000
   34   0.0000000   0.0557218  -0.0001427   0.0000028  -0.0000000   0.0000109
   35  -0.0000000  -0.0000150   0.0024284   0.0077127  -0.0000000   0.0077127
   36  -0.0000000  -0.0000056  -0.0053550  -0.0036802   0.0000000  -0.0036802
   37   0.0305105   0.0000000   0.0000000  -0.0000000   0.0000025  -0.0000000
   38   0.0000000   0.0305105  -0.0000995   0.0000010  -0.0000000   0.0000054
   39  -0.0000000  -0.0000062   0.0004002   0.0036534  -0.0000000   0.0036533
   40   0.0000000   0.0000009   0.0001472   0.0002566  -0.0000000   0.0002566
   41  -0.0000018   0.0000000   0.0000000  -0.0000000  -0.0000000  -0.0000000
   42   0.0000000  -0.0000023   0.0001472   0.0002566  -0.0000000   0.0002566
   43  -0.0045656  -0.0000000  -0.0000000   0.0000000  -0.0000004   0.0000000
   44  -0.0000000  -0.0045656   0.0000066  -0.0000004   0.0000000  -0.0000010
   45   0.0000000   0.0000032  -0.0000905  -0.0007468   0.0000000  -0.0007468
           13          14          15          16          17          18
    1   0.0000000  -0.0000000  -0.0079334   0.0079144  -0.0168740   0.0000000
    2  -0.0000000   0.0000000   0.0015957  -0.0107232   0.0212104  -0.0000000
    3  -0.0000000   0.0000000   0.0000000  -0.0000000   0.0000000   0.1412994
    4   0.0000000  -0.0000000  -0.0000085  -0.0000103   0.0000270  -0.0000000
    5  -0.0000000   0.0000126   0.0000000   0.0244150  -0.0544829   0.0000000
    6  -0.0000000   0.0000000  -0.0031904   0.0089431  -0.0288611   0.0000000
    7   0.0000000   0.0000000   0.0000000   0.0000000   0.0000000   0.0557218
    8   0.0000000   0.0000000  -0.0000045   0.0000006  -0.0000010   0.0000000
    9  -0.0000000  -0.0000182  -0.0000000   0.0022797   0.0064198   0.0000000
   10   0.0000000  -0.0000000  -0.0005579   0.0028083  -0.0060595   0.0000000
   11   0.0000000   0.0000000   0.0000000   0.0000000  -0.0000000   0.0000047
   12   0.0000000   0.0000000  -0.0005579   0.0028083  -0.0060595  -0.0000000
   13   0.0033303  -0.0000000  -0.0000000   0.0000000  -0.0000000  -0.0272686
   14  -0.0000000   0.0033303   0.0000000   0.0000056  -0.0000091   0.0000000
   15  -0.0000000   0.0000000   0.0015266  -0.0085811   0.0137699   0.0000000
   16   0.0000000   0.0000056  -0.0085811   1.0392615  -0.0930517  -0.0000000
   17  -0.0000000  -0.0000091   0.0137699  -0.0930517   0.2606837   0.0000000
   18  -0.0272686   0.0000000   0.0000000  -0.0000000   0.0000000   0.3470749
   19   0.0000000  -0.0272685  -0.0000083  -0.0000152   0.0000177   0.0000000
   20   0.0000000  -0.0000207  -0.0038456   0.0251683  -0.0526481  -0.0000000
   21  -0.0000000  -0.0000227   0.0160750  -0.1119828   0.2838141   0.0000000
   22  -0.0189229   0.0000000   0.0000000   0.0000000  -0.0000000   0.2227274
   23   0.0000000  -0.0189229  -0.0000043  -0.0000130   0.0000149  -0.0000000
   24  -0.0000000  -0.0000145  -0.0023606   0.0215418  -0.0422255  -0.0000000
   25   0.0000000   0.0000010  -0.0001567  -0.0069871  -0.0032764  -0.0000000
   26   0.0000006   0.0000000   0.0000000  -0.0000000   0.0000000  -0.0000087
   27  -0.0000000   0.0000019  -0.0001567  -0.0069871  -0.0032764   0.0000000
   28  -0.0012899  -0.0000000   0.0000000   0.0000000  -0.0000000   0.0207052
   29  -0.0000000  -0.0012899  -0.0000006  -0.0000011   0.0000003   0.0000000
   30  -0.0000000  -0.0000004  -0.0003952  -0.0049445  -0.0052655  -0.0000000
   31   0.0000000  -0.0000056  -0.0085811   0.0007816   0.0004348   0.0000000
   32  -0.0000000   0.0000091   0.0137699   0.0004348  -0.0007224   0.0000000
   33   0.0272686   0.0000000   0.0000000   0.0000000  -0.0000000  -0.0994716
   34   0.0000000   0.0272685  -0.0000083   0.0000061   0.0000109  -0.0000000
   35   0.0000000  -0.0000207   0.0038456  -0.0059763   0.0141330   0.0000000
   36   0.0000000   0.0000227   0.0160750  -0.0110162   0.0162511  -0.0000000
   37   0.0189229   0.0000000   0.0000000   0.0000000  -0.0000000  -0.0871522
   38   0.0000000   0.0189229  -0.0000043   0.0000059   0.0000054  -0.0000000
   39  -0.0000000  -0.0000145   0.0023606   0.0005362  -0.0004277   0.0000000
   40  -0.0000000  -0.0000010  -0.0001567   0.0004434  -0.0002854   0.0000000
   41  -0.0000006   0.0000000  -0.0000000   0.0000000  -0.0000000   0.0000006
   42  -0.0000000  -0.0000019  -0.0001567   0.0004434  -0.0002854   0.0000000
   43  -0.0012899  -0.0000000  -0.0000000   0.0000000  -0.0000000   0.0004178
   44  -0.0000000  -0.0012899   0.0000006   0.0000019  -0.0000042   0.0000000
   45  -0.0000000   0.0000004  -0.0003952   0.0020244  -0.0021554   0.0000000
           19          20          21          22          23          24
    1   0.0000362  -0.0648653   0.0015400   0.0000000   0.0000173  -0.0347363
    2  -0.0000768   0.1420371  -0.0279352  -0.0000000  -0.0000351   0.0705525
    3  -0.0000000  -0.0000000   0.0000000   0.0773685  -0.0000000  -0.0000000
    4   0.1412994   0.0000896  -0.0000008  -0.0000000   0.0773685   0.0000406
    5   0.0000879  -0.1819496   0.0118284  -0.0000000   0.0000401  -0.0714340
    6  -0.0000629   0.0677222  -0.0546731   0.0000000  -0.0000323   0.0349411
    7   0.0000000   0.0000000  -0.0000000   0.0305105   0.0000000   0.0000000
    8   0.0557218   0.0000150  -0.0000056   0.0000000   0.0305105   0.0000062
    9   0.0001427   0.0024284   0.0053550   0.0000000   0.0000995   0.0004002
   10   0.0000028  -0.0077127  -0.0036802   0.0000000   0.0000010  -0.0036534
   11  -0.0000000  -0.0000000   0.0000000   0.0000025  -0.0000000  -0.0000000
   12   0.0000109  -0.0077127  -0.0036802  -0.0000000   0.0000054  -0.0036534
   13   0.0000000   0.0000000  -0.0000000  -0.0189229   0.0000000  -0.0000000
   14  -0.0272685  -0.0000207  -0.0000227   0.0000000  -0.0189229  -0.0000145
   15  -0.0000083  -0.0038456   0.0160750   0.0000000  -0.0000043  -0.0023606
   16  -0.0000152   0.0251683  -0.1119828   0.0000000  -0.0000130   0.0215418
   17   0.0000177  -0.0526481   0.2838141  -0.0000000   0.0000149  -0.0422255
   18   0.0000000  -0.0000000   0.0000000   0.2227274  -0.0000000  -0.0000000
   19   0.3470749   0.0000598   0.0001729  -0.0000000   0.2227274   0.0000774
   20   0.0000598   0.2967516  -0.1596979  -0.0000000   0.0000600   0.1384690
   21   0.0001729  -0.1596979   0.3462855  -0.0000000   0.0001156  -0.0921642
   22  -0.0000000  -0.0000000  -0.0000000   0.1446371  -0.0000000  -0.0000000
   23   0.2227274   0.0000600   0.0001156  -0.0000000   0.1446371   0.0000619
   24   0.0000774   0.1384690  -0.0921642  -0.0000000   0.0000619   0.0664866
   25  -0.0000037  -0.0034259  -0.0020637  -0.0000000  -0.0000032  -0.0014188
   26  -0.0000000   0.0000000   0.0000000  -0.0000055  -0.0000000   0.0000000
   27  -0.0000189  -0.0034259  -0.0020637   0.0000000  -0.0000127  -0.0014188
   28   0.0000000  -0.0000000  -0.0000000   0.0128833   0.0000000  -0.0000000
   29   0.0207052  -0.0000031   0.0000100   0.0000000   0.0128833   0.0000011
   30   0.0000012   0.0230284  -0.0135794   0.0000000   0.0000015   0.0109894
   31   0.0000061   0.0059763  -0.0110162   0.0000000   0.0000059  -0.0005362
   32   0.0000109  -0.0141330   0.0162510   0.0000000   0.0000054   0.0004277
   33  -0.0000000  -0.0000000  -0.0000000  -0.0871522  -0.0000000  -0.0000000
   34  -0.0994716  -0.0000145  -0.0001547  -0.0000000  -0.0871521  -0.0000618
   35   0.0000145   0.0467227   0.0000383   0.0000000   0.0000262   0.0107041
   36  -0.0001547  -0.0000383   0.0296112  -0.0000000  -0.0001040   0.0023689
   37  -0.0000000  -0.0000000  -0.0000000  -0.0704029  -0.0000000  -0.0000000
   38  -0.0871521  -0.0000262  -0.0001040  -0.0000000  -0.0704028  -0.0000489
   39   0.0000618   0.0107041  -0.0023689   0.0000000   0.0000489   0.0009351
   40   0.0000075  -0.0002886  -0.0003040   0.0000000   0.0000050  -0.0003553
   41  -0.0000000   0.0000000  -0.0000000   0.0000010  -0.0000000   0.0000000
   42   0.0000085  -0.0002886  -0.0003040   0.0000000   0.0000067  -0.0003553
   43   0.0000000   0.0000000   0.0000000   0.0017749   0.0000000   0.0000000
   44   0.0004178  -0.0000018   0.0000044   0.0000000   0.0017749   0.0000024
   45   0.0000108   0.0020714  -0.0031277   0.0000000   0.0000060   0.0018490
           25          26          27          28          29          30
    1   0.0019068  -0.0000000   0.0019068   0.0000000   0.0000051  -0.0073159
    2  -0.0031464   0.0000000  -0.0031464  -0.0000000  -0.0000089   0.0140882
    3  -0.0000000  -0.0000047   0.0000000   0.0115774   0.0000000  -0.0000000
    4   0.0000007  -0.0000000  -0.0000074   0.0000000   0.0115774   0.0000132
    5   0.0025686  -0.0000000   0.0025686   0.0000000   0.0000101  -0.0109469
    6  -0.0007790   0.0000000  -0.0007790   0.0000000  -0.0000065   0.0068511
    7  -0.0000000  -0.0000018   0.0000000   0.0045656   0.0000000   0.0000000
    8   0.0000009  -0.0000000  -0.0000023   0.0000000   0.0045656   0.0000032
    9  -0.0001472   0.0000000  -0.0001472   0.0000000   0.0000066   0.0000905
   10   0.0002566  -0.0000000   0.0002566   0.0000000   0.0000004  -0.0007468
   11   0.0000000  -0.0000000   0.0000000   0.0000004  -0.0000000  -0.0000000
   12   0.0002566  -0.0000000   0.0002566   0.0000000   0.0000010  -0.0007468
   13   0.0000000   0.0000006  -0.0000000  -0.0012899  -0.0000000  -0.0000000
   14   0.0000010   0.0000000   0.0000019  -0.0000000  -0.0012899  -0.0000004
   15  -0.0001567   0.0000000  -0.0001567   0.0000000  -0.0000006  -0.0003952
   16  -0.0069871  -0.0000000  -0.0069871   0.0000000  -0.0000011  -0.0049445
   17  -0.0032764   0.0000000  -0.0032764  -0.0000000   0.0000003  -0.0052655
   18  -0.0000000  -0.0000087   0.0000000   0.0207052   0.0000000  -0.0000000
   19  -0.0000037  -0.0000000  -0.0000189   0.0000000   0.0207052   0.0000012
   20  -0.0034259   0.0000000  -0.0034259  -0.0000000  -0.0000031   0.0230284
   21  -0.0020637   0.0000000  -0.0020637  -0.0000000   0.0000100  -0.0135794
   22  -0.0000000  -0.0000055   0.0000000   0.0128833   0.0000000   0.0000000
   23  -0.0000032  -0.0000000  -0.0000127   0.0000000   0.0128833   0.0000015
   24  -0.0014188   0.0000000  -0.0014188  -0.0000000   0.0000011   0.0109894
   25   0.0001712  -0.0000000   0.0001712  -0.0000000  -0.0000000  -0.0002115
   26  -0.0000000   0.0000000  -0.0000000  -0.0000006  -0.0000000   0.0000000
   27   0.0001712  -0.0000000   0.0001712   0.0000000  -0.0000010  -0.0002115
   28  -0.0000000  -0.0000006   0.0000000   0.0013307   0.0000000  -0.0000000
   29  -0.0000000  -0.0000000  -0.0000010   0.0000000   0.0013307  -0.0000002
   30  -0.0002115   0.0000000  -0.0002115  -0.0000000  -0.0000002   0.0019570
   31   0.0004434   0.0000000   0.0004434   0.0000000  -0.0000019   0.0020244
   32  -0.0002854  -0.0000000  -0.0002854   0.0000000   0.0000042  -0.0021554
   33   0.0000000   0.0000006   0.0000000  -0.0004178  -0.0000000  -0.0000000
   34   0.0000075   0.0000000   0.0000085  -0.0000000  -0.0004178   0.0000108
   35   0.0002886   0.0000000   0.0002886   0.0000000  -0.0000018  -0.0020714
   36  -0.0003040   0.0000000  -0.0003040  -0.0000000  -0.0000044  -0.0031277
   37   0.0000000   0.0000010  -0.0000000  -0.0017749  -0.0000000  -0.0000000
   38   0.0000050   0.0000000   0.0000067  -0.0000000  -0.0017749   0.0000060
   39   0.0003553   0.0000000   0.0003553   0.0000000   0.0000024  -0.0018490
   40   0.0000282  -0.0000000   0.0000282   0.0000000   0.0000004  -0.0001006
   41  -0.0000000   0.0000000  -0.0000000  -0.0000001  -0.0000000   0.0000000
   42   0.0000282  -0.0000000   0.0000282   0.0000000   0.0000002  -0.0001006
   43  -0.0000000   0.0000001  -0.0000000  -0.0003315   0.0000000   0.0000000
   44  -0.0000004   0.0000000  -0.0000002   0.0000000  -0.0003315  -0.0000007
   45  -0.0001006  -0.0000000  -0.0001006   0.0000000   0.0000007   0.0006057
           31          32          33          34          35          36
    1   0.0079144  -0.0168739  -0.0000000   0.0000362   0.0648653   0.0015401
    2  -0.0107232   0.0212104  -0.0000000  -0.0000768  -0.1420371  -0.0279352
    3   0.0000000  -0.0000000   0.1412993   0.0000000   0.0000000  -0.0000000
    4  -0.0000103   0.0000270   0.0000000   0.1412993  -0.0000896  -0.0000008
    5  -0.0244149   0.0544828  -0.0000000  -0.0000879  -0.1819496  -0.0118284
    6   0.0089431  -0.0288611   0.0000000  -0.0000629  -0.0677223  -0.0546732
    7   0.0000000  -0.0000000   0.0557218   0.0000000  -0.0000000  -0.0000000
    8   0.0000006  -0.0000010   0.0000000   0.0557218  -0.0000150  -0.0000056
    9  -0.0022797  -0.0064198   0.0000000  -0.0001427   0.0024284  -0.0053550
   10   0.0028083  -0.0060595  -0.0000000   0.0000028   0.0077127  -0.0036802
   11  -0.0000000   0.0000000   0.0000047  -0.0000000  -0.0000000   0.0000000
   12   0.0028083  -0.0060595  -0.0000000   0.0000109   0.0077127  -0.0036802
   13   0.0000000  -0.0000000   0.0272686   0.0000000   0.0000000   0.0000000
   14  -0.0000056   0.0000091   0.0000000   0.0272685  -0.0000207   0.0000227
   15  -0.0085811   0.0137699   0.0000000  -0.0000083   0.0038456   0.0160750
   16   0.0007816   0.0004348   0.0000000   0.0000061  -0.0059763  -0.0110162
   17   0.0004348  -0.0007224  -0.0000000   0.0000109   0.0141330   0.0162511
   18   0.0000000   0.0000000  -0.0994716  -0.0000000   0.0000000  -0.0000000
   19   0.0000061   0.0000109  -0.0000000  -0.0994716   0.0000145  -0.0001547
   20   0.0059763  -0.0141330  -0.0000000  -0.0000145   0.0467227  -0.0000383
   21  -0.0110162   0.0162510  -0.0000000  -0.0001547   0.0000383   0.0296112
   22   0.0000000   0.0000000  -0.0871522  -0.0000000   0.0000000  -0.0000000
   23   0.0000059   0.0000054  -0.0000000  -0.0871521   0.0000262  -0.0001040
   24  -0.0005362   0.0004277  -0.0000000  -0.0000618   0.0107041   0.0023689
   25   0.0004434  -0.0002854   0.0000000   0.0000075   0.0002886  -0.0003040
   26   0.0000000  -0.0000000   0.0000006   0.0000000   0.0000000   0.0000000
   27   0.0004434  -0.0002854   0.0000000   0.0000085   0.0002886  -0.0003040
   28   0.0000000   0.0000000  -0.0004178  -0.0000000   0.0000000  -0.0000000
   29  -0.0000019   0.0000042  -0.0000000  -0.0004178  -0.0000018  -0.0000044
   30   0.0020244  -0.0021554  -0.0000000   0.0000108  -0.0020714  -0.0031277
   31   1.0392615  -0.0930517   0.0000000  -0.0000152  -0.0251683  -0.1119828
   32  -0.0930517   0.2606837  -0.0000000   0.0000177   0.0526481   0.2838142
   33   0.0000000  -0.0000000   0.3470749  -0.0000000  -0.0000000   0.0000000
   34  -0.0000152   0.0000177  -0.0000000   0.3470749  -0.0000598   0.0001729
   35  -0.0251683   0.0526481  -0.0000000  -0.0000598   0.2967515   0.1596978
   36  -0.1119828   0.2838142   0.0000000   0.0001729   0.1596978   0.3462855
   37  -0.0000000  -0.0000000   0.2227274  -0.0000000   0.0000000   0.0000000
   38  -0.0000130   0.0000149  -0.0000000   0.2227274  -0.0000600   0.0001156
   39  -0.0215418   0.0422255   0.0000000  -0.0000774   0.1384689   0.0921642
   40  -0.0069871  -0.0032764  -0.0000000  -0.0000037   0.0034259  -0.0020637
   41   0.0000000  -0.0000000  -0.0000087   0.0000000  -0.0000000  -0.0000000
   42  -0.0069871  -0.0032764  -0.0000000  -0.0000189   0.0034259  -0.0020637
   43  -0.0000000   0.0000000  -0.0207052  -0.0000000   0.0000000   0.0000000
   44   0.0000011  -0.0000003  -0.0000000  -0.0207052  -0.0000031  -0.0000100
   45  -0.0049445  -0.0052655  -0.0000000   0.0000012  -0.0230284  -0.0135794
           37          38          39          40          41          42
    1   0.0000000   0.0000173   0.0347363   0.0019068  -0.0000000   0.0019068
    2  -0.0000000  -0.0000351  -0.0705525  -0.0031464   0.0000000  -0.0031464
    3   0.0773685  -0.0000000   0.0000000   0.0000000  -0.0000047   0.0000000
    4  -0.0000000   0.0773685  -0.0000406   0.0000007   0.0000000  -0.0000074
    5  -0.0000000  -0.0000401  -0.0714340  -0.0025686   0.0000000  -0.0025686
    6   0.0000000  -0.0000323  -0.0349411  -0.0007790   0.0000000  -0.0007790
    7   0.0305105   0.0000000  -0.0000000   0.0000000  -0.0000018   0.0000000
    8   0.0000000   0.0305105  -0.0000062   0.0000009   0.0000000  -0.0000023
    9   0.0000000  -0.0000995   0.0004002   0.0001472   0.0000000   0.0001472
   10  -0.0000000   0.0000010   0.0036534   0.0002566  -0.0000000   0.0002566
   11   0.0000025  -0.0000000  -0.0000000  -0.0000000  -0.0000000  -0.0000000
   12  -0.0000000   0.0000054   0.0036533   0.0002566  -0.0000000   0.0002566
   13   0.0189229   0.0000000  -0.0000000  -0.0000000  -0.0000006  -0.0000000
   14   0.0000000   0.0189229  -0.0000145  -0.0000010   0.0000000  -0.0000019
   15   0.0000000  -0.0000043   0.0023606  -0.0001567  -0.0000000  -0.0001567
   16   0.0000000   0.0000059   0.0005362   0.0004434   0.0000000   0.0004434
   17  -0.0000000   0.0000054  -0.0004277  -0.0002854  -0.0000000  -0.0002854
   18  -0.0871522  -0.0000000   0.0000000   0.0000000   0.0000006   0.0000000
   19  -0.0000000  -0.0871521   0.0000618   0.0000075  -0.0000000   0.0000085
   20  -0.0000000  -0.0000262   0.0107041  -0.0002886   0.0000000  -0.0002886
   21  -0.0000000  -0.0001040  -0.0023689  -0.0003040  -0.0000000  -0.0003040
   22  -0.0704029  -0.0000000   0.0000000   0.0000000   0.0000010   0.0000000
   23  -0.0000000  -0.0704028   0.0000489   0.0000050  -0.0000000   0.0000067
   24  -0.0000000  -0.0000489   0.0009351  -0.0003553   0.0000000  -0.0003553
   25   0.0000000   0.0000050   0.0003553   0.0000282  -0.0000000   0.0000282
   26   0.0000010   0.0000000   0.0000000  -0.0000000   0.0000000  -0.0000000
   27  -0.0000000   0.0000067   0.0003553   0.0000282  -0.0000000   0.0000282
   28  -0.0017749  -0.0000000   0.0000000   0.0000000  -0.0000001   0.0000000
   29  -0.0000000  -0.0017749   0.0000024   0.0000004  -0.0000000   0.0000002
   30  -0.0000000   0.0000060  -0.0018490  -0.0001006   0.0000000  -0.0001006
   31  -0.0000000  -0.0000130  -0.0215418  -0.0069871   0.0000000  -0.0069871
   32  -0.0000000   0.0000149   0.0422255  -0.0032764  -0.0000000  -0.0032764
   33   0.2227274  -0.0000000   0.0000000  -0.0000000  -0.0000087  -0.0000000
   34  -0.0000000   0.2227274  -0.0000774  -0.0000037   0.0000000  -0.0000189
   35   0.0000000  -0.0000600   0.1384689   0.0034259  -0.0000000   0.0034259
   36   0.0000000   0.0001156   0.0921642  -0.0020637  -0.0000000  -0.0020637
   37   0.1446371  -0.0000000   0.0000000  -0.0000000  -0.0000055  -0.0000000
   38  -0.0000000   0.1446371  -0.0000619  -0.0000032   0.0000000  -0.0000127
   39   0.0000000  -0.0000619   0.0664866   0.0014188  -0.0000000   0.0014188
   40  -0.0000000  -0.0000032   0.0014188   0.0001712  -0.0000000   0.0001712
   41  -0.0000055   0.0000000  -0.0000000  -0.0000000   0.0000000  -0.0000000
   42  -0.0000000  -0.0000127   0.0014188   0.0001712  -0.0000000   0.0001712
   43  -0.0128833  -0.0000000  -0.0000000   0.0000000   0.0000006   0.0000000
   44  -0.0000000  -0.0128833   0.0000011   0.0000000  -0.0000000   0.0000010
   45  -0.0000000   0.0000015  -0.0109894  -0.0002115   0.0000000  -0.0002115
           43          44          45
    1   0.0000000  -0.0000051  -0.0073159
    2   0.0000000   0.0000089   0.0140882
    3  -0.0115774  -0.0000000  -0.0000000
    4  -0.0000000  -0.0115774   0.0000132
    5  -0.0000000   0.0000101   0.0109469
    6  -0.0000000   0.0000065   0.0068511
    7  -0.0045656  -0.0000000   0.0000000
    8  -0.0000000  -0.0045656   0.0000032
    9  -0.0000000   0.0000066  -0.0000905
   10   0.0000000  -0.0000004  -0.0007468
   11  -0.0000004   0.0000000   0.0000000
   12   0.0000000  -0.0000010  -0.0007468
   13  -0.0012899  -0.0000000  -0.0000000
   14  -0.0000000  -0.0012899   0.0000004
   15  -0.0000000   0.0000006  -0.0003952
   16   0.0000000   0.0000019   0.0020244
   17  -0.0000000  -0.0000042  -0.0021554
   18   0.0004178   0.0000000   0.0000000
   19   0.0000000   0.0004178   0.0000108
   20   0.0000000  -0.0000018   0.0020714
   21   0.0000000   0.0000044  -0.0031277
   22   0.0017749   0.0000000   0.0000000
   23   0.0000000   0.0017749   0.0000060
   24   0.0000000   0.0000024   0.0018490
   25  -0.0000000  -0.0000004  -0.0001006
   26   0.0000001   0.0000000  -0.0000000
   27  -0.0000000  -0.0000002  -0.0001006
   28  -0.0003315   0.0000000   0.0000000
   29   0.0000000  -0.0003315   0.0000007
   30   0.0000000  -0.0000007   0.0006057
   31  -0.0000000   0.0000011  -0.0049445
   32   0.0000000  -0.0000003  -0.0052655
   33  -0.0207052  -0.0000000  -0.0000000
   34  -0.0000000  -0.0207052   0.0000012
   35   0.0000000  -0.0000031  -0.0230284
   36   0.0000000  -0.0000100  -0.0135794
   37  -0.0128833  -0.0000000  -0.0000000
   38  -0.0000000  -0.0128833   0.0000015
   39  -0.0000000   0.0000011  -0.0109894
   40   0.0000000   0.0000000  -0.0002115
   41   0.0000006  -0.0000000   0.0000000
   42   0.0000000   0.0000010  -0.0002115
   43   0.0013307   0.0000000   0.0000000
   44   0.0000000   0.0013307   0.0000002
   45   0.0000000   0.0000002   0.0019570
 SCF   energy in the final basis set = -188.5809384645
 Total energy in the final basis set = -188.5809384645
 Analysis of SCF Wavefunction
 
 --------------------------------------------------------------
 
                    Orbital Energies (a.u.)
 --------------------------------------------------------------
 
 Alpha MOs
 -- Occupied --
-19.237 -19.237 -10.385  -1.161  -1.120  -0.562  -0.517  -0.513
 -0.513  -0.370  -0.370
 -- Virtual --
  0.030   0.030   0.084   0.366   0.473   0.473   0.584   0.735
  0.782   0.874   0.874   1.038   1.042   1.042   1.377   1.394
  1.394   1.406   1.406   1.726   1.726   1.834   2.028   2.028
  2.121   2.121   2.721   2.915   2.954   2.954   3.049   3.742
  4.389   4.450
 --------------------------------------------------------------
 

                        RESTRICTED (RHF) MOLECULAR ORBITAL COEFFICIENTS
                         1         2         3         4         5         6
 eigenvalues:        -19.237   -19.237   -10.385    -1.161    -1.120    -0.562
   1  C     s       -0.00014  -0.00000   0.99281  -0.15673  -0.00000  -0.13528
   2  C     s        0.00016   0.00000   0.04954   0.30205   0.00000   0.31499
   3  C     px       0.00000   0.00000  -0.00000  -0.00000  -0.00000  -0.00000
   4  C     py      -0.00000  -0.00000   0.00000   0.00009   0.00000  -0.00002
   5  C     pz       0.00000  -0.00015  -0.00000  -0.00000   0.33640  -0.00000
   6  C     s       -0.00536  -0.00002  -0.00075   0.03944   0.00000   0.18995
   7  C     px       0.00000  -0.00000   0.00000   0.00000  -0.00000   0.00000
   8  C     py      -0.00000  -0.00000   0.00000  -0.00003  -0.00000  -0.00004
   9  C     pz       0.00002  -0.00730  -0.00000   0.00000  -0.01924   0.00000
  10  C     dxx     -0.00005  -0.00000  -0.01043  -0.02961  -0.00000  -0.01209
  11  C     dxy      0.00000  -0.00000  -0.00000  -0.00000   0.00000  -0.00000
  12  C     dyy     -0.00005  -0.00000  -0.01043  -0.02961  -0.00000  -0.01209
  13  C     dxz      0.00000  -0.00000  -0.00000  -0.00000  -0.00000  -0.00000
  14  C     dyz      0.00000  -0.00000  -0.00000  -0.00000   0.00003  -0.00000
  15  C     dzz     -0.00321  -0.00001  -0.00633   0.03058   0.00000  -0.02326
  16  O 1   s        0.70413  -0.69972  -0.00027  -0.13476   0.14689   0.09488
  17  O 1   s        0.01860  -0.01739   0.00010   0.29113  -0.32541  -0.21186
  18  O 1   px       0.00000  -0.00000   0.00000  -0.00000   0.00000  -0.00000
  19  O 1   py      -0.00000   0.00000   0.00000  -0.00004   0.00006  -0.00014
  20  O 1   pz       0.00165  -0.00082  -0.00046   0.12569  -0.13006   0.33047
  21  O 1   s        0.00969  -0.01426  -0.00324   0.26538  -0.26983  -0.34266
  22  O 1   px      -0.00000   0.00000  -0.00000  -0.00000   0.00000  -0.00000
  23  O 1   py      -0.00000   0.00000   0.00000  -0.00001   0.00002  -0.00007
  24  O 1   pz       0.00195  -0.00178  -0.00294   0.05385  -0.02205   0.17281
  25  O 1   dxx     -0.00579   0.00617   0.00034  -0.00769   0.00533  -0.00267
  26  O 1   dxy      0.00000  -0.00000  -0.00000   0.00000  -0.00000   0.00000
  27  O 1   dyy     -0.00579   0.00617   0.00034  -0.00769   0.00533  -0.00267
  28  O 1   dxz     -0.00000   0.00000  -0.00000  -0.00000   0.00000  -0.00000
  29  O 1   dyz     -0.00000   0.00000   0.00000  -0.00000   0.00001  -0.00002
  30  O 1   dzz     -0.00434   0.00591  -0.00093   0.01189  -0.00721   0.03347
  31  O 2   s        0.69994   0.70392  -0.00027  -0.13476  -0.14689   0.09488
  32  O 2   s        0.01850   0.01750   0.00010   0.29112   0.32541  -0.21186
  33  O 2   px       0.00000   0.00000  -0.00000  -0.00000  -0.00000  -0.00000
  34  O 2   py      -0.00000  -0.00000   0.00000  -0.00004  -0.00006  -0.00014
  35  O 2   pz      -0.00164  -0.00083   0.00046  -0.12569  -0.13006  -0.33047
  36  O 2   s        0.00961   0.01432  -0.00324   0.26538   0.26983  -0.34266
  37  O 2   px      -0.00000   0.00000  -0.00000   0.00000   0.00000  -0.00000
  38  O 2   py      -0.00000  -0.00000   0.00000  -0.00001  -0.00002  -0.00007
  39  O 2   pz      -0.00194  -0.00179   0.00294  -0.05385  -0.02205  -0.17281
  40  O 2   dxx     -0.00576  -0.00620   0.00034  -0.00769  -0.00533  -0.00267
  41  O 2   dxy      0.00000   0.00000   0.00000  -0.00000  -0.00000   0.00000
  42  O 2   dyy     -0.00576  -0.00620   0.00034  -0.00769  -0.00533  -0.00267
  43  O 2   dxz      0.00000   0.00000   0.00000   0.00000   0.00000  -0.00000
  44  O 2   dyz      0.00000   0.00000  -0.00000   0.00000   0.00001   0.00002
  45  O 2   dzz     -0.00430  -0.00594  -0.00093   0.01189   0.00721   0.03347
                         7         8         9        10        11        12
 eigenvalues:         -0.517    -0.513    -0.513    -0.370    -0.370     0.030
   1  C     s        0.00000  -0.00000   0.00003  -0.00000  -0.00000   0.00038
   2  C     s       -0.00000  -0.00000  -0.00006  -0.00000   0.00000  -0.00038
   3  C     px       0.00000   0.40158   0.00000   0.00000   0.00000   0.00001
   4  C     py       0.00000  -0.00000   0.40158   0.00000   0.00000   0.60012
   5  C     pz      -0.35122   0.00000   0.00000   0.00000   0.00002  -0.00000
   6  C     s       -0.00000   0.00000  -0.00010  -0.00000   0.00000  -0.00709
   7  C     px       0.00000   0.15837   0.00000   0.00000   0.00000   0.00001
   8  C     py       0.00000  -0.00000   0.15837   0.00000   0.00000   0.59537
   9  C     pz      -0.00020   0.00000   0.00000  -0.00000  -0.00030  -0.00000
  10  C     dxx      0.00000   0.00000  -0.00000  -0.00000  -0.00000  -0.00007
  11  C     dxy     -0.00000   0.00001  -0.00000   0.00000   0.00000  -0.00000
  12  C     dyy      0.00000  -0.00000   0.00002  -0.00000   0.00000  -0.00011
  13  C     dxz      0.00000  -0.00000   0.00000   0.05771   0.00000   0.00000
  14  C     dyz     -0.00000   0.00000  -0.00000  -0.00000   0.05771   0.00000
  15  C     dzz      0.00000   0.00000  -0.00003  -0.00000   0.00000   0.00018
  16  O 1   s        0.07148  -0.00000   0.00001   0.00000   0.00001  -0.00024
  17  O 1   s       -0.15654   0.00000  -0.00001  -0.00000   0.00002   0.00056
  18  O 1   px       0.00000   0.35185   0.00000  -0.47252  -0.00000  -0.00001
  19  O 1   py      -0.00022  -0.00000   0.35185   0.00000  -0.47252  -0.37641
  20  O 1   pz       0.39347  -0.00000   0.00021  -0.00000  -0.00028   0.00096
  21  O 1   s       -0.29211   0.00000  -0.00008  -0.00000  -0.00024   0.00259
  22  O 1   px       0.00000   0.19266   0.00000  -0.32790  -0.00000  -0.00001
  23  O 1   py      -0.00012  -0.00000   0.19266   0.00000  -0.32790  -0.39259
  24  O 1   pz       0.18227  -0.00000   0.00010  -0.00000  -0.00024   0.00162
  25  O 1   dxx     -0.00221  -0.00000   0.00000   0.00000   0.00001  -0.00007
  26  O 1   dxy      0.00000  -0.00001  -0.00000   0.00001   0.00000  -0.00000
  27  O 1   dyy     -0.00221   0.00000  -0.00002  -0.00000   0.00003  -0.00008
  28  O 1   dxz      0.00000   0.02883   0.00000  -0.02235  -0.00000   0.00000
  29  O 1   dyz     -0.00002  -0.00000   0.02883  -0.00000  -0.02235   0.01482
  30  O 1   dzz      0.02426  -0.00000   0.00003  -0.00000  -0.00000   0.00010
  31  O 2   s       -0.07148   0.00000   0.00001   0.00000  -0.00001  -0.00024
  32  O 2   s        0.15655  -0.00000  -0.00001  -0.00000  -0.00002   0.00056
  33  O 2   px       0.00000   0.35185   0.00000   0.47252   0.00000  -0.00001
  34  O 2   py       0.00022  -0.00000   0.35185  -0.00000   0.47252  -0.37641
  35  O 2   pz       0.39347  -0.00000  -0.00021  -0.00000  -0.00028  -0.00096
  36  O 2   s        0.29211  -0.00000  -0.00008   0.00000   0.00024   0.00259
  37  O 2   px       0.00000   0.19266   0.00000   0.32790   0.00000  -0.00001
  38  O 2   py       0.00012  -0.00000   0.19266  -0.00000   0.32790  -0.39259
  39  O 2   pz       0.18227  -0.00000  -0.00010  -0.00000  -0.00024  -0.00162
  40  O 2   dxx      0.00221   0.00000   0.00000  -0.00000  -0.00001  -0.00007
  41  O 2   dxy     -0.00000  -0.00001   0.00000  -0.00001   0.00000  -0.00000
  42  O 2   dyy      0.00221  -0.00000  -0.00002  -0.00000  -0.00003  -0.00008
  43  O 2   dxz     -0.00000  -0.02883  -0.00000  -0.02235  -0.00000  -0.00000
  44  O 2   dyz     -0.00002   0.00000  -0.02883  -0.00000  -0.02235  -0.01482
  45  O 2   dzz     -0.02426   0.00000   0.00003  -0.00000   0.00000   0.00010
                        13        14        15        16        17        18
 eigenvalues:          0.030     0.084     0.366     0.473     0.473     0.584
   1  C     s       -0.00000  -0.09955  -0.00000   0.00000  -0.00002   0.12876
   2  C     s        0.00000   0.06384   0.00000  -0.00000   0.00046  -1.11264
   3  C     px       0.60012  -0.00000  -0.00000  -0.92563  -0.00000   0.00000
   4  C     py      -0.00001   0.00221   0.00000   0.00000  -0.92563  -0.00021
   5  C     pz       0.00000   0.00000   0.06573  -0.00000  -0.00000  -0.00000
   6  C     s        0.00000   2.23062  -0.00000   0.00000  -0.00018   2.06606
   7  C     px       0.59538  -0.00000   0.00000   1.31072   0.00000  -0.00000
   8  C     py      -0.00001   0.00275  -0.00000  -0.00000   1.31072   0.00043
   9  C     pz       0.00000  -0.00000   4.14239  -0.00000   0.00000   0.00000
  10  C     dxx      0.00000   0.02106   0.00000  -0.00000   0.00003  -0.14984
  11  C     dxy     -0.00003   0.00000   0.00000  -0.00002   0.00000   0.00000
  12  C     dyy      0.00000   0.02106   0.00000  -0.00000  -0.00000  -0.14984
  13  C     dxz      0.00000  -0.00000   0.00000   0.00000  -0.00000  -0.00000
  14  C     dyz      0.00000   0.00000   0.00004  -0.00000   0.00000   0.00000
  15  C     dzz     -0.00000  -0.04075  -0.00000   0.00000   0.00010   0.30323
  16  O 1   s        0.00000   0.07599  -0.10254   0.00000   0.00001  -0.01046
  17  O 1   s       -0.00000  -0.17467   0.02540   0.00000   0.00000   0.01191
  18  O 1   px      -0.37641   0.00000  -0.00000  -0.11838   0.00000   0.00000
  19  O 1   py       0.00001  -0.00122  -0.00017   0.00000  -0.11838  -0.00013
  20  O 1   pz      -0.00000  -0.29821  -0.09506   0.00000  -0.00003   0.37856
  21  O 1   s       -0.00000  -0.86807   3.00085  -0.00000  -0.00027  -0.53662
  22  O 1   px      -0.39260   0.00000  -0.00000  -0.13964  -0.00000  -0.00000
  23  O 1   py       0.00001  -0.00129  -0.00070  -0.00000  -0.13964   0.00018
  24  O 1   pz      -0.00000  -0.55870   0.87532  -0.00000  -0.00012  -0.44920
  25  O 1   dxx      0.00000   0.02166  -0.08160   0.00000   0.00002   0.04123
  26  O 1   dxy     -0.00001  -0.00000   0.00000   0.00002  -0.00000   0.00000
  27  O 1   dyy      0.00000   0.02166  -0.08160   0.00000   0.00005   0.04123
  28  O 1   dxz      0.01482  -0.00000  -0.00000  -0.06166  -0.00000   0.00000
  29  O 1   dyz     -0.00000   0.00009  -0.00003   0.00000  -0.06166   0.00010
  30  O 1   dzz     -0.00000  -0.03124  -0.00830  -0.00000  -0.00007  -0.22602
  31  O 2   s        0.00000   0.07599   0.10254  -0.00000   0.00001  -0.01046
  32  O 2   s       -0.00000  -0.17467  -0.02540   0.00000   0.00000   0.01191
  33  O 2   px      -0.37641   0.00000  -0.00000  -0.11838   0.00000   0.00000
  34  O 2   py       0.00001  -0.00122   0.00017   0.00000  -0.11838  -0.00013
  35  O 2   pz       0.00000   0.29821  -0.09506  -0.00000   0.00003  -0.37856
  36  O 2   s       -0.00000  -0.86807  -3.00085   0.00000  -0.00027  -0.53662
  37  O 2   px      -0.39260   0.00000  -0.00000  -0.13964  -0.00000   0.00000
  38  O 2   py       0.00001  -0.00129   0.00070  -0.00000  -0.13964   0.00018
  39  O 2   pz       0.00000   0.55870   0.87532  -0.00000   0.00012   0.44920
  40  O 2   dxx      0.00000   0.02166   0.08160   0.00000   0.00002   0.04123
  41  O 2   dxy     -0.00001   0.00000   0.00000   0.00002   0.00000  -0.00000
  42  O 2   dyy      0.00000   0.02166   0.08160   0.00000   0.00005   0.04123
  43  O 2   dxz     -0.01482   0.00000   0.00000   0.06166   0.00000  -0.00000
  44  O 2   dyz      0.00000  -0.00009  -0.00003  -0.00000   0.06166  -0.00010
  45  O 2   dzz     -0.00000  -0.03124   0.00830  -0.00000  -0.00007  -0.22602
                        19        20        21        22        23        24
 eigenvalues:          0.735     0.782     0.874     0.874     1.038     1.042
   1  C     s        0.00000   0.05262   0.00000   0.00000   0.00000  -0.00000
   2  C     s       -0.00000   1.07542   0.00000   0.00000  -0.00000  -0.00000
   3  C     px       0.00000   0.00000   0.00000   0.00000  -0.00000   0.18130
   4  C     py      -0.00000   0.00026   0.00000   0.00000  -0.00000   0.00000
   5  C     pz       1.09232   0.00000   0.00000   0.00053   0.55433   0.00000
   6  C     s        0.00000   0.01657   0.00000   0.00000   0.00000  -0.00000
   7  C     px       0.00000  -0.00000  -0.00000   0.00000   0.00000  -1.05025
   8  C     py       0.00000   0.00001   0.00000  -0.00000   0.00000  -0.00000
   9  C     pz      -0.19855   0.00000   0.00000  -0.00016   0.95284   0.00000
  10  C     dxx     -0.00000  -0.01377  -0.00000  -0.00000  -0.00000   0.00000
  11  C     dxy      0.00000  -0.00000  -0.00000  -0.00000   0.00000   0.00008
  12  C     dyy     -0.00000  -0.01377  -0.00000  -0.00000  -0.00000   0.00000
  13  C     dxz     -0.00000  -0.00000   0.13256   0.00000  -0.00000   0.00000
  14  C     dyz     -0.00008  -0.00000  -0.00000   0.13256  -0.00069   0.00000
  15  C     dzz      0.00000   0.34395   0.00000   0.00000   0.00000  -0.00000
  16  O 1   s       -0.04524   0.01437   0.00000  -0.00003  -0.05032  -0.00000
  17  O 1   s        0.24990  -0.37802  -0.00000  -0.00028   0.01925   0.00000
  18  O 1   px      -0.00000   0.00000  -0.64829   0.00000   0.00000  -0.64334
  19  O 1   py       0.00007   0.00001   0.00000  -0.64829  -0.00012  -0.00000
  20  O 1   pz      -0.01089   0.32746   0.00000   0.00018   0.73843   0.00000
  21  O 1   s        0.12028   0.25526   0.00000   0.00075   1.01720   0.00000
  22  O 1   px       0.00000  -0.00000   0.81150  -0.00000  -0.00000   1.11582
  23  O 1   py      -0.00048   0.00027  -0.00000   0.81150  -0.00059   0.00000
  24  O 1   pz       0.86173  -1.00499  -0.00000   0.00028  -0.40429  -0.00000
  25  O 1   dxx      0.09618  -0.12785  -0.00000  -0.00006  -0.04199  -0.00000
  26  O 1   dxy      0.00000  -0.00000  -0.00001  -0.00000   0.00000   0.00007
  27  O 1   dyy      0.09618  -0.12785  -0.00000  -0.00008  -0.04199  -0.00000
  28  O 1   dxz     -0.00000   0.00000  -0.00753  -0.00000   0.00000  -0.07428
  29  O 1   dyz      0.00011   0.00005  -0.00000  -0.00753   0.00032  -0.00000
  30  O 1   dzz     -0.05889  -0.19827  -0.00000  -0.00021  -0.16280  -0.00000
  31  O 2   s        0.04524   0.01437   0.00000   0.00003   0.05032   0.00000
  32  O 2   s       -0.24990  -0.37802   0.00000   0.00028  -0.01925  -0.00000
  33  O 2   px       0.00000  -0.00000   0.64829   0.00000   0.00000  -0.64334
  34  O 2   py      -0.00007   0.00001   0.00000   0.64829   0.00012  -0.00000
  35  O 2   pz      -0.01089  -0.32746  -0.00000   0.00018   0.73843   0.00000
  36  O 2   s       -0.12028   0.25526  -0.00000  -0.00075  -1.01720  -0.00000
  37  O 2   px      -0.00000   0.00000  -0.81150  -0.00000  -0.00000   1.11582
  38  O 2   py       0.00048   0.00027  -0.00000  -0.81150   0.00059   0.00000
  39  O 2   pz       0.86173   1.00499   0.00000   0.00028  -0.40429  -0.00000
  40  O 2   dxx     -0.09618  -0.12785   0.00000   0.00006   0.04199   0.00000
  41  O 2   dxy     -0.00000  -0.00000   0.00001  -0.00000   0.00000   0.00007
  42  O 2   dyy     -0.09618  -0.12785   0.00000   0.00008   0.04199   0.00000
  43  O 2   dxz      0.00000   0.00000  -0.00753   0.00000  -0.00000   0.07428
  44  O 2   dyz      0.00011  -0.00005   0.00000  -0.00753   0.00032   0.00000
  45  O 2   dzz      0.05889  -0.19827   0.00000   0.00021   0.16280   0.00000
                        25        26        27        28        29        30
 eigenvalues:          1.042     1.377     1.394     1.394     1.406     1.406
   1  C     s        0.00004  -0.05071  -0.00000  -0.00000  -0.00000   0.00000
   2  C     s        0.00045  -0.39547  -0.00000  -0.00000  -0.00000   0.00000
   3  C     px      -0.00000  -0.00000   0.00000  -0.00015   0.00000  -0.00000
   4  C     py       0.18130   0.00002   0.00015   0.00000  -0.00000   0.00000
   5  C     pz       0.00000   0.00000  -0.00000  -0.00000  -0.00000   0.00076
   6  C     s        0.00073  -3.74169  -0.00002  -0.00000  -0.00000   0.00000
   7  C     px       0.00000   0.00000  -0.00000   0.00027  -0.00000   0.00000
   8  C     py      -1.05025  -0.00175  -0.00027  -0.00000   0.00000  -0.00000
   9  C     pz       0.00000  -0.00000   0.00000  -0.00000  -0.00000   0.00038
  10  C     dxx     -0.00016   0.15672   0.63517   0.00000   0.00000   0.00000
  11  C     dxy     -0.00000  -0.00000  -0.00000   0.73343  -0.00000   0.00000
  12  C     dyy     -0.00002   0.15673  -0.63516  -0.00000  -0.00000  -0.00000
  13  C     dxz      0.00000  -0.00000  -0.00000   0.00000   0.53550   0.00000
  14  C     dyz      0.00000   0.00000  -0.00000   0.00000  -0.00000   0.53550
  15  C     dzz      0.00027  -0.30765  -0.00000  -0.00000  -0.00000   0.00000
  16  O 1   s        0.00002  -0.06744  -0.00000  -0.00000   0.00000  -0.00004
  17  O 1   s        0.00039  -1.15700  -0.00001  -0.00000  -0.00000   0.00071
  18  O 1   px       0.00000   0.00000  -0.00000   0.00001   0.16927   0.00000
  19  O 1   py      -0.64334  -0.00030  -0.00001  -0.00000  -0.00000   0.16927
  20  O 1   pz      -0.00021  -0.06844  -0.00000  -0.00000  -0.00000   0.00094
  21  O 1   s       -0.00093   3.54057   0.00002   0.00000   0.00000  -0.00027
  22  O 1   px      -0.00000  -0.00000   0.00000  -0.00021   0.04308   0.00000
  23  O 1   py       1.11582   0.00037   0.00021   0.00000  -0.00000   0.04308
  24  O 1   pz      -0.00017   1.36554   0.00001   0.00000   0.00000  -0.00056
  25  O 1   dxx      0.00004  -0.21083   0.33573   0.00000   0.00000   0.00001
  26  O 1   dxy     -0.00000  -0.00000  -0.00000   0.38767   0.00028   0.00000
  27  O 1   dyy      0.00016  -0.21083  -0.33573  -0.00000  -0.00000   0.00050
  28  O 1   dxz      0.00000   0.00000   0.00000   0.00029  -0.42462  -0.00000
  29  O 1   dyz     -0.07428  -0.00008  -0.00029  -0.00000   0.00000  -0.42462
  30  O 1   dzz      0.00007  -0.39409  -0.00000  -0.00000   0.00000  -0.00026
  31  O 2   s        0.00002  -0.06744  -0.00000  -0.00000  -0.00000   0.00004
  32  O 2   s        0.00039  -1.15700  -0.00001  -0.00000   0.00000  -0.00071
  33  O 2   px       0.00000   0.00000   0.00000   0.00001  -0.16927  -0.00000
  34  O 2   py      -0.64334  -0.00030  -0.00001   0.00000   0.00000  -0.16927
  35  O 2   pz       0.00021   0.06844   0.00000  -0.00000  -0.00000   0.00094
  36  O 2   s       -0.00093   3.54057   0.00002   0.00000  -0.00000   0.00027
  37  O 2   px      -0.00000  -0.00000   0.00000  -0.00021  -0.04308  -0.00000
  38  O 2   py       1.11582   0.00037   0.00021   0.00000   0.00000  -0.04308
  39  O 2   pz       0.00017  -1.36554  -0.00001  -0.00000   0.00000  -0.00056
  40  O 2   dxx      0.00004  -0.21083   0.33573   0.00000   0.00000  -0.00001
  41  O 2   dxy      0.00000  -0.00000  -0.00000   0.38767  -0.00028  -0.00000
  42  O 2   dyy      0.00016  -0.21083  -0.33573  -0.00000   0.00000  -0.00050
  43  O 2   dxz     -0.00000  -0.00000   0.00000  -0.00029  -0.42462  -0.00000
  44  O 2   dyz      0.07428   0.00008   0.00029   0.00000   0.00000  -0.42462
  45  O 2   dzz      0.00007  -0.39409  -0.00000  -0.00000  -0.00000   0.00026
                        31        32        33        34        35        36
 eigenvalues:          1.726     1.726     1.834     2.028     2.028     2.121
   1  C     s       -0.00000  -0.00000  -0.00000   0.00000  -0.00000  -0.00017
   2  C     s       -0.00000  -0.00000  -0.00000   0.00000  -0.00000  -0.00027
   3  C     px      -0.00000  -0.00000   0.00000  -0.00000  -0.00122   0.00003
   4  C     py       0.00000  -0.00000  -0.00000  -0.00122   0.00000   0.49397
   5  C     pz      -0.00000   0.00000   0.13823  -0.00000   0.00000  -0.00000
   6  C     s       -0.00000   0.00000  -0.00000  -0.00000   0.00000   0.00081
   7  C     px       0.00000   0.00000  -0.00000  -0.00000  -0.00085   0.00003
   8  C     py      -0.00000   0.00000   0.00000  -0.00085   0.00000   0.42165
   9  C     pz      -0.00000   0.00000   5.29406  -0.00000   0.00000   0.00000
  10  C     dxx      0.00000  -0.00000   0.00000  -0.61484   0.00001  -0.00239
  11  C     dxy     -0.00000   0.00000  -0.00000   0.00002   0.70995   0.00000
  12  C     dyy     -0.00000  -0.00000   0.00000   0.61484  -0.00001   0.00136
  13  C     dxz      0.00000  -0.00002   0.00000  -0.00000  -0.00000  -0.00000
  14  C     dyz      0.00002   0.00000   0.00062  -0.00000  -0.00000   0.00000
  15  C     dzz      0.00000   0.00000  -0.00000  -0.00000   0.00000   0.00034
  16  O 1   s        0.00000  -0.00000  -0.07507  -0.00000  -0.00000   0.00001
  17  O 1   s        0.00000  -0.00000  -1.62890   0.00000  -0.00000  -0.00035
  18  O 1   px      -0.00000   0.00003  -0.00000  -0.00000  -0.00037   0.00001
  19  O 1   py      -0.00003  -0.00000   0.00040  -0.00037   0.00000   0.13912
  20  O 1   pz      -0.00000  -0.00000  -0.11556   0.00000  -0.00000  -0.00036
  21  O 1   s       -0.00000   0.00000   6.04796   0.00000   0.00000  -0.00006
  22  O 1   px       0.00000  -0.00004   0.00000   0.00000   0.00094  -0.00003
  23  O 1   py       0.00004   0.00000  -0.00137   0.00094  -0.00000  -0.43488
  24  O 1   pz      -0.00000   0.00000   1.40136  -0.00000   0.00000   0.00014
  25  O 1   dxx     -0.61250  -0.00001  -0.16785   0.52712  -0.00001   0.00103
  26  O 1   dxy      0.00002  -0.70725   0.00000  -0.00001  -0.60867  -0.00000
  27  O 1   dyy      0.61250   0.00001  -0.16785  -0.52712   0.00001  -0.00096
  28  O 1   dxz      0.00000  -0.00044  -0.00000   0.00000   0.00169  -0.00005
  29  O 1   dyz      0.00044   0.00000   0.00019   0.00169  -0.00000  -0.79182
  30  O 1   dzz      0.00000  -0.00000  -0.49339   0.00000  -0.00000  -0.00017
  31  O 2   s       -0.00000   0.00000   0.07507  -0.00000   0.00000   0.00001
  32  O 2   s       -0.00000   0.00000   1.62890   0.00000   0.00000  -0.00035
  33  O 2   px       0.00000  -0.00003  -0.00000  -0.00000  -0.00037   0.00001
  34  O 2   py       0.00003   0.00000  -0.00040  -0.00037   0.00000   0.13912
  35  O 2   pz      -0.00000  -0.00000  -0.11556  -0.00000   0.00000   0.00036
  36  O 2   s        0.00000  -0.00000  -6.04796   0.00000  -0.00000  -0.00006
  37  O 2   px      -0.00000   0.00004   0.00000   0.00000   0.00094  -0.00003
  38  O 2   py      -0.00004  -0.00000   0.00137   0.00094  -0.00000  -0.43488
  39  O 2   pz      -0.00000   0.00000   1.40136   0.00000   0.00000  -0.00014
  40  O 2   dxx      0.61250   0.00001   0.16785   0.52712  -0.00001   0.00103
  41  O 2   dxy     -0.00002   0.70725  -0.00000  -0.00001  -0.60867  -0.00000
  42  O 2   dyy     -0.61250  -0.00001   0.16785  -0.52712   0.00001  -0.00096
  43  O 2   dxz      0.00000  -0.00044   0.00000  -0.00000  -0.00169   0.00005
  44  O 2   dyz      0.00044   0.00000   0.00019  -0.00169   0.00000   0.79182
  45  O 2   dzz     -0.00000   0.00000   0.49339   0.00000   0.00000  -0.00017
                        37        38        39        40        41        42
 eigenvalues:          2.121     2.721     2.915     2.954     2.954     3.049
   1  C     s        0.00000  -0.25541  -0.00000  -0.00000   0.00000  -0.06070
   2  C     s        0.00000  -0.87015  -0.00000  -0.00000   0.00000   2.73185
   3  C     px       0.49398   0.00000  -0.00000  -0.00000  -0.00000   0.00000
   4  C     py      -0.00003  -0.00088  -0.00000   0.00000  -0.00000   0.00052
   5  C     pz       0.00000  -0.00000   1.80264   0.00000  -0.00489  -0.00000
   6  C     s       -0.00000  -1.15231  -0.00000  -0.00000   0.00000   1.52606
   7  C     px       0.42165   0.00000  -0.00000  -0.00000   0.00000  -0.00000
   8  C     py      -0.00003  -0.00092  -0.00000   0.00000  -0.00000   0.00011
   9  C     pz      -0.00000  -0.00000   1.75790   0.00000  -0.00597   0.00000
  10  C     dxx      0.00000  -0.61719  -0.00000   0.00000   0.00000  -1.15799
  11  C     dxy      0.00217   0.00000  -0.00000  -0.00000  -0.00000   0.00000
  12  C     dyy     -0.00000  -0.61719  -0.00000   0.00000   0.00000  -1.15799
  13  C     dxz      0.00000  -0.00000   0.00000   1.31907   0.00006   0.00000
  14  C     dyz     -0.00000  -0.00000   0.00411  -0.00006   1.31907  -0.00000
  15  C     dzz     -0.00000  -0.01623   0.00000  -0.00000   0.00000   1.07883
  16  O 1   s       -0.00000   0.00899  -0.03729  -0.00000   0.00001  -0.02673
  17  O 1   s        0.00000  -0.86421  -0.65744  -0.00000   0.00267   0.00182
  18  O 1   px       0.13912   0.00000  -0.00000   0.13710   0.00001  -0.00000
  19  O 1   py      -0.00001   0.00002   0.00041  -0.00001   0.13710   0.00031
  20  O 1   pz       0.00000  -0.24948   0.13544  -0.00000   0.00007  -0.61120
  21  O 1   s        0.00000   1.61162   2.74965   0.00000  -0.00838  -1.02106
  22  O 1   px      -0.43488  -0.00000   0.00000   0.30848   0.00001   0.00000
  23  O 1   py       0.00003   0.00021   0.00013  -0.00001   0.30848   0.00047
  24  O 1   pz      -0.00000   1.18926   1.32458   0.00000  -0.00390  -0.87218
  25  O 1   dxx     -0.00000  -0.29197  -0.48349  -0.00000   0.00113   0.18452
  26  O 1   dxy     -0.00115   0.00000   0.00000  -0.00044  -0.00000  -0.00000
  27  O 1   dyy      0.00000  -0.29197  -0.48349  -0.00000   0.00037   0.18452
  28  O 1   dxz     -0.79182  -0.00000   0.00000   0.82874   0.00004   0.00000
  29  O 1   dyz      0.00005   0.00033   0.00166  -0.00004   0.82873   0.00098
  30  O 1   dzz      0.00000   0.76068   0.97685   0.00000  -0.00226  -1.15717
  31  O 2   s       -0.00000   0.00899   0.03729   0.00000  -0.00001  -0.02673
  32  O 2   s        0.00000  -0.86421   0.65744   0.00000  -0.00267   0.00182
  33  O 2   px       0.13912   0.00000  -0.00000  -0.13710  -0.00001  -0.00000
  34  O 2   py      -0.00001   0.00002  -0.00041   0.00001  -0.13710   0.00031
  35  O 2   pz      -0.00000   0.24948   0.13544  -0.00000   0.00007   0.61120
  36  O 2   s        0.00000   1.61163  -2.74965  -0.00000   0.00838  -1.02105
  37  O 2   px      -0.43488  -0.00000   0.00000  -0.30848  -0.00001   0.00000
  38  O 2   py       0.00003   0.00021  -0.00013   0.00001  -0.30848   0.00047
  39  O 2   pz       0.00000  -1.18926   1.32458   0.00000  -0.00390   0.87218
  40  O 2   dxx     -0.00000  -0.29197   0.48349   0.00000  -0.00113   0.18452
  41  O 2   dxy     -0.00115  -0.00000   0.00000   0.00044   0.00000  -0.00000
  42  O 2   dyy      0.00000  -0.29197   0.48349   0.00000  -0.00037   0.18452
  43  O 2   dxz      0.79182  -0.00000   0.00000   0.82874   0.00004   0.00000
  44  O 2   dyz     -0.00005  -0.00033   0.00166  -0.00004   0.82873  -0.00098
  45  O 2   dzz      0.00000   0.76068  -0.97685  -0.00000   0.00226  -1.15717
                        43        44        45
 eigenvalues:          3.742     4.389     4.450
   1  C     s       -0.02262   0.49990  -0.00000
   2  C     s       -1.05550  -1.94949   0.00000
   3  C     px      -0.00000   0.00000   0.00000
   4  C     py      -0.00018   0.00049  -0.00000
   5  C     pz       0.00000  -0.00000   0.08609
   6  C     s       -3.10111   0.97240  -0.00000
   7  C     px       0.00000  -0.00000  -0.00000
   8  C     py      -0.00117   0.00033  -0.00000
   9  C     pz      -0.00000   0.00001   5.54655
  10  C     dxx      0.20026   1.28367  -0.00000
  11  C     dxy     -0.00000  -0.00000  -0.00000
  12  C     dyy      0.20026   1.28367  -0.00000
  13  C     dxz     -0.00000   0.00000  -0.00000
  14  C     dyz      0.00000  -0.00000  -0.00066
  15  C     dzz      0.49000   3.22132  -0.00000
  16  O 1   s       -0.37999   0.05923  -0.48686
  17  O 1   s       -0.36231  -0.19938  -0.90101
  18  O 1   px       0.00000  -0.00000  -0.00000
  19  O 1   py       0.00003   0.00032   0.00017
  20  O 1   pz      -0.27395  -0.63024  -0.20862
  21  O 1   s        4.36392  -1.51066   8.34892
  22  O 1   px      -0.00000   0.00000   0.00000
  23  O 1   py       0.00005   0.00039  -0.00160
  24  O 1   pz       1.19410  -1.00146   1.67026
  25  O 1   dxx     -1.37318   0.34159  -1.60142
  26  O 1   dxy      0.00000  -0.00000   0.00000
  27  O 1   dyy     -1.37318   0.34159  -1.60142
  28  O 1   dxz     -0.00000   0.00000   0.00000
  29  O 1   dyz      0.00003   0.00066  -0.00060
  30  O 1   dzz     -0.94318  -0.57794  -1.44129
  31  O 2   s       -0.37999   0.05923   0.48686
  32  O 2   s       -0.36231  -0.19938   0.90101
  33  O 2   px       0.00000  -0.00000  -0.00000
  34  O 2   py       0.00003   0.00032  -0.00017
  35  O 2   pz       0.27395   0.63024  -0.20862
  36  O 2   s        4.36392  -1.51068  -8.34891
  37  O 2   px      -0.00000   0.00000   0.00000
  38  O 2   py       0.00005   0.00039   0.00160
  39  O 2   pz      -1.19410   1.00146   1.67025
  40  O 2   dxx     -1.37318   0.34159   1.60142
  41  O 2   dxy     -0.00000   0.00000   0.00000
  42  O 2   dyy     -1.37318   0.34159   1.60142
  43  O 2   dxz      0.00000  -0.00000  -0.00000
  44  O 2   dyz     -0.00003  -0.00066  -0.00060
  45  O 2   dzz     -0.94318  -0.57794   1.44129
 
          Ground-State Mulliken Net Atomic Charges

     Atom                 Charge (a.u.)
  ----------------------------------------
      1 C                     0.719474
      2 O                    -0.359737
      3 O                    -0.359737
  ----------------------------------------
  Sum of atomic charges =    -0.000000

 -----------------------------------------------------------------
                    Cartesian Multipole Moments
 -----------------------------------------------------------------
    Charge (ESU x 10^10)
                 0.0000
    Dipole Moment (Debye)
         X      -0.0000      Y      -0.0011      Z      -0.0000
       Tot       0.0011
    Quadrupole Moments (Debye-Ang)
        XX     -14.4508     XY      -0.0000     YY     -14.4508
        XZ      -0.0000     YZ      -0.0000     ZZ     -18.9144
    Octopole Moments (Debye-Ang^2)
       XXX      -0.0000    XXY       0.0002    XYY      -0.0000
       YYY       0.0005    XXZ      -0.0000    XYZ       0.0000
       YYZ      -0.0000    XZZ      -0.0000    YZZ       0.0010
       ZZZ      -0.0000
    Hexadecapole Moments (Debye-Ang^3)
      XXXX     -10.3564   XXXY      -0.0000   XXYY      -3.4521
      XYYY      -0.0000   YYYY     -10.3564   XXXZ      -0.0000
      XXYZ      -0.0000   XYYZ      -0.0000   YYYZ      -0.0000
      XXZZ     -18.0712   XYZZ       0.0000   YYZZ     -18.0712
      XZZZ      -0.0000   YZZZ      -0.0000   ZZZZ    -100.4943
 -----------------------------------------------------------------
Created directory /home/eric/scratch/qchem/CO2/plots
Archival summary:
1\1\copper\SP\ProcedureUnspecified\6-31G**\21\eric\WedDec3115:34:552014WedDec3115:34:552014\0\\#,ProcedureUnspecified,6-31G**,\\0,1\C\O,1,1.16916\O,1,1.16916,2,179.958\\\@

 Total job time:  149.80s(wall), 122.40s(cpu) 
 Wed Dec 31 15:34:55 2014

        *************************************************************
        *                                                           *
        *  Thank you very much for using Q-Chem.  Have a nice day.  *
        *                                                           *
        *************************************************************


