This is a multi-thread run using 4 threads
/home/eric/opt/apps/qchem/trunk_intel_release_r17262_20141216/exe/qcprog.exe .CO2_cation_ROHF.in.26128.qcin.1 /home/eric/scratch/qchem/qchem26128/
                  Welcome to Q-Chem
     A Quantum Leap Into The Future Of Chemistry


 Q-Chem 4.2, Q-Chem, Inc., Pleasanton, CA (2014).

 Y. Shao,  Z. Gan,  E. Epifanovsky,  A. T. B. Gilbert,  M. Wormit,  
 J. Kussmann,  A. W. Lange,  A. Behn,  J. Deng,  X. Feng,  D. Ghosh,  
 M. Goldey,  P. R. Horn,  L. D. Jacobson,  I. Kaliman,  R. Z. Khaliullin,  
 T. Kus,  A. Landau,  J. Liu,  E. I. Proynov,  Y. M. Rhee,  R. M. Richard,  
 M. A. Rohrdanz,  R. P. Steele,  E. J. Sundstrom,  H. L. Woodcock III,  
 P. M. Zimmerman,  D. Zuev,  B. Albrecht,  E. Alguire,  B. Austin,  
 G. J. O. Beran,  Y. A. Bernard,  E. Berquist,  K. Brandhorst,  
 K. B. Bravaya,  S. T. Brown,  D. Casanova,  C.-M. Chang,  Y. Chen,  
 S. H. Chien,  K. D. Closser,  D. L. Crittenden,  M. Diedenhofen,  
 R. A. DiStasio Jr.,  H. Do,  A. D. Dutoi,  R. G. Edgar,  S. Fatehi,  
 L. Fusti-Molnar,  A. Ghysels,  A. Golubeva-Zadorozhnaya,  J. Gomes,  
 M. W. D. Hanson-Heine,  P. H. P. Harbach,  A. W. Hauser,  E. G. Hohenstein,  
 Z. C. Holden,  T.-C. Jagau,  H. Ji,  B. Kaduk,  K. Khistyaev,  Jaehoon Kim,  
 Jihan Kim,  R. A. King,  P. Klunzinger,  D. Kosenkov,  T. Kowalczyk,  
 C. M. Krauter,  K. U. Lao,  A. Laurent,  K. V. Lawler,  S. V. Levchenko,  
 C. Y. Lin,  F. Liu,  E. Livshits,  R. C. Lochan,  A. Luenser,  P. Manohar,  
 S. F. Manzer,  S.-P. Mao,  N. Mardirossian,  A. V. Marenich,  S. A. Maurer,  
 N. J. Mayhall,  C. M. Oana,  R. Olivares-Amaya,  D. P. O'Neill,  
 J. A. Parkhill,  T. M. Perrine,  R. Peverati,  P. A. Pieniazek,  A. Prociuk,  
 D. R. Rehn,  E. Rosta,  N. J. Russ,  N. Sergueev,  S. M. Sharada,  
 S. Sharma,  D. W. Small,  A. Sodt,  T. Stein,  D. Stuck,  Y.-C. Su,  
 A. J. W. Thom,  T. Tsuchimochi,  L. Vogt,  O. Vydrov,  T. Wang,  
 M. A. Watson,  J. Wenzel,  A. White,  C. F. Williams,  V. Vanovschi,  
 S. Yeganeh,  S. R. Yost,  Z.-Q. You,  I. Y. Zhang,  X. Zhang,  Y. Zhao,  
 B. R. Brooks,  G. K. L. Chan,  D. M. Chipman,  C. J. Cramer,  
 W. A. Goddard III,  M. S. Gordon,  W. J. Hehre,  A. Klamt,  
 H. F. Schaefer III,  M. W. Schmidt,  C. D. Sherrill,  D. G. Truhlar,  
 A. Warshel,  X. Xu,  A. Aspuru-Guzik,  R. Baer,  A. T. Bell,  N. A. Besley,  
 J.-D. Chai,  A. Dreuw,  B. D. Dunietz,  T. R. Furlani,  S. R. Gwaltney,  
 C.-P. Hsu,  Y. Jung,  J. Kong,  D. S. Lambrecht,  W. Liang,  C. Ochsenfeld,  
 V. A. Rassolov,  L. V. Slipchenko,  J. E. Subotnik,  T. Van Voorhis,  
 J. M. Herbert,  A. I. Krylov,  P. M. W. Gill,  M. Head-Gordon

 Contributors to earlier versions of Q-Chem not listed above: 
 R. D. Adamson,  J. Baker,  E. F. C. Byrd,  A. K. Chakraborty,  C.-L. Cheng,  
 H. Dachsel,  R. J. Doerksen,  G. Hawkins,  A. Heyden,  S. Hirata,  
 G. Kedziora,  F. J. Keil,  C. Kelley,  P. P. Korambath,  W. Kurlancheek,  
 A. M. Lee,  M. S. Lee,  D. Liotard,  I. Lotan,  P. E. Maslen,  N. Nair,  
 D. Neuhauser,  R. Olson,  B. Peters,  J. Ritchie,  N. E. Schultz,  
 N. Shenvi,  A. C. Simmonett,  K. S. Thanthiriwatte,  Q. Wu,  W. Zhang

 Q-Chem 4.2.2 for Intel X86 EM64T Linux

 Parts of Q-Chem use Armadillo 4.100.2 (Dirt Cruiser).
 http://arma.sourceforge.net/

 Q-Chem begins on Tue Feb 17 17:07:36 2015  

Host: 
0

     Scratch files written to /home/eric/scratch/qchem/qchem26128//
 Dec1314 |home|eric|opt|apps|qchem|trunk_intel_release|libmdc|qstr_info.C -1
Processing $rem in /home/eric/.qchemrc.
         symmetry = false
       sym_ignore = true
  scf_convergence = 8
           thresh = 14
        varthresh = 0
           incdft = 0
          xc_grid = 000100000302 ! (100,302)
 integrals_buffer = 3000
       mem_static = 1000
        mem_total = 4000
    n_frozen_core = fc
    molden_format = true
   scf_print_frgm = true
           chelpg = true
Checking the input file for consistency...	...done.

--------------------------------------------------------------
User input:
--------------------------------------------------------------
$rem
 method = b3lyp
 basis = 6-31g**
 unrestricted = false
 scf_convergence = 9
 thresh = 14
 xc_grid = 000100000302
 print_general_basis = true
 print_orbitals = 34
 scf_final_print = 2
 molden_format = false
$end

$molecule
 +1 2
C      0.0000000000   -0.0003162467   -0.0000048217
O      0.0000000000    0.0001159898   -1.1691641452
O      0.0000000000    0.0001159547    1.1691546879
$end
--------------------------------------------------------------
 ----------------------------------------------------------------
             Standard Nuclear Orientation (Angstroms)
    I     Atom           X                Y                Z
 ----------------------------------------------------------------
    1      C       0.0000000000    -0.0003162467    -0.0000048217
    2      O       0.0000000000     0.0001159898    -1.1691641452
    3      O       0.0000000000     0.0001159547     1.1691546879
 ----------------------------------------------------------------
 Nuclear Repulsion Energy =    57.9345113696 hartrees
 There are       11 alpha and       10 beta electrons
 Requested basis set is 6-31G(d,p)
Basis set in general basis input format:
-----------------------------------------------------------------------
$basis
C    0
S    6    1.000000
   3.04752490E+03    1.83470000E-03 
   4.57369510E+02    1.40373000E-02 
   1.03948690E+02    6.88426000E-02 
   2.92101550E+01    2.32184400E-01 
   9.28666300E+00    4.67941300E-01 
   3.16392700E+00    3.62312000E-01 
SP   3    1.000000
   7.86827240E+00   -1.19332400E-01   6.89991000E-02 
   1.88128850E+00   -1.60854200E-01   3.16424000E-01 
   5.44249300E-01    1.14345640E+00   7.44308300E-01 
SP   1    1.000000
   1.68714400E-01    1.00000000E+00   1.00000000E+00 
D    1    1.000000
   8.00000000E-01    1.00000000E+00 
****
O    0
S    6    1.000000
   5.48467170E+03    1.83110000E-03 
   8.25234950E+02    1.39501000E-02 
   1.88046960E+02    6.84451000E-02 
   5.29645000E+01    2.32714300E-01 
   1.68975700E+01    4.70193000E-01 
   5.79963530E+00    3.58520900E-01 
SP   3    1.000000
   1.55396160E+01   -1.10777500E-01   7.08743000E-02 
   3.59993360E+00   -1.48026300E-01   3.39752800E-01 
   1.01376180E+00    1.13076700E+00   7.27158600E-01 
SP   1    1.000000
   2.70005800E-01    1.00000000E+00   1.00000000E+00 
D    1    1.000000
   8.00000000E-01    1.00000000E+00 
****
O    0
S    6    1.000000
   5.48467170E+03    1.83110000E-03 
   8.25234950E+02    1.39501000E-02 
   1.88046960E+02    6.84451000E-02 
   5.29645000E+01    2.32714300E-01 
   1.68975700E+01    4.70193000E-01 
   5.79963530E+00    3.58520900E-01 
SP   3    1.000000
   1.55396160E+01   -1.10777500E-01   7.08743000E-02 
   3.59993360E+00   -1.48026300E-01   3.39752800E-01 
   1.01376180E+00    1.13076700E+00   7.27158600E-01 
SP   1    1.000000
   2.70005800E-01    1.00000000E+00   1.00000000E+00 
D    1    1.000000
   8.00000000E-01    1.00000000E+00 
****
$end
-----------------------------------------------------------------------
 There are 12 shells and 45 basis functions

Total QAlloc Memory Limit   4000 MB
Mega-Array Size       978 MB
MEM_STATIC part      1000 MB

                       Distance Matrix (Angstroms)
             C (  1)   O (  2)
   O (  2)  1.169159
   O (  3)  1.169160  2.338319
 
 A cutoff of  1.0D-14 yielded     77 shell pairs
 There are      1115 function pairs
 
 -------------------------------------------------------
 OpenMP Integral Computing Module                       
 Release: version 1.0, May 2013, Q-Chem Inc. Pittsburgh 
 -------------------------------------------------------
 Integral Job Info:
 Integral job number is                      11
 Integral operator is                         1
 short-range coefficients               -999999
 long-range coefficients                -999999
 Omega coefficients                           0
 if combine SR and LR in K              -999999
 Integral screening is                        0
 Integral computing path is                   2
 max size of driver memory is            800000
 size of driver memory is                593474
 size of scratch memory is              2260544
 max col of scratch BK array               1296
 max len of scratch array in speh3          155
 max len of scratch index in speh4           18
 max int batch size is                      520
 min int batch size is                       52
 fixed nKL is                                52
 max L of basis functions is                  2
 order of int derivative is                   0
 number of shells is                         12
 number of basis is                          45
 number of cartesian basis is                45
 number of contracted shell pairs            77
 number of primitive shell pairs            489
 maxK2 (contraction) of shell pair           36
 max number of K2 of shell pair               1
 max number of CS2 of shell pair             11
 max number of PS2 of shell pair            108
 mem total for path MDJ                   12910
 -------------------------------------------------------
         cpu   0.00 wall   0.00
 Smallest overlap matrix eigenvalue = 2.82E-03

  Scale SEOQF with 1.000000e+00/1.000000e+00/1.000000e+00

 Standard Electronic Orientation quadrupole field applied
 Nucleus-field energy     =    -0.0000000234 hartrees
 Constructing guess Fock matrix from core Hamiltonian
 Applying Wolfsberg-Helmholtz approximation
GuessMan calls MO2Den with 11 electrons (IDen = 0)
GuessMan calls MO2Den with 10 electrons (IDen = 1)
 A restricted hybrid HF-DFT SCF calculation will be
 performed using Geometric Direct Minimization
 Exchange:     0.2000 Hartree-Fock + 0.0800 Slater + 0.7200 Becke88
 Correlation:  0.8100 LYP + 0.1900 VWN1RPA
 Using Euler-Maclaurin-Lebedev (100,302) quadrature formula
 SCF converges when RMS gradient is below 1.0E-09
 using 4 threads for integral computing 
         cpu   0.02 wall   0.01
 -------------------------------------------------------
 OpenMP BLAS3 based DFT computing Module                
 Release: version 1.0, May 2013, Q-Chem Inc. Pittsburgh 
 -------------------------------------------------------
in dftxc.C, eleTot sum is:21.000000, tauTot is:0.000000
 ---------------------------------------
  Cycle       Energy        RMS Gradient
 ---------------------------------------
    1    -187.0986480236      6.48E-01 Descent step
         cpu   0.03 wall   0.01
in dftxc.C, eleTot sum is:21.000000, tauTot is:0.000000
    2    -187.5294422312      4.39E-01 Descent step
         cpu   0.03 wall   0.01
in dftxc.C, eleTot sum is:21.000000, tauTot is:0.000000
    3    -187.8226654941      2.71E-01 Descent step
         cpu   0.03 wall   0.01
in dftxc.C, eleTot sum is:21.000000, tauTot is:0.000000
    4    -188.0026571219      1.42E-01 Descent step
         cpu   0.03 wall   0.01
in dftxc.C, eleTot sum is:21.000000, tauTot is:0.000000
    5    -188.0725328183      2.41E-02 Normal BFGS step
         cpu   0.03 wall   0.01
in dftxc.C, eleTot sum is:21.000000, tauTot is:0.000000
    6    -188.0738599014      1.23E-02 Normal BFGS step
         cpu   0.03 wall   0.01
in dftxc.C, eleTot sum is:21.000000, tauTot is:0.000000
    7    -188.0739362561      5.49E-03 Normal BFGS step
         cpu   0.03 wall   0.01
in dftxc.C, eleTot sum is:21.000000, tauTot is:0.000000
    8    -188.0739578870      1.13E-04 Normal BFGS step
         cpu   0.03 wall   0.01
in dftxc.C, eleTot sum is:21.000000, tauTot is:0.000000
    9    -188.0739579347      1.76E-05 Normal BFGS step
         cpu   0.03 wall   0.01
in dftxc.C, eleTot sum is:21.000000, tauTot is:0.000000
   10    -188.0739579351      5.70E-05 Normal BFGS step
         cpu   0.03 wall   0.01
in dftxc.C, eleTot sum is:21.000000, tauTot is:0.000000
   GDM::WARNING energy changes are now smaller than effective accuracy.
   GDM::        calculation will continue, but THRESH should be increased
   GDM::        or SCF_CONVERGENCE decreased.
   GDM::        effective_thresh =   2.359423628695012E-009
   11    -188.0739579338      8.05E-05 Normal BFGS step
         cpu   0.03 wall   0.01
in dftxc.C, eleTot sum is:21.000000, tauTot is:0.000000
   12    -188.0739579356      2.24E-06 Normal BFGS step
         cpu   0.03 wall   0.01
in dftxc.C, eleTot sum is:21.000000, tauTot is:0.000000
   13    -188.0739579356      6.74E-07 Normal BFGS step
         cpu   0.03 wall   0.01
in dftxc.C, eleTot sum is:21.000000, tauTot is:0.000000
   14    -188.0739579356      1.18E-07 Normal BFGS step
         cpu   0.03 wall   0.01
in dftxc.C, eleTot sum is:21.000000, tauTot is:0.000000
   15    -188.0739579356      4.69E-08 Normal BFGS step
         cpu   0.03 wall   0.01
in dftxc.C, eleTot sum is:21.000000, tauTot is:0.000000
   16    -188.0739579356      2.70E-09 Normal BFGS step
         cpu   0.03 wall   0.01
in dftxc.C, eleTot sum is:21.000000, tauTot is:0.000000
   GDM::WARNING energy changes are now smaller than effective accuracy.
   GDM::        calculation will continue, but THRESH should be increased
   GDM::        or SCF_CONVERGENCE decreased.
   GDM::        effective_thresh =   2.359423628695012E-009
   17    -188.0739579356      5.23E-09 Normal BFGS step
         cpu   0.03 wall   0.01
in dftxc.C, eleTot sum is:21.000000, tauTot is:0.000000
   18    -188.0739579356      1.04E-09 Normal BFGS step
         cpu   0.03 wall   0.01
in dftxc.C, eleTot sum is:21.000000, tauTot is:0.000000
   GDM::WARNING energy changes are now smaller than effective accuracy.
   GDM::        calculation will continue, but THRESH should be increased
   GDM::        or SCF_CONVERGENCE decreased.
   GDM::        effective_thresh =   2.359423628695012E-009
   19    -188.0739579356      7.09E-10 Convergence criterion met
 ---------------------------------------
 One-Electron    Energy =  -363.3515807652
 Total Coulomb   Energy =   139.4303867600
 Alpha Exchange  Energy =    -2.1857570714
 Beta  Exchange  Energy =    -2.0399982952
 DFT   Exchange  Energy =   -16.8952232728
 DFT Correlation Energy =    -0.9662966372
 Nuclear Repu.   Energy =    57.9345113462
 Nuclear Attr.   Energy =  -549.8080903448
 Kinetic         Energy =   186.4565095796
 SCF time:  CPU 11.02 s  wall 2.80 s
 Final Alpha MO Coefficients
            1           2           3           4           5           6
    1  -0.0001543   0.0000002   0.9927881  -0.1555567  -0.0000001  -0.1317750
    2   0.0001452  -0.0000002   0.0496728   0.3081580   0.0000002   0.3296930
    3   0.0000000   0.0000000   0.0000000   0.0000000   0.0000000   0.0000000
    4  -0.0000007   0.0000000   0.0000010   0.0000981  -0.0000000   0.0000246
    5  -0.0000003  -0.0002219  -0.0000000  -0.0000003   0.3390049   0.0000002
    6  -0.0053293   0.0000084  -0.0007215   0.0072774   0.0000000   0.1841681
    7  -0.0000000   0.0000000  -0.0000000   0.0000000   0.0000000  -0.0000000
    8  -0.0000015   0.0000000   0.0000011  -0.0000330   0.0000000  -0.0000120
    9  -0.0000114  -0.0071854  -0.0000000   0.0000000  -0.0496463   0.0000000
   10  -0.0000522   0.0000001  -0.0104912  -0.0294180  -0.0000000  -0.0114237
   11   0.0000000   0.0000000   0.0000000   0.0000000   0.0000000   0.0000000
   12  -0.0000521   0.0000001  -0.0105470  -0.0312469  -0.0000000  -0.0137618
   13   0.0000000   0.0000000   0.0000000  -0.0000000  -0.0000000   0.0000000
   14  -0.0000000  -0.0000006  -0.0000000  -0.0000000   0.0000347   0.0000000
   15  -0.0034332   0.0000054  -0.0063095   0.0319960   0.0000000  -0.0169247
   16   0.7009726  -0.7029764  -0.0002762  -0.1353999   0.1467287   0.0968261
   17   0.0184528  -0.0173916   0.0000907   0.3021663  -0.3332797  -0.2333779
   18  -0.0000000   0.0000000   0.0000000  -0.0000000   0.0000000   0.0000000
   19  -0.0000009   0.0000002   0.0000004  -0.0000429   0.0000640  -0.0001176
   20   0.0018281  -0.0009571  -0.0004697   0.1357880  -0.1412377   0.3438498
   21   0.0095301  -0.0140949  -0.0032567   0.2617222  -0.2750800  -0.3239674
   22   0.0000000  -0.0000000   0.0000000   0.0000000   0.0000000  -0.0000000
   23  -0.0000005   0.0000015   0.0000011  -0.0000097   0.0000236  -0.0000505
   24   0.0019439  -0.0017247  -0.0029408   0.0622641  -0.0321578   0.1470590
   25  -0.0057475   0.0061627   0.0003388  -0.0063432   0.0046998  -0.0079898
   26  -0.0000000   0.0000000  -0.0000000   0.0000000  -0.0000000  -0.0000000
   27  -0.0057266   0.0061396   0.0003425  -0.0089045   0.0073420  -0.0055346
   28   0.0000000   0.0000000   0.0000000   0.0000000  -0.0000000  -0.0000000
   29  -0.0000011   0.0000001   0.0000010  -0.0000055   0.0000148  -0.0000159
   30  -0.0041861   0.0058615  -0.0009315   0.0139550  -0.0082752   0.0304318
   31   0.7031916   0.7007567  -0.0002762  -0.1353996  -0.1467289   0.0968261
   32   0.0185077   0.0173332   0.0000907   0.3021657   0.3332803  -0.2333780
   33  -0.0000000   0.0000000   0.0000000   0.0000000  -0.0000000   0.0000000
   34  -0.0000009  -0.0000002   0.0000004  -0.0000429  -0.0000640  -0.0001176
   35  -0.0018312  -0.0009513   0.0004697  -0.1357877  -0.1412379  -0.3438501
   36   0.0095746   0.0140647  -0.0032566   0.2617218   0.2750805  -0.3239676
   37   0.0000000  -0.0000000   0.0000000  -0.0000000  -0.0000000   0.0000000
   38  -0.0000005  -0.0000015   0.0000011  -0.0000097  -0.0000236  -0.0000505
   39  -0.0019493  -0.0017186   0.0029408  -0.0622641  -0.0321579  -0.1470591
   40  -0.0057670  -0.0061445   0.0003388  -0.0063432  -0.0046998  -0.0079898
   41  -0.0000000  -0.0000000  -0.0000000   0.0000000   0.0000000  -0.0000000
   42  -0.0057460  -0.0061214   0.0003425  -0.0089045  -0.0073420  -0.0055346
   43  -0.0000000  -0.0000000   0.0000000  -0.0000000  -0.0000000  -0.0000000
   44   0.0000011   0.0000001  -0.0000010   0.0000055   0.0000148   0.0000159
   45  -0.0042046  -0.0058483  -0.0009315   0.0139550   0.0082752   0.0304318
            7           8           9          10          11          12
    1  -0.0000001   0.0000415   0.0000000   0.0000000   0.0000000   0.0000000
    2   0.0000001  -0.0000978  -0.0000000   0.0000000  -0.0000000  -0.0000000
    3   0.0000000  -0.0000000   0.4169731  -0.0000000   0.0000000   0.6499924
    4   0.0000000   0.4068226   0.0000000  -0.0000001  -0.0000000   0.0000000
    5  -0.3520623   0.0000000   0.0000000   0.0000214   0.0000000  -0.0000000
    6   0.0000000  -0.0000825  -0.0000000   0.0000000   0.0000000  -0.0000000
    7   0.0000000  -0.0000000   0.1236342  -0.0000000  -0.0000000   0.4990295
    8   0.0000000   0.1165072   0.0000000   0.0000000  -0.0000000   0.0000000
    9  -0.0604711   0.0000000   0.0000000  -0.0001925  -0.0000000   0.0000000
   10  -0.0000000   0.0000005   0.0000000   0.0000000   0.0000000  -0.0000000
   11   0.0000000  -0.0000000   0.0000172   0.0000000  -0.0000000  -0.0000206
   12  -0.0000000   0.0000296   0.0000000  -0.0000000   0.0000000  -0.0000000
   13   0.0000000   0.0000000  -0.0000000  -0.0000000   0.0594432   0.0000000
   14  -0.0000022  -0.0000000   0.0000000   0.0622071   0.0000000   0.0000000
   15  -0.0000000  -0.0000346  -0.0000000   0.0000000  -0.0000000   0.0000000
   16   0.0773948   0.0000046  -0.0000000   0.0000028  -0.0000000  -0.0000000
   17  -0.1760567   0.0000022   0.0000000   0.0000231   0.0000000   0.0000000
   18   0.0000000  -0.0000000   0.3707755   0.0000000  -0.5049640  -0.3913442
   19  -0.0002325   0.3795488   0.0000000  -0.4975344  -0.0000000  -0.0000000
   20   0.4061051   0.0001835   0.0000000  -0.0002932  -0.0000000   0.0000000
   21  -0.3341461  -0.0000482   0.0000000  -0.0001468  -0.0000000   0.0000000
   22   0.0000000  -0.0000000   0.1864045   0.0000000  -0.2878346  -0.3383139
   23  -0.0000912   0.1888206   0.0000000  -0.2959275  -0.0000000  -0.0000000
   24   0.1418637   0.0000730   0.0000000  -0.0001944  -0.0000000   0.0000000
   25  -0.0046054   0.0000026   0.0000000   0.0000103   0.0000000  -0.0000000
   26  -0.0000000   0.0000000  -0.0000130  -0.0000000   0.0000107  -0.0000084
   27  -0.0024791  -0.0000199  -0.0000000   0.0000282   0.0000000  -0.0000000
   28   0.0000000  -0.0000000   0.0338465   0.0000000  -0.0263912   0.0165360
   29  -0.0000185   0.0333452   0.0000000  -0.0254778  -0.0000000   0.0000000
   30   0.0262192   0.0000316   0.0000000  -0.0000072  -0.0000000   0.0000000
   31  -0.0773947   0.0000046   0.0000000  -0.0000028  -0.0000000  -0.0000000
   32   0.1760565   0.0000022  -0.0000000  -0.0000231  -0.0000000   0.0000000
   33   0.0000000  -0.0000000   0.3707750  -0.0000000   0.5049646  -0.3913440
   34   0.0002325   0.3795488   0.0000000   0.4975345   0.0000000  -0.0000000
   35   0.4061048  -0.0001835  -0.0000000  -0.0002932  -0.0000000  -0.0000000
   36   0.3341458  -0.0000482  -0.0000000   0.0001468   0.0000000   0.0000000
   37   0.0000000  -0.0000000   0.1864043  -0.0000000   0.2878348  -0.3383137
   38   0.0000911   0.1888206   0.0000000   0.2959276   0.0000000  -0.0000000
   39   0.1418636  -0.0000730  -0.0000000  -0.0001944  -0.0000000  -0.0000000
   40   0.0046054   0.0000026   0.0000000  -0.0000103  -0.0000000  -0.0000000
   41   0.0000000   0.0000000  -0.0000130   0.0000000  -0.0000107  -0.0000084
   42   0.0024791  -0.0000199  -0.0000000  -0.0000282  -0.0000000  -0.0000000
   43  -0.0000000   0.0000000  -0.0338465   0.0000000  -0.0263912  -0.0165361
   44  -0.0000185  -0.0333452  -0.0000000  -0.0254778  -0.0000000  -0.0000000
   45  -0.0262192   0.0000316   0.0000000   0.0000072   0.0000000   0.0000000
           13          14          15          16
    1   0.0003278  -0.1174015   0.0000000  -0.0000000
    2  -0.0005378   0.1534276  -0.0000000  -0.0000000
    3  -0.0000000  -0.0000000   0.0000000   0.8840681
    4   0.6581554   0.0017708   0.0000000   0.0000000
    5   0.0000000   0.0000002  -0.0424676   0.0000000
    6  -0.0042706   1.9407050   0.0000008  -0.0000000
    7  -0.0000000  -0.0000000  -0.0000000  -1.3080765
    8   0.5005706   0.0018222   0.0000001  -0.0000000
    9   0.0000000   0.0000000  -3.9686876   0.0000000
   10  -0.0000860   0.0397499  -0.0000000  -0.0000000
   11   0.0000000   0.0000000  -0.0000000   0.0000273
   12  -0.0001138   0.0356584  -0.0000000   0.0000000
   13  -0.0000000   0.0000000   0.0000000   0.0000000
   14   0.0000000   0.0000000  -0.0000199   0.0000000
   15   0.0002064  -0.0750847   0.0000000  -0.0000000
   16  -0.0001617   0.0724552   0.0961266  -0.0000000
   17   0.0004186  -0.1891376  -0.0700281  -0.0000000
   18   0.0000000   0.0000000   0.0000000   0.1397801
   19  -0.3844298  -0.0008571   0.0001898   0.0000000
   20   0.0007366  -0.3389768   0.0814060  -0.0000000
   21   0.0014703  -0.7381367  -2.7877327   0.0000000
   22   0.0000000   0.0000000  -0.0000000   0.1176250
   23  -0.3356756  -0.0007775   0.0006179   0.0000000
   24   0.0008857  -0.4654798  -0.8185584   0.0000000
   25  -0.0000332   0.0156853   0.0757675  -0.0000000
   26   0.0000000  -0.0000000   0.0000000  -0.0000184
   27  -0.0000508   0.0169859   0.0752349  -0.0000000
   28  -0.0000000  -0.0000000  -0.0000000   0.0584783
   29   0.0166833   0.0000754   0.0000226   0.0000000
   30   0.0000366  -0.0132848  -0.0018019   0.0000000
   31  -0.0001617   0.0724552  -0.0961266  -0.0000000
   32   0.0004186  -0.1891376   0.0700282  -0.0000000
   33   0.0000000   0.0000000   0.0000000   0.1397802
   34  -0.3844297  -0.0008571  -0.0001898   0.0000000
   35  -0.0007366   0.3389770   0.0814059   0.0000000
   36   0.0014703  -0.7381366   2.7877317   0.0000000
   37   0.0000000   0.0000000   0.0000000   0.1176250
   38  -0.3356755  -0.0007775  -0.0006178   0.0000000
   39  -0.0008858   0.4654800  -0.8185584  -0.0000000
   40  -0.0000332   0.0156853  -0.0757674  -0.0000000
   41   0.0000000  -0.0000000  -0.0000000  -0.0000184
   42  -0.0000508   0.0169859  -0.0752349  -0.0000000
   43   0.0000000   0.0000000  -0.0000000  -0.0584783
   44  -0.0166833  -0.0000754   0.0000226  -0.0000000
   45   0.0000366  -0.0132848   0.0018019   0.0000000
 Final Alpha density matrix.
            1           2           3           4           5           6
    1   1.0271907  -0.0420668   0.0000000  -0.0000006   0.0000000  -0.0261163
    2  -0.0420668   0.2061262   0.0000000  -0.0000014  -0.0000000   0.0629249
    3   0.0000000   0.0000000   0.1738666   0.0000000   0.0000000   0.0000000
    4  -0.0000006  -0.0000014   0.0000000   0.1655046  -0.0000000  -0.0000283
    5   0.0000000  -0.0000000   0.0000000  -0.0000000   0.2388722   0.0000000
    6  -0.0261163   0.0629249   0.0000000  -0.0000283   0.0000000   0.0339998
    7  -0.0000000  -0.0000000   0.0515521   0.0000000   0.0000000  -0.0000000
    8   0.0000126  -0.0000255   0.0000000   0.0473978   0.0000000  -0.0000120
    9  -0.0000000   0.0000000   0.0000000   0.0000000   0.0044608   0.0000000
   10  -0.0043340  -0.0133528  -0.0000000  -0.0000030   0.0000000  -0.0023101
   11  -0.0000000   0.0000000   0.0000072   0.0000000   0.0000000   0.0000000
   12  -0.0037968  -0.0146901  -0.0000000   0.0000086   0.0000000  -0.0027540
   13   0.0000000  -0.0000000  -0.0000000   0.0000000  -0.0000000   0.0000000
   14   0.0000000  -0.0000000  -0.0000000  -0.0000000   0.0000138   0.0000000
   15  -0.0090104   0.0039660   0.0000000  -0.0000114   0.0000000  -0.0028613
   16   0.0079205  -0.0097134  -0.0000000  -0.0000095   0.0226498   0.0131055
   17  -0.0161633   0.0161790  -0.0000000   0.0000248  -0.0509968  -0.0408803
   18   0.0000000   0.0000000   0.1546034   0.0000000   0.0000000  -0.0000000
   19   0.0000383  -0.0000891   0.0000000   0.1544091   0.0000929  -0.0000533
   20  -0.0669002   0.1551860   0.0000000   0.0000964  -0.1908544   0.0643049
   21  -0.0012564  -0.0263185   0.0000000  -0.0000019   0.0243898  -0.0578083
   22   0.0000000   0.0000000   0.0777257   0.0000000   0.0000000  -0.0000000
   23   0.0000170  -0.0000380   0.0000000   0.0768165   0.0000338  -0.0000249
   24  -0.0319842   0.0675257   0.0000000   0.0000394  -0.0608461   0.0275284
   25   0.0023768  -0.0045729  -0.0000000   0.0000002   0.0032133  -0.0014872
   26  -0.0000000  -0.0000000  -0.0000054   0.0000000  -0.0000000  -0.0000000
   27   0.0024554  -0.0045525  -0.0000000  -0.0000091   0.0033604  -0.0010538
   28   0.0000000   0.0000000   0.0141131   0.0000000   0.0000000  -0.0000000
   29   0.0000053  -0.0000102   0.0000000   0.0135656   0.0000110  -0.0000057
   30  -0.0071051   0.0142866   0.0000000   0.0000150  -0.0120374   0.0057292
   31   0.0079205  -0.0097134   0.0000000  -0.0000095  -0.0226497   0.0131055
   32  -0.0161633   0.0161790  -0.0000000   0.0000248   0.0509968  -0.0408803
   33  -0.0000000   0.0000000   0.1546032   0.0000000  -0.0000000   0.0000000
   34   0.0000383  -0.0000891   0.0000000   0.1544090  -0.0000929  -0.0000533
   35   0.0669002  -0.1551859  -0.0000000  -0.0000964  -0.1908544  -0.0643049
   36  -0.0012564  -0.0263185  -0.0000000  -0.0000019  -0.0243898  -0.0578084
   37   0.0000000   0.0000000   0.0777256   0.0000000  -0.0000000   0.0000000
   38   0.0000170  -0.0000380   0.0000000   0.0768165  -0.0000338  -0.0000249
   39   0.0319842  -0.0675257   0.0000000  -0.0000394  -0.0608461  -0.0275284
   40   0.0023768  -0.0045729   0.0000000   0.0000002  -0.0032133  -0.0014872
   41  -0.0000000  -0.0000000  -0.0000054   0.0000000   0.0000000  -0.0000000
   42   0.0024554  -0.0045525   0.0000000  -0.0000091  -0.0033604  -0.0010538
   43   0.0000000  -0.0000000  -0.0141131  -0.0000000  -0.0000000  -0.0000000
   44  -0.0000053   0.0000102  -0.0000000  -0.0135656   0.0000110   0.0000057
   45  -0.0071051   0.0142866   0.0000000   0.0000150   0.0120374   0.0057292
            7           8           9          10          11          12
    1  -0.0000000   0.0000126  -0.0000000  -0.0043340  -0.0000000  -0.0037968
    2  -0.0000000  -0.0000255   0.0000000  -0.0133528   0.0000000  -0.0146901
    3   0.0515521   0.0000000   0.0000000  -0.0000000   0.0000072  -0.0000000
    4   0.0000000   0.0473978   0.0000000  -0.0000030   0.0000000   0.0000086
    5   0.0000000   0.0000000   0.0044608   0.0000000   0.0000000   0.0000000
    6  -0.0000000  -0.0000120   0.0000000  -0.0023101   0.0000000  -0.0027540
    7   0.0152854   0.0000000   0.0000000   0.0000000   0.0000021   0.0000000
    8   0.0000000   0.0135739   0.0000000   0.0000012   0.0000000   0.0000046
    9   0.0000000   0.0000000   0.0061732   0.0000000  -0.0000000   0.0000000
   10   0.0000000   0.0000012   0.0000000   0.0011060  -0.0000000   0.0011871
   11   0.0000021   0.0000000  -0.0000000  -0.0000000   0.0000000  -0.0000000
   12   0.0000000   0.0000046   0.0000000   0.0011871  -0.0000000   0.0012770
   13  -0.0000000   0.0000000   0.0000000   0.0000000  -0.0000000   0.0000000
   14  -0.0000000  -0.0000000  -0.0000136   0.0000000   0.0000000  -0.0000000
   15   0.0000000  -0.0000049  -0.0000000  -0.0006815   0.0000000  -0.0007001
   16  -0.0000000   0.0000028  -0.0069215   0.0028433  -0.0000000   0.0028647
   17   0.0000000  -0.0000070   0.0273172  -0.0062250   0.0000000  -0.0062320
   18   0.0458405   0.0000000  -0.0000000  -0.0000000   0.0000064  -0.0000000
   19   0.0000000   0.0442202   0.0001067   0.0000028  -0.0000000   0.0000142
   20  -0.0000000   0.0000128  -0.0175388  -0.0079178   0.0000000  -0.0089701
   21   0.0000000  -0.0000104   0.0339641  -0.0039648  -0.0000000  -0.0036858
   22   0.0230460   0.0000000  -0.0000000  -0.0000000   0.0000032  -0.0000000
   23   0.0000000   0.0219990   0.0000613   0.0000009  -0.0000000   0.0000066
   24  -0.0000000   0.0000047  -0.0069697  -0.0034809   0.0000000  -0.0039384
   25  -0.0000000   0.0000006   0.0000009   0.0002746  -0.0000000   0.0003049
   26  -0.0000016  -0.0000000   0.0000000  -0.0000000  -0.0000000  -0.0000000
   27   0.0000000  -0.0000020  -0.0002586   0.0003219  -0.0000000   0.0003511
   28   0.0041846   0.0000000   0.0000000  -0.0000000   0.0000006  -0.0000000
   29   0.0000000   0.0038850   0.0000053   0.0000004  -0.0000000   0.0000014
   30  -0.0000000   0.0000029  -0.0012167  -0.0007482   0.0000000  -0.0008448
   31  -0.0000000   0.0000028   0.0069215   0.0028433  -0.0000000   0.0028647
   32   0.0000000  -0.0000070  -0.0273172  -0.0062250   0.0000000  -0.0062320
   33   0.0458405   0.0000000   0.0000000  -0.0000000   0.0000064   0.0000000
   34   0.0000000   0.0442202  -0.0001067   0.0000028  -0.0000000   0.0000142
   35  -0.0000000  -0.0000128  -0.0175388   0.0079178  -0.0000000   0.0089701
   36  -0.0000000  -0.0000104  -0.0339641  -0.0039648  -0.0000000  -0.0036858
   37   0.0230459   0.0000000   0.0000000   0.0000000   0.0000032   0.0000000
   38   0.0000000   0.0219990  -0.0000613   0.0000009  -0.0000000   0.0000066
   39   0.0000000  -0.0000047  -0.0069697   0.0034809  -0.0000000   0.0039384
   40   0.0000000   0.0000006  -0.0000009   0.0002746  -0.0000000   0.0003049
   41  -0.0000016  -0.0000000  -0.0000000  -0.0000000  -0.0000000  -0.0000000
   42   0.0000000  -0.0000020   0.0002586   0.0003219  -0.0000000   0.0003511
   43  -0.0041846  -0.0000000  -0.0000000   0.0000000  -0.0000006   0.0000000
   44  -0.0000000  -0.0038850   0.0000053  -0.0000004   0.0000000  -0.0000014
   45   0.0000000   0.0000029   0.0012167  -0.0007482   0.0000000  -0.0008448
           13          14          15          16          17          18
    1   0.0000000   0.0000000  -0.0090104   0.0079205  -0.0161633   0.0000000
    2  -0.0000000  -0.0000000   0.0039660  -0.0097134   0.0161790   0.0000000
    3  -0.0000000  -0.0000000   0.0000000  -0.0000000  -0.0000000   0.1546034
    4   0.0000000  -0.0000000  -0.0000114  -0.0000095   0.0000248   0.0000000
    5  -0.0000000   0.0000138   0.0000000   0.0226498  -0.0509968   0.0000000
    6   0.0000000   0.0000000  -0.0028613   0.0131055  -0.0408803  -0.0000000
    7  -0.0000000  -0.0000000   0.0000000  -0.0000000   0.0000000   0.0458405
    8   0.0000000  -0.0000000  -0.0000049   0.0000028  -0.0000070   0.0000000
    9   0.0000000  -0.0000136  -0.0000000  -0.0069215   0.0273172  -0.0000000
   10   0.0000000   0.0000000  -0.0006815   0.0028433  -0.0062250  -0.0000000
   11  -0.0000000   0.0000000   0.0000000  -0.0000000   0.0000000   0.0000064
   12   0.0000000  -0.0000000  -0.0007001   0.0028647  -0.0062320  -0.0000000
   13   0.0035335  -0.0000000  -0.0000000   0.0000000  -0.0000000  -0.0300167
   14  -0.0000000   0.0038697   0.0000000   0.0000055  -0.0000097   0.0000000
   15  -0.0000000   0.0000000   0.0013618  -0.0083797   0.0135540   0.0000000
   16   0.0000000   0.0000055  -0.0083797   1.0407662  -0.1008771  -0.0000000
   17  -0.0000000  -0.0000097   0.0135540  -0.1008771   0.2884840   0.0000000
   18  -0.0300167   0.0000000   0.0000000  -0.0000000   0.0000000   0.3924631
   19   0.0000000  -0.0309502  -0.0000125  -0.0000146   0.0000234   0.0000000
   20   0.0000000  -0.0000240  -0.0014782   0.0275692  -0.0635919   0.0000000
   21   0.0000000  -0.0000179   0.0138449  -0.1164394   0.3056184   0.0000000
   22  -0.0171098   0.0000000   0.0000000   0.0000000   0.0000000   0.2144603
   23   0.0000000  -0.0184088  -0.0000060  -0.0000085   0.0000106  -0.0000000
   24   0.0000000  -0.0000135  -0.0004849   0.0146455  -0.0296991   0.0000000
   25  -0.0000000   0.0000008  -0.0000501  -0.0079428  -0.0010208  -0.0000000
   26   0.0000006   0.0000000   0.0000000  -0.0000000   0.0000000  -0.0000102
   27  -0.0000000   0.0000020  -0.0001737  -0.0067751  -0.0036219   0.0000000
   28  -0.0015688   0.0000000   0.0000000  -0.0000000   0.0000000   0.0258761
   29   0.0000000  -0.0015849  -0.0000011  -0.0000008  -0.0000002   0.0000000
   30  -0.0000000  -0.0000008  -0.0000483  -0.0051825  -0.0049228   0.0000000
   31   0.0000000  -0.0000055  -0.0083797   0.0004918  -0.0001941   0.0000000
   32  -0.0000000   0.0000097   0.0135540  -0.0001941   0.0037382   0.0000000
   33   0.0300167  -0.0000000   0.0000000  -0.0000000  -0.0000000  -0.1175147
   34  -0.0000000   0.0309502  -0.0000125   0.0000057   0.0000072  -0.0000000
   35   0.0000000  -0.0000240   0.0014782  -0.0048162   0.0147736   0.0000000
   36  -0.0000000   0.0000179   0.0138449  -0.0037570   0.0041148  -0.0000000
   37   0.0171098  -0.0000000  -0.0000000   0.0000000  -0.0000000  -0.0762321
   38  -0.0000000   0.0184088  -0.0000060   0.0000024   0.0000080  -0.0000000
   39   0.0000000  -0.0000135   0.0004849   0.0002933   0.0012419   0.0000000
   40   0.0000000  -0.0000008  -0.0000501   0.0000289   0.0007039   0.0000000
   41  -0.0000006   0.0000000   0.0000000  -0.0000000   0.0000000   0.0000006
   42   0.0000000  -0.0000020  -0.0001737   0.0000597   0.0006119   0.0000000
   43  -0.0015688   0.0000000  -0.0000000  -0.0000000   0.0000000   0.0007772
   44   0.0000000  -0.0015849   0.0000011   0.0000020  -0.0000044   0.0000000
   45  -0.0000000   0.0000008  -0.0000483   0.0014062  -0.0010033   0.0000000
           19          20          21          22          23          24
    1   0.0000383  -0.0669002  -0.0012564   0.0000000   0.0000170  -0.0319842
    2  -0.0000891   0.1551860  -0.0263185   0.0000000  -0.0000380   0.0675257
    3   0.0000000   0.0000000   0.0000000   0.0777257   0.0000000   0.0000000
    4   0.1544091   0.0000964  -0.0000019   0.0000000   0.0768165   0.0000394
    5   0.0000929  -0.1908544   0.0243898   0.0000000   0.0000338  -0.0608461
    6  -0.0000533   0.0643049  -0.0578083  -0.0000000  -0.0000249   0.0275284
    7   0.0000000  -0.0000000   0.0000000   0.0230460   0.0000000  -0.0000000
    8   0.0442202   0.0000128  -0.0000104   0.0000000   0.0219990   0.0000047
    9   0.0001067  -0.0175388   0.0339641  -0.0000000   0.0000613  -0.0069697
   10   0.0000028  -0.0079178  -0.0039648  -0.0000000   0.0000009  -0.0034809
   11  -0.0000000   0.0000000  -0.0000000   0.0000032  -0.0000000   0.0000000
   12   0.0000142  -0.0089701  -0.0036858  -0.0000000   0.0000066  -0.0039384
   13   0.0000000   0.0000000   0.0000000  -0.0171098   0.0000000   0.0000000
   14  -0.0309502  -0.0000240  -0.0000179   0.0000000  -0.0184088  -0.0000135
   15  -0.0000125  -0.0014782   0.0138449   0.0000000  -0.0000060  -0.0004849
   16  -0.0000146   0.0275692  -0.1164394   0.0000000  -0.0000085   0.0146455
   17   0.0000234  -0.0635919   0.3056184   0.0000000   0.0000106  -0.0296991
   18   0.0000000   0.0000000   0.0000000   0.2144603  -0.0000000   0.0000000
   19   0.3915979   0.0000658   0.0001417  -0.0000000   0.2189008   0.0000694
   20   0.0000658   0.3215451  -0.1726717  -0.0000000   0.0000624   0.1211810
   21   0.0001417  -0.1726717   0.3610762   0.0000000   0.0000721  -0.0698512
   22  -0.0000000  -0.0000000   0.0000000   0.1175954  -0.0000000  -0.0000000
   23   0.2189008   0.0000624   0.0000721  -0.0000000   0.1232263   0.0000496
   24   0.0000694   0.1211810  -0.0698512  -0.0000000   0.0000496   0.0466780
   25  -0.0000016  -0.0061593   0.0010316  -0.0000000  -0.0000016  -0.0023972
   26  -0.0000000  -0.0000000   0.0000000  -0.0000055  -0.0000000  -0.0000000
   27  -0.0000195  -0.0051724  -0.0018710   0.0000000  -0.0000113  -0.0019789
   28   0.0000000  -0.0000000   0.0000000   0.0139054   0.0000000  -0.0000000
   29   0.0253322  -0.0000022   0.0000079   0.0000000   0.0138359   0.0000016
   30   0.0000047   0.0241626  -0.0128108   0.0000000   0.0000038   0.0093143
   31   0.0000057   0.0048162  -0.0037569  -0.0000000   0.0000024  -0.0002933
   32   0.0000072  -0.0147736   0.0041148   0.0000000   0.0000080  -0.0012419
   33  -0.0000000  -0.0000000   0.0000000  -0.0762321  -0.0000000   0.0000000
   34  -0.1034833  -0.0000190  -0.0001245  -0.0000000  -0.0755675  -0.0000540
   35   0.0000190   0.0481956  -0.0209946  -0.0000000   0.0000304   0.0031292
   36  -0.0001245   0.0209946  -0.0139657   0.0000000  -0.0000627   0.0072146
   37  -0.0000000   0.0000000   0.0000000  -0.0481022   0.0000000   0.0000000
   38  -0.0755675  -0.0000304  -0.0000627   0.0000000  -0.0519199  -0.0000381
   39   0.0000540   0.0031292  -0.0072146  -0.0000000   0.0000381  -0.0043532
   40   0.0000059  -0.0010794   0.0007128   0.0000000   0.0000035  -0.0007671
   41  -0.0000000  -0.0000000   0.0000000   0.0000006  -0.0000000   0.0000000
   42   0.0000064  -0.0010732   0.0006842   0.0000000   0.0000045  -0.0007822
   43   0.0000000  -0.0000000  -0.0000000   0.0012872   0.0000000  -0.0000000
   44   0.0000200  -0.0000020   0.0000038   0.0000000   0.0012433   0.0000021
   45   0.0000109   0.0005407   0.0003235   0.0000000   0.0000048   0.0013632
           25          26          27          28          29          30
    1   0.0023768  -0.0000000   0.0024554   0.0000000   0.0000053  -0.0071051
    2  -0.0045729  -0.0000000  -0.0045525   0.0000000  -0.0000102   0.0142866
    3  -0.0000000  -0.0000054  -0.0000000   0.0141131   0.0000000   0.0000000
    4   0.0000002   0.0000000  -0.0000091   0.0000000   0.0135656   0.0000150
    5   0.0032133  -0.0000000   0.0033604   0.0000000   0.0000110  -0.0120374
    6  -0.0014872  -0.0000000  -0.0010538  -0.0000000  -0.0000057   0.0057292
    7  -0.0000000  -0.0000016   0.0000000   0.0041846   0.0000000  -0.0000000
    8   0.0000006  -0.0000000  -0.0000020   0.0000000   0.0038850   0.0000029
    9   0.0000009   0.0000000  -0.0002586   0.0000000   0.0000053  -0.0012167
   10   0.0002746  -0.0000000   0.0003219  -0.0000000   0.0000004  -0.0007482
   11  -0.0000000  -0.0000000  -0.0000000   0.0000006  -0.0000000   0.0000000
   12   0.0003049  -0.0000000   0.0003511  -0.0000000   0.0000014  -0.0008448
   13  -0.0000000   0.0000006  -0.0000000  -0.0015688   0.0000000  -0.0000000
   14   0.0000008   0.0000000   0.0000020   0.0000000  -0.0015849  -0.0000008
   15  -0.0000501   0.0000000  -0.0001737   0.0000000  -0.0000011  -0.0000483
   16  -0.0079428  -0.0000000  -0.0067751  -0.0000000  -0.0000008  -0.0051825
   17  -0.0010208   0.0000000  -0.0036219   0.0000000  -0.0000002  -0.0049228
   18  -0.0000000  -0.0000102   0.0000000   0.0258761   0.0000000   0.0000000
   19  -0.0000016  -0.0000000  -0.0000195   0.0000000   0.0253322   0.0000047
   20  -0.0061593  -0.0000000  -0.0051724  -0.0000000  -0.0000022   0.0241626
   21   0.0010316   0.0000000  -0.0018710   0.0000000   0.0000079  -0.0128108
   22  -0.0000000  -0.0000055   0.0000000   0.0139054   0.0000000   0.0000000
   23  -0.0000016  -0.0000000  -0.0000113   0.0000000   0.0138359   0.0000038
   24  -0.0023972  -0.0000000  -0.0019789  -0.0000000   0.0000016   0.0093143
   25   0.0002185   0.0000000   0.0002175  -0.0000000   0.0000001  -0.0004314
   26   0.0000000   0.0000000  -0.0000000  -0.0000007  -0.0000000  -0.0000000
   27   0.0002175  -0.0000000   0.0002406   0.0000000  -0.0000011  -0.0003588
   28  -0.0000000  -0.0000007   0.0000000   0.0018421   0.0000000   0.0000000
   29   0.0000001  -0.0000000  -0.0000011   0.0000000   0.0017610   0.0000001
   30  -0.0004314  -0.0000000  -0.0003588   0.0000000   0.0000001   0.0019295
   31   0.0000289  -0.0000000   0.0000597   0.0000000  -0.0000020   0.0014062
   32   0.0007039   0.0000000   0.0006120   0.0000000   0.0000044  -0.0010033
   33  -0.0000000   0.0000006  -0.0000000  -0.0007772  -0.0000000  -0.0000000
   34   0.0000059   0.0000000   0.0000064  -0.0000000  -0.0000200   0.0000109
   35   0.0010794   0.0000000   0.0010732  -0.0000000  -0.0000020  -0.0005407
   36   0.0007128   0.0000000   0.0006842  -0.0000000  -0.0000038   0.0003235
   37  -0.0000000   0.0000006  -0.0000000  -0.0012872  -0.0000000  -0.0000000
   38   0.0000035   0.0000000   0.0000045  -0.0000000  -0.0012433   0.0000048
   39   0.0007671  -0.0000000   0.0007822   0.0000000   0.0000021  -0.0013632
   40   0.0000562   0.0000000   0.0000502   0.0000000   0.0000004  -0.0001842
   41   0.0000000   0.0000000   0.0000000  -0.0000002   0.0000000  -0.0000000
   42   0.0000502   0.0000000   0.0000453   0.0000000   0.0000000  -0.0001791
   43   0.0000000   0.0000002   0.0000000  -0.0004491   0.0000000   0.0000000
   44  -0.0000004  -0.0000000  -0.0000000   0.0000000  -0.0004628  -0.0000009
   45  -0.0001842  -0.0000000  -0.0001791   0.0000000   0.0000009   0.0003491
           31          32          33          34          35          36
    1   0.0079205  -0.0161633  -0.0000000   0.0000383   0.0669002  -0.0012564
    2  -0.0097134   0.0161790   0.0000000  -0.0000891  -0.1551859  -0.0263185
    3   0.0000000  -0.0000000   0.1546032   0.0000000  -0.0000000  -0.0000000
    4  -0.0000095   0.0000248   0.0000000   0.1544090  -0.0000964  -0.0000019
    5  -0.0226497   0.0509968  -0.0000000  -0.0000929  -0.1908544  -0.0243898
    6   0.0131055  -0.0408803   0.0000000  -0.0000533  -0.0643049  -0.0578084
    7  -0.0000000   0.0000000   0.0458405   0.0000000  -0.0000000  -0.0000000
    8   0.0000028  -0.0000070   0.0000000   0.0442202  -0.0000128  -0.0000104
    9   0.0069215  -0.0273172   0.0000000  -0.0001067  -0.0175388  -0.0339641
   10   0.0028433  -0.0062250  -0.0000000   0.0000028   0.0079178  -0.0039648
   11  -0.0000000   0.0000000   0.0000064  -0.0000000  -0.0000000  -0.0000000
   12   0.0028647  -0.0062320   0.0000000   0.0000142   0.0089701  -0.0036858
   13   0.0000000  -0.0000000   0.0300167  -0.0000000   0.0000000  -0.0000000
   14  -0.0000055   0.0000097  -0.0000000   0.0309502  -0.0000240   0.0000179
   15  -0.0083797   0.0135540   0.0000000  -0.0000125   0.0014782   0.0138449
   16   0.0004918  -0.0001941  -0.0000000   0.0000057  -0.0048162  -0.0037570
   17  -0.0001941   0.0037382  -0.0000000   0.0000072   0.0147736   0.0041148
   18   0.0000000   0.0000000  -0.1175147  -0.0000000   0.0000000  -0.0000000
   19   0.0000057   0.0000072  -0.0000000  -0.1034833   0.0000190  -0.0001245
   20   0.0048162  -0.0147736  -0.0000000  -0.0000190   0.0481956   0.0209946
   21  -0.0037569   0.0041148   0.0000000  -0.0001245  -0.0209946  -0.0139657
   22  -0.0000000   0.0000000  -0.0762321  -0.0000000  -0.0000000   0.0000000
   23   0.0000024   0.0000080  -0.0000000  -0.0755675   0.0000304  -0.0000627
   24  -0.0002933  -0.0012419   0.0000000  -0.0000540   0.0031292   0.0072146
   25   0.0000289   0.0007039  -0.0000000   0.0000059   0.0010794   0.0007128
   26  -0.0000000   0.0000000   0.0000006   0.0000000   0.0000000   0.0000000
   27   0.0000597   0.0006120  -0.0000000   0.0000064   0.0010732   0.0006842
   28   0.0000000   0.0000000  -0.0007772  -0.0000000  -0.0000000  -0.0000000
   29  -0.0000020   0.0000044  -0.0000000  -0.0000200  -0.0000020  -0.0000038
   30   0.0014062  -0.0010033  -0.0000000   0.0000109  -0.0005407   0.0003235
   31   1.0407662  -0.1008771   0.0000000  -0.0000146  -0.0275692  -0.1164394
   32  -0.1008771   0.2884841  -0.0000000   0.0000234   0.0635919   0.3056184
   33   0.0000000  -0.0000000   0.3924634   0.0000000  -0.0000000  -0.0000000
   34  -0.0000146   0.0000234   0.0000000   0.3915979  -0.0000658   0.0001417
   35  -0.0275692   0.0635919  -0.0000000  -0.0000658   0.3215451   0.1726716
   36  -0.1164394   0.3056184  -0.0000000   0.0001417   0.1726716   0.3610762
   37   0.0000000  -0.0000000   0.2144605  -0.0000000   0.0000000  -0.0000000
   38  -0.0000085   0.0000106  -0.0000000   0.2189009  -0.0000624   0.0000721
   39  -0.0146455   0.0296991   0.0000000  -0.0000694   0.1211810   0.0698512
   40  -0.0079428  -0.0010208   0.0000000  -0.0000016   0.0061593   0.0010316
   41  -0.0000000   0.0000000  -0.0000102   0.0000000   0.0000000   0.0000000
   42  -0.0067751  -0.0036219   0.0000000  -0.0000195   0.0051724  -0.0018710
   43  -0.0000000  -0.0000000  -0.0258761  -0.0000000   0.0000000  -0.0000000
   44   0.0000008   0.0000002  -0.0000000  -0.0253322  -0.0000022  -0.0000079
   45  -0.0051825  -0.0049228  -0.0000000   0.0000047  -0.0241626  -0.0128108
           37          38          39          40          41          42
    1   0.0000000   0.0000170   0.0319842   0.0023768  -0.0000000   0.0024554
    2   0.0000000  -0.0000380  -0.0675257  -0.0045729  -0.0000000  -0.0045525
    3   0.0777256   0.0000000   0.0000000   0.0000000  -0.0000054   0.0000000
    4   0.0000000   0.0768165  -0.0000394   0.0000002   0.0000000  -0.0000091
    5  -0.0000000  -0.0000338  -0.0608461  -0.0032133   0.0000000  -0.0033604
    6   0.0000000  -0.0000249  -0.0275284  -0.0014872  -0.0000000  -0.0010538
    7   0.0230459   0.0000000   0.0000000   0.0000000  -0.0000016   0.0000000
    8   0.0000000   0.0219990  -0.0000047   0.0000006  -0.0000000  -0.0000020
    9   0.0000000  -0.0000613  -0.0069697  -0.0000009  -0.0000000   0.0002586
   10   0.0000000   0.0000009   0.0034809   0.0002746  -0.0000000   0.0003219
   11   0.0000032  -0.0000000  -0.0000000  -0.0000000  -0.0000000  -0.0000000
   12   0.0000000   0.0000066   0.0039384   0.0003049  -0.0000000   0.0003511
   13   0.0171098  -0.0000000   0.0000000   0.0000000  -0.0000006   0.0000000
   14  -0.0000000   0.0184088  -0.0000135  -0.0000008   0.0000000  -0.0000020
   15  -0.0000000  -0.0000060   0.0004849  -0.0000501   0.0000000  -0.0001737
   16   0.0000000   0.0000024   0.0002933   0.0000289  -0.0000000   0.0000597
   17  -0.0000000   0.0000080   0.0012419   0.0007039   0.0000000   0.0006119
   18  -0.0762321  -0.0000000   0.0000000   0.0000000   0.0000006   0.0000000
   19  -0.0000000  -0.0755675   0.0000540   0.0000059  -0.0000000   0.0000064
   20   0.0000000  -0.0000304   0.0031292  -0.0010794  -0.0000000  -0.0010732
   21   0.0000000  -0.0000627  -0.0072146   0.0007128   0.0000000   0.0006842
   22  -0.0481022   0.0000000  -0.0000000   0.0000000   0.0000006   0.0000000
   23   0.0000000  -0.0519199   0.0000381   0.0000035  -0.0000000   0.0000045
   24   0.0000000  -0.0000381  -0.0043532  -0.0007671   0.0000000  -0.0007822
   25  -0.0000000   0.0000035   0.0007671   0.0000562   0.0000000   0.0000502
   26   0.0000006   0.0000000  -0.0000000   0.0000000   0.0000000   0.0000000
   27  -0.0000000   0.0000045   0.0007822   0.0000502   0.0000000   0.0000453
   28  -0.0012872  -0.0000000   0.0000000   0.0000000  -0.0000002   0.0000000
   29  -0.0000000  -0.0012433   0.0000021   0.0000004   0.0000000   0.0000000
   30  -0.0000000   0.0000048  -0.0013632  -0.0001842  -0.0000000  -0.0001791
   31   0.0000000  -0.0000085  -0.0146455  -0.0079428  -0.0000000  -0.0067751
   32  -0.0000000   0.0000106   0.0296991  -0.0010208   0.0000000  -0.0036219
   33   0.2144605  -0.0000000   0.0000000   0.0000000  -0.0000102   0.0000000
   34  -0.0000000   0.2189009  -0.0000694  -0.0000016   0.0000000  -0.0000195
   35   0.0000000  -0.0000624   0.1211810   0.0061593   0.0000000   0.0051724
   36  -0.0000000   0.0000721   0.0698512   0.0010316   0.0000000  -0.0018710
   37   0.1175955  -0.0000000   0.0000000   0.0000000  -0.0000055   0.0000000
   38  -0.0000000   0.1232264  -0.0000496  -0.0000016   0.0000000  -0.0000113
   39   0.0000000  -0.0000496   0.0466780   0.0023972   0.0000000   0.0019789
   40   0.0000000  -0.0000016   0.0023972   0.0002185   0.0000000   0.0002175
   41  -0.0000055   0.0000000   0.0000000   0.0000000   0.0000000  -0.0000000
   42   0.0000000  -0.0000113   0.0019789   0.0002175  -0.0000000   0.0002406
   43  -0.0139054  -0.0000000  -0.0000000  -0.0000000   0.0000007   0.0000000
   44  -0.0000000  -0.0138359   0.0000016  -0.0000001  -0.0000000   0.0000011
   45  -0.0000000   0.0000038  -0.0093143  -0.0004314  -0.0000000  -0.0003588
           43          44          45
    1   0.0000000  -0.0000053  -0.0071051
    2  -0.0000000   0.0000102   0.0142866
    3  -0.0141131  -0.0000000   0.0000000
    4  -0.0000000  -0.0135656   0.0000150
    5  -0.0000000   0.0000110   0.0120374
    6  -0.0000000   0.0000057   0.0057292
    7  -0.0041846  -0.0000000   0.0000000
    8  -0.0000000  -0.0038850   0.0000029
    9  -0.0000000   0.0000053   0.0012167
   10   0.0000000  -0.0000004  -0.0007482
   11  -0.0000006   0.0000000   0.0000000
   12   0.0000000  -0.0000014  -0.0008448
   13  -0.0015688   0.0000000  -0.0000000
   14   0.0000000  -0.0015849   0.0000008
   15  -0.0000000   0.0000011  -0.0000483
   16  -0.0000000   0.0000020   0.0014062
   17   0.0000000  -0.0000044  -0.0010033
   18   0.0007772   0.0000000   0.0000000
   19   0.0000000   0.0000200   0.0000109
   20  -0.0000000  -0.0000020   0.0005407
   21  -0.0000000   0.0000038   0.0003235
   22   0.0012872   0.0000000   0.0000000
   23   0.0000000   0.0012433   0.0000048
   24  -0.0000000   0.0000021   0.0013632
   25   0.0000000  -0.0000004  -0.0001842
   26   0.0000002  -0.0000000  -0.0000000
   27   0.0000000  -0.0000000  -0.0001791
   28  -0.0004491   0.0000000   0.0000000
   29   0.0000000  -0.0004628   0.0000009
   30   0.0000000  -0.0000009   0.0003491
   31  -0.0000000   0.0000008  -0.0051825
   32  -0.0000000   0.0000002  -0.0049228
   33  -0.0258761  -0.0000000  -0.0000000
   34  -0.0000000  -0.0253322   0.0000047
   35   0.0000000  -0.0000022  -0.0241626
   36  -0.0000000  -0.0000079  -0.0128108
   37  -0.0139054  -0.0000000  -0.0000000
   38  -0.0000000  -0.0138359   0.0000038
   39  -0.0000000   0.0000016  -0.0093143
   40  -0.0000000  -0.0000001  -0.0004314
   41   0.0000007  -0.0000000  -0.0000000
   42   0.0000000   0.0000011  -0.0003588
   43   0.0018421   0.0000000  -0.0000000
   44   0.0000000   0.0017610  -0.0000001
   45  -0.0000000  -0.0000001   0.0019295
 Final Beta MO Coefficients
            1           2           3           4           5           6
    1  -0.0001543   0.0000002   0.9927881  -0.1555567  -0.0000001  -0.1317750
    2   0.0001452  -0.0000002   0.0496728   0.3081580   0.0000002   0.3296930
    3   0.0000000   0.0000000   0.0000000   0.0000000   0.0000000   0.0000000
    4  -0.0000007   0.0000000   0.0000010   0.0000981  -0.0000000   0.0000246
    5  -0.0000003  -0.0002219  -0.0000000  -0.0000003   0.3390049   0.0000002
    6  -0.0053293   0.0000084  -0.0007215   0.0072774   0.0000000   0.1841681
    7  -0.0000000   0.0000000  -0.0000000   0.0000000   0.0000000   0.0000000
    8  -0.0000015   0.0000000   0.0000011  -0.0000330   0.0000000  -0.0000120
    9  -0.0000114  -0.0071854  -0.0000000   0.0000000  -0.0496463   0.0000000
   10  -0.0000522   0.0000001  -0.0104912  -0.0294180  -0.0000000  -0.0114237
   11   0.0000000   0.0000000   0.0000000   0.0000000   0.0000000   0.0000000
   12  -0.0000521   0.0000001  -0.0105470  -0.0312469  -0.0000000  -0.0137618
   13   0.0000000   0.0000000   0.0000000  -0.0000000  -0.0000000   0.0000000
   14  -0.0000000  -0.0000006  -0.0000000  -0.0000000   0.0000347   0.0000000
   15  -0.0034332   0.0000054  -0.0063095   0.0319960   0.0000000  -0.0169247
   16   0.7009726  -0.7029764  -0.0002762  -0.1353999   0.1467287   0.0968261
   17   0.0184528  -0.0173916   0.0000907   0.3021663  -0.3332797  -0.2333779
   18  -0.0000000   0.0000000   0.0000000  -0.0000000   0.0000000   0.0000000
   19  -0.0000009   0.0000002   0.0000004  -0.0000429   0.0000640  -0.0001176
   20   0.0018281  -0.0009571  -0.0004697   0.1357880  -0.1412377   0.3438498
   21   0.0095301  -0.0140949  -0.0032567   0.2617222  -0.2750800  -0.3239674
   22   0.0000000  -0.0000000   0.0000000   0.0000000   0.0000000   0.0000000
   23  -0.0000005   0.0000015   0.0000011  -0.0000097   0.0000236  -0.0000505
   24   0.0019439  -0.0017247  -0.0029408   0.0622641  -0.0321578   0.1470590
   25  -0.0057475   0.0061627   0.0003388  -0.0063432   0.0046998  -0.0079898
   26  -0.0000000   0.0000000  -0.0000000   0.0000000  -0.0000000  -0.0000000
   27  -0.0057266   0.0061396   0.0003425  -0.0089045   0.0073420  -0.0055346
   28   0.0000000   0.0000000   0.0000000   0.0000000  -0.0000000  -0.0000000
   29  -0.0000011   0.0000001   0.0000010  -0.0000055   0.0000148  -0.0000159
   30  -0.0041861   0.0058615  -0.0009315   0.0139550  -0.0082752   0.0304318
   31   0.7031916   0.7007567  -0.0002762  -0.1353996  -0.1467289   0.0968261
   32   0.0185077   0.0173332   0.0000907   0.3021657   0.3332803  -0.2333780
   33  -0.0000000   0.0000000   0.0000000   0.0000000  -0.0000000   0.0000000
   34  -0.0000009  -0.0000002   0.0000004  -0.0000429  -0.0000640  -0.0001176
   35  -0.0018312  -0.0009513   0.0004697  -0.1357877  -0.1412379  -0.3438501
   36   0.0095746   0.0140647  -0.0032566   0.2617218   0.2750805  -0.3239676
   37   0.0000000  -0.0000000   0.0000000  -0.0000000  -0.0000000   0.0000000
   38  -0.0000005  -0.0000015   0.0000011  -0.0000097  -0.0000236  -0.0000505
   39  -0.0019493  -0.0017186   0.0029408  -0.0622641  -0.0321579  -0.1470591
   40  -0.0057670  -0.0061445   0.0003388  -0.0063432  -0.0046998  -0.0079898
   41  -0.0000000  -0.0000000  -0.0000000   0.0000000   0.0000000  -0.0000000
   42  -0.0057460  -0.0061214   0.0003425  -0.0089045  -0.0073420  -0.0055346
   43  -0.0000000  -0.0000000   0.0000000  -0.0000000  -0.0000000  -0.0000000
   44   0.0000011   0.0000001  -0.0000010   0.0000055   0.0000148   0.0000159
   45  -0.0042046  -0.0058483  -0.0009315   0.0139550   0.0082752   0.0304318
            7           8           9          10          11          12
    1  -0.0000001   0.0000415   0.0000000   0.0000000   0.0000000   0.0000000
    2   0.0000001  -0.0000978  -0.0000000   0.0000000  -0.0000000  -0.0000000
    3   0.0000000  -0.0000000   0.4169731  -0.0000000   0.0000000   0.6499924
    4   0.0000000   0.4068226   0.0000000  -0.0000001  -0.0000000   0.0000000
    5  -0.3520623   0.0000000   0.0000000   0.0000214   0.0000000  -0.0000000
    6   0.0000000  -0.0000825  -0.0000000   0.0000000   0.0000000  -0.0000000
    7   0.0000000  -0.0000000   0.1236342  -0.0000000  -0.0000000   0.4990295
    8   0.0000000   0.1165072   0.0000000   0.0000000  -0.0000000   0.0000000
    9  -0.0604711   0.0000000   0.0000000  -0.0001925  -0.0000000   0.0000000
   10  -0.0000000   0.0000005   0.0000000   0.0000000   0.0000000  -0.0000000
   11   0.0000000  -0.0000000   0.0000172   0.0000000  -0.0000000  -0.0000206
   12  -0.0000000   0.0000296   0.0000000  -0.0000000   0.0000000  -0.0000000
   13   0.0000000   0.0000000  -0.0000000  -0.0000000   0.0594432   0.0000000
   14  -0.0000022  -0.0000000   0.0000000   0.0622071   0.0000000   0.0000000
   15  -0.0000000  -0.0000346  -0.0000000   0.0000000  -0.0000000   0.0000000
   16   0.0773948   0.0000046  -0.0000000   0.0000028  -0.0000000  -0.0000000
   17  -0.1760567   0.0000022   0.0000000   0.0000231   0.0000000   0.0000000
   18   0.0000000  -0.0000000   0.3707755   0.0000000  -0.5049640  -0.3913442
   19  -0.0002325   0.3795488   0.0000000  -0.4975344  -0.0000000  -0.0000000
   20   0.4061051   0.0001835   0.0000000  -0.0002932  -0.0000000   0.0000000
   21  -0.3341461  -0.0000482   0.0000000  -0.0001468  -0.0000000   0.0000000
   22   0.0000000  -0.0000000   0.1864045   0.0000000  -0.2878346  -0.3383139
   23  -0.0000912   0.1888206   0.0000000  -0.2959275  -0.0000000  -0.0000000
   24   0.1418637   0.0000730   0.0000000  -0.0001944  -0.0000000   0.0000000
   25  -0.0046054   0.0000026   0.0000000   0.0000103   0.0000000  -0.0000000
   26  -0.0000000   0.0000000  -0.0000130  -0.0000000   0.0000107  -0.0000084
   27  -0.0024791  -0.0000199  -0.0000000   0.0000282   0.0000000  -0.0000000
   28  -0.0000000  -0.0000000   0.0338465   0.0000000  -0.0263912   0.0165360
   29  -0.0000185   0.0333452   0.0000000  -0.0254778  -0.0000000   0.0000000
   30   0.0262192   0.0000316   0.0000000  -0.0000072  -0.0000000   0.0000000
   31  -0.0773947   0.0000046   0.0000000  -0.0000028  -0.0000000  -0.0000000
   32   0.1760565   0.0000022   0.0000000  -0.0000231  -0.0000000   0.0000000
   33   0.0000000  -0.0000000   0.3707750  -0.0000000   0.5049646  -0.3913440
   34   0.0002325   0.3795488   0.0000000   0.4975345   0.0000000  -0.0000000
   35   0.4061048  -0.0001835  -0.0000000  -0.0002932  -0.0000000  -0.0000000
   36   0.3341458  -0.0000482  -0.0000000   0.0001468   0.0000000   0.0000000
   37   0.0000000  -0.0000000   0.1864043  -0.0000000   0.2878348  -0.3383137
   38   0.0000911   0.1888206   0.0000000   0.2959276   0.0000000  -0.0000000
   39   0.1418636  -0.0000730  -0.0000000  -0.0001944  -0.0000000  -0.0000000
   40   0.0046054   0.0000026   0.0000000  -0.0000103  -0.0000000  -0.0000000
   41   0.0000000   0.0000000  -0.0000130   0.0000000  -0.0000107  -0.0000084
   42   0.0024791  -0.0000199  -0.0000000  -0.0000282  -0.0000000  -0.0000000
   43  -0.0000000   0.0000000  -0.0338465   0.0000000  -0.0263912  -0.0165361
   44  -0.0000185  -0.0333452  -0.0000000  -0.0254778  -0.0000000  -0.0000000
   45  -0.0262192   0.0000316   0.0000000   0.0000072   0.0000000   0.0000000
           13          14          15
    1   0.0003278  -0.1174015   0.0000000
    2  -0.0005378   0.1534276  -0.0000000
    3  -0.0000000  -0.0000000   0.0000000
    4   0.6581554   0.0017708   0.0000000
    5   0.0000000   0.0000002  -0.0424676
    6  -0.0042706   1.9407050   0.0000008
    7  -0.0000000  -0.0000000  -0.0000000
    8   0.5005706   0.0018222   0.0000001
    9   0.0000000   0.0000000  -3.9686876
   10  -0.0000860   0.0397499  -0.0000000
   11   0.0000000   0.0000000  -0.0000000
   12  -0.0001138   0.0356584  -0.0000000
   13  -0.0000000   0.0000000   0.0000000
   14   0.0000000   0.0000000  -0.0000199
   15   0.0002064  -0.0750847   0.0000000
   16  -0.0001617   0.0724552   0.0961266
   17   0.0004186  -0.1891376  -0.0700281
   18   0.0000000   0.0000000   0.0000000
   19  -0.3844298  -0.0008571   0.0001898
   20   0.0007366  -0.3389768   0.0814060
   21   0.0014703  -0.7381367  -2.7877327
   22   0.0000000   0.0000000  -0.0000000
   23  -0.3356756  -0.0007775   0.0006179
   24   0.0008857  -0.4654798  -0.8185584
   25  -0.0000332   0.0156853   0.0757675
   26   0.0000000  -0.0000000   0.0000000
   27  -0.0000508   0.0169859   0.0752349
   28  -0.0000000  -0.0000000  -0.0000000
   29   0.0166833   0.0000754   0.0000226
   30   0.0000366  -0.0132848  -0.0018019
   31  -0.0001617   0.0724552  -0.0961266
   32   0.0004186  -0.1891376   0.0700282
   33   0.0000000   0.0000000   0.0000000
   34  -0.3844297  -0.0008571  -0.0001898
   35  -0.0007366   0.3389770   0.0814059
   36   0.0014703  -0.7381366   2.7877317
   37   0.0000000   0.0000000   0.0000000
   38  -0.3356755  -0.0007775  -0.0006178
   39  -0.0008858   0.4654800  -0.8185584
   40  -0.0000332   0.0156853  -0.0757674
   41   0.0000000  -0.0000000  -0.0000000
   42  -0.0000508   0.0169859  -0.0752349
   43   0.0000000   0.0000000  -0.0000000
   44  -0.0166833  -0.0000754   0.0000226
   45   0.0000366  -0.0132848   0.0018019
 Final Beta density matrix.
            1           2           3           4           5           6
    1   1.0271907  -0.0420668   0.0000000  -0.0000006   0.0000000  -0.0261163
    2  -0.0420668   0.2061262   0.0000000  -0.0000014  -0.0000000   0.0629249
    3   0.0000000   0.0000000   0.1738666   0.0000000   0.0000000   0.0000000
    4  -0.0000006  -0.0000014   0.0000000   0.1655046  -0.0000000  -0.0000283
    5   0.0000000  -0.0000000   0.0000000  -0.0000000   0.2388722   0.0000000
    6  -0.0261163   0.0629249   0.0000000  -0.0000283   0.0000000   0.0339998
    7  -0.0000000  -0.0000000   0.0515521   0.0000000   0.0000000  -0.0000000
    8   0.0000126  -0.0000255   0.0000000   0.0473978   0.0000000  -0.0000120
    9  -0.0000000   0.0000000   0.0000000   0.0000000   0.0044608   0.0000000
   10  -0.0043340  -0.0133528  -0.0000000  -0.0000030   0.0000000  -0.0023101
   11  -0.0000000   0.0000000   0.0000072   0.0000000   0.0000000   0.0000000
   12  -0.0037968  -0.0146901  -0.0000000   0.0000086   0.0000000  -0.0027540
   13   0.0000000   0.0000000  -0.0000000   0.0000000  -0.0000000   0.0000000
   14   0.0000000  -0.0000000  -0.0000000  -0.0000000   0.0000138   0.0000000
   15  -0.0090104   0.0039660   0.0000000  -0.0000114   0.0000000  -0.0028613
   16   0.0079205  -0.0097134  -0.0000000  -0.0000095   0.0226498   0.0131055
   17  -0.0161633   0.0161790  -0.0000000   0.0000248  -0.0509968  -0.0408803
   18   0.0000000  -0.0000000   0.1546034   0.0000000   0.0000000  -0.0000000
   19   0.0000383  -0.0000891   0.0000000   0.1544091   0.0000929  -0.0000533
   20  -0.0669002   0.1551860   0.0000000   0.0000964  -0.1908544   0.0643049
   21  -0.0012564  -0.0263185   0.0000000  -0.0000019   0.0243898  -0.0578083
   22   0.0000000  -0.0000000   0.0777257   0.0000000   0.0000000  -0.0000000
   23   0.0000170  -0.0000380   0.0000000   0.0768165   0.0000338  -0.0000249
   24  -0.0319842   0.0675257   0.0000000   0.0000394  -0.0608461   0.0275284
   25   0.0023768  -0.0045729  -0.0000000   0.0000002   0.0032133  -0.0014872
   26  -0.0000000  -0.0000000  -0.0000054   0.0000000  -0.0000000  -0.0000000
   27   0.0024554  -0.0045525  -0.0000000  -0.0000091   0.0033604  -0.0010538
   28   0.0000000  -0.0000000   0.0141131   0.0000000   0.0000000  -0.0000000
   29   0.0000053  -0.0000102   0.0000000   0.0135656   0.0000110  -0.0000057
   30  -0.0071051   0.0142866   0.0000000   0.0000150  -0.0120374   0.0057292
   31   0.0079205  -0.0097134   0.0000000  -0.0000095  -0.0226497   0.0131055
   32  -0.0161633   0.0161790  -0.0000000   0.0000248   0.0509968  -0.0408803
   33  -0.0000000   0.0000000   0.1546032   0.0000000  -0.0000000   0.0000000
   34   0.0000383  -0.0000891   0.0000000   0.1544090  -0.0000929  -0.0000533
   35   0.0669002  -0.1551859  -0.0000000  -0.0000964  -0.1908544  -0.0643049
   36  -0.0012564  -0.0263185  -0.0000000  -0.0000019  -0.0243898  -0.0578084
   37   0.0000000   0.0000000   0.0777256   0.0000000  -0.0000000   0.0000000
   38   0.0000170  -0.0000380   0.0000000   0.0768165  -0.0000338  -0.0000249
   39   0.0319842  -0.0675257   0.0000000  -0.0000394  -0.0608461  -0.0275284
   40   0.0023768  -0.0045729   0.0000000   0.0000002  -0.0032133  -0.0014872
   41  -0.0000000  -0.0000000  -0.0000054   0.0000000   0.0000000  -0.0000000
   42   0.0024554  -0.0045525   0.0000000  -0.0000091  -0.0033604  -0.0010538
   43   0.0000000  -0.0000000  -0.0141131  -0.0000000   0.0000000  -0.0000000
   44  -0.0000053   0.0000102  -0.0000000  -0.0135656   0.0000110   0.0000057
   45  -0.0071051   0.0142866   0.0000000   0.0000150   0.0120374   0.0057292
            7           8           9          10          11          12
    1  -0.0000000   0.0000126  -0.0000000  -0.0043340  -0.0000000  -0.0037968
    2  -0.0000000  -0.0000255   0.0000000  -0.0133528   0.0000000  -0.0146901
    3   0.0515521   0.0000000   0.0000000  -0.0000000   0.0000072  -0.0000000
    4   0.0000000   0.0473978   0.0000000  -0.0000030   0.0000000   0.0000086
    5   0.0000000   0.0000000   0.0044608   0.0000000   0.0000000   0.0000000
    6  -0.0000000  -0.0000120   0.0000000  -0.0023101   0.0000000  -0.0027540
    7   0.0152854   0.0000000   0.0000000   0.0000000   0.0000021   0.0000000
    8   0.0000000   0.0135739   0.0000000   0.0000012   0.0000000   0.0000046
    9   0.0000000   0.0000000   0.0061732   0.0000000  -0.0000000   0.0000000
   10   0.0000000   0.0000012   0.0000000   0.0011060  -0.0000000   0.0011871
   11   0.0000021   0.0000000  -0.0000000  -0.0000000   0.0000000  -0.0000000
   12   0.0000000   0.0000046   0.0000000   0.0011871  -0.0000000   0.0012770
   13  -0.0000000   0.0000000   0.0000000  -0.0000000  -0.0000000  -0.0000000
   14  -0.0000000  -0.0000000  -0.0000136   0.0000000   0.0000000  -0.0000000
   15   0.0000000  -0.0000049  -0.0000000  -0.0006815   0.0000000  -0.0007001
   16  -0.0000000   0.0000028  -0.0069215   0.0028433  -0.0000000   0.0028647
   17   0.0000000  -0.0000070   0.0273172  -0.0062250   0.0000000  -0.0062320
   18   0.0458405   0.0000000  -0.0000000  -0.0000000   0.0000064  -0.0000000
   19   0.0000000   0.0442202   0.0001067   0.0000028  -0.0000000   0.0000142
   20  -0.0000000   0.0000128  -0.0175388  -0.0079178   0.0000000  -0.0089701
   21   0.0000000  -0.0000104   0.0339641  -0.0039648  -0.0000000  -0.0036858
   22   0.0230460   0.0000000  -0.0000000  -0.0000000   0.0000032  -0.0000000
   23   0.0000000   0.0219990   0.0000613   0.0000009  -0.0000000   0.0000066
   24  -0.0000000   0.0000047  -0.0069697  -0.0034809   0.0000000  -0.0039384
   25  -0.0000000   0.0000006   0.0000009   0.0002746  -0.0000000   0.0003049
   26  -0.0000016  -0.0000000   0.0000000  -0.0000000  -0.0000000  -0.0000000
   27   0.0000000  -0.0000020  -0.0002586   0.0003219  -0.0000000   0.0003511
   28   0.0041846   0.0000000  -0.0000000  -0.0000000   0.0000006  -0.0000000
   29   0.0000000   0.0038850   0.0000053   0.0000004  -0.0000000   0.0000014
   30  -0.0000000   0.0000029  -0.0012167  -0.0007482   0.0000000  -0.0008448
   31  -0.0000000   0.0000028   0.0069215   0.0028433  -0.0000000   0.0028647
   32   0.0000000  -0.0000070  -0.0273172  -0.0062250   0.0000000  -0.0062320
   33   0.0458405   0.0000000   0.0000000  -0.0000000   0.0000064  -0.0000000
   34   0.0000000   0.0442202  -0.0001067   0.0000028  -0.0000000   0.0000142
   35  -0.0000000  -0.0000128  -0.0175388   0.0079178  -0.0000000   0.0089701
   36  -0.0000000  -0.0000104  -0.0339641  -0.0039648  -0.0000000  -0.0036858
   37   0.0230459   0.0000000   0.0000000  -0.0000000   0.0000032  -0.0000000
   38   0.0000000   0.0219990  -0.0000613   0.0000009  -0.0000000   0.0000066
   39   0.0000000  -0.0000047  -0.0069697   0.0034809  -0.0000000   0.0039384
   40   0.0000000   0.0000006  -0.0000009   0.0002746  -0.0000000   0.0003049
   41  -0.0000016  -0.0000000  -0.0000000  -0.0000000  -0.0000000  -0.0000000
   42   0.0000000  -0.0000020   0.0002586   0.0003219  -0.0000000   0.0003511
   43  -0.0041846  -0.0000000  -0.0000000   0.0000000  -0.0000006   0.0000000
   44  -0.0000000  -0.0038850   0.0000053  -0.0000004   0.0000000  -0.0000014
   45   0.0000000   0.0000029   0.0012167  -0.0007482   0.0000000  -0.0008448
           13          14          15          16          17          18
    1   0.0000000   0.0000000  -0.0090104   0.0079205  -0.0161633   0.0000000
    2   0.0000000  -0.0000000   0.0039660  -0.0097134   0.0161790  -0.0000000
    3  -0.0000000  -0.0000000   0.0000000  -0.0000000  -0.0000000   0.1546034
    4   0.0000000  -0.0000000  -0.0000114  -0.0000095   0.0000248   0.0000000
    5  -0.0000000   0.0000138   0.0000000   0.0226498  -0.0509968   0.0000000
    6   0.0000000   0.0000000  -0.0028613   0.0131055  -0.0408803  -0.0000000
    7  -0.0000000  -0.0000000   0.0000000  -0.0000000   0.0000000   0.0458405
    8   0.0000000  -0.0000000  -0.0000049   0.0000028  -0.0000070   0.0000000
    9   0.0000000  -0.0000136  -0.0000000  -0.0069215   0.0273172  -0.0000000
   10  -0.0000000   0.0000000  -0.0006815   0.0028433  -0.0062250  -0.0000000
   11  -0.0000000   0.0000000   0.0000000  -0.0000000   0.0000000   0.0000064
   12  -0.0000000  -0.0000000  -0.0007001   0.0028647  -0.0062320  -0.0000000
   13   0.0000000  -0.0000000  -0.0000000   0.0000000  -0.0000000  -0.0000000
   14  -0.0000000   0.0038697   0.0000000   0.0000055  -0.0000097   0.0000000
   15  -0.0000000   0.0000000   0.0013618  -0.0083797   0.0135540   0.0000000
   16   0.0000000   0.0000055  -0.0083797   1.0407662  -0.1008771  -0.0000000
   17  -0.0000000  -0.0000097   0.0135540  -0.1008771   0.2884840   0.0000000
   18  -0.0000000   0.0000000   0.0000000  -0.0000000   0.0000000   0.1374745
   19   0.0000000  -0.0309502  -0.0000125  -0.0000146   0.0000234  -0.0000000
   20   0.0000000  -0.0000240  -0.0014782   0.0275692  -0.0635919  -0.0000000
   21   0.0000000  -0.0000179   0.0138449  -0.1164394   0.3056184  -0.0000000
   22  -0.0000000   0.0000000   0.0000000   0.0000000   0.0000000   0.0691142
   23   0.0000000  -0.0184088  -0.0000060  -0.0000085   0.0000106  -0.0000000
   24   0.0000000  -0.0000135  -0.0004849   0.0146455  -0.0296991  -0.0000000
   25  -0.0000000   0.0000008  -0.0000501  -0.0079428  -0.0010208   0.0000000
   26   0.0000000  -0.0000000   0.0000000  -0.0000000   0.0000000  -0.0000048
   27  -0.0000000   0.0000020  -0.0001737  -0.0067751  -0.0036219   0.0000000
   28  -0.0000000   0.0000000   0.0000000  -0.0000000   0.0000000   0.0125495
   29   0.0000000  -0.0015849  -0.0000011  -0.0000008  -0.0000002  -0.0000000
   30   0.0000000  -0.0000008  -0.0000483  -0.0051825  -0.0049228  -0.0000000
   31   0.0000000  -0.0000055  -0.0083797   0.0004918  -0.0001941   0.0000000
   32   0.0000000   0.0000097   0.0135540  -0.0001941   0.0037382  -0.0000000
   33  -0.0000000  -0.0000000   0.0000000  -0.0000000  -0.0000000   0.1374743
   34  -0.0000000   0.0309502  -0.0000125   0.0000057   0.0000072   0.0000000
   35   0.0000000  -0.0000240   0.0014782  -0.0048162   0.0147736  -0.0000000
   36  -0.0000000   0.0000179   0.0138449  -0.0037570   0.0041148   0.0000000
   37  -0.0000000  -0.0000000   0.0000000   0.0000000  -0.0000000   0.0691141
   38  -0.0000000   0.0184088  -0.0000060   0.0000024   0.0000080   0.0000000
   39   0.0000000  -0.0000135   0.0004849   0.0002933   0.0012419  -0.0000000
   40   0.0000000  -0.0000008  -0.0000501   0.0000289   0.0007039  -0.0000000
   41   0.0000000   0.0000000   0.0000000  -0.0000000   0.0000000  -0.0000048
   42   0.0000000  -0.0000020  -0.0001737   0.0000597   0.0006119  -0.0000000
   43   0.0000000   0.0000000  -0.0000000  -0.0000000   0.0000000  -0.0125495
   44   0.0000000  -0.0015849   0.0000011   0.0000020  -0.0000044  -0.0000000
   45  -0.0000000   0.0000008  -0.0000483   0.0014062  -0.0010033   0.0000000
           19          20          21          22          23          24
    1   0.0000383  -0.0669002  -0.0012564   0.0000000   0.0000170  -0.0319842
    2  -0.0000891   0.1551860  -0.0263185  -0.0000000  -0.0000380   0.0675257
    3   0.0000000   0.0000000   0.0000000   0.0777257   0.0000000   0.0000000
    4   0.1544091   0.0000964  -0.0000019   0.0000000   0.0768165   0.0000394
    5   0.0000929  -0.1908544   0.0243898   0.0000000   0.0000338  -0.0608461
    6  -0.0000533   0.0643049  -0.0578083  -0.0000000  -0.0000249   0.0275284
    7   0.0000000  -0.0000000   0.0000000   0.0230460   0.0000000  -0.0000000
    8   0.0442202   0.0000128  -0.0000104   0.0000000   0.0219990   0.0000047
    9   0.0001067  -0.0175388   0.0339641  -0.0000000   0.0000613  -0.0069697
   10   0.0000028  -0.0079178  -0.0039648  -0.0000000   0.0000009  -0.0034809
   11  -0.0000000   0.0000000  -0.0000000   0.0000032  -0.0000000   0.0000000
   12   0.0000142  -0.0089701  -0.0036858  -0.0000000   0.0000066  -0.0039384
   13   0.0000000   0.0000000   0.0000000  -0.0000000   0.0000000   0.0000000
   14  -0.0309502  -0.0000240  -0.0000179   0.0000000  -0.0184088  -0.0000135
   15  -0.0000125  -0.0014782   0.0138449   0.0000000  -0.0000060  -0.0004849
   16  -0.0000146   0.0275692  -0.1164394   0.0000000  -0.0000085   0.0146455
   17   0.0000234  -0.0635919   0.3056184   0.0000000   0.0000106  -0.0296991
   18  -0.0000000  -0.0000000  -0.0000000   0.0691142  -0.0000000  -0.0000000
   19   0.3915979   0.0000658   0.0001417  -0.0000000   0.2189008   0.0000694
   20   0.0000658   0.3215451  -0.1726717  -0.0000000   0.0000624   0.1211810
   21   0.0001417  -0.1726717   0.3610762  -0.0000000   0.0000721  -0.0698512
   22  -0.0000000  -0.0000000  -0.0000000   0.0347466  -0.0000000  -0.0000000
   23   0.2189008   0.0000624   0.0000721  -0.0000000   0.1232263   0.0000496
   24   0.0000694   0.1211810  -0.0698512  -0.0000000   0.0000496   0.0466780
   25  -0.0000016  -0.0061593   0.0010316   0.0000000  -0.0000016  -0.0023972
   26   0.0000000  -0.0000000   0.0000000  -0.0000024   0.0000000  -0.0000000
   27  -0.0000195  -0.0051724  -0.0018710   0.0000000  -0.0000113  -0.0019789
   28  -0.0000000  -0.0000000   0.0000000   0.0063091  -0.0000000  -0.0000000
   29   0.0253322  -0.0000022   0.0000079  -0.0000000   0.0138359   0.0000016
   30   0.0000047   0.0241626  -0.0128108  -0.0000000   0.0000038   0.0093143
   31   0.0000057   0.0048162  -0.0037569  -0.0000000   0.0000024  -0.0002933
   32   0.0000072  -0.0147736   0.0041148  -0.0000000   0.0000080  -0.0012419
   33   0.0000000   0.0000000   0.0000000   0.0691141   0.0000000   0.0000000
   34  -0.1034833  -0.0000190  -0.0001245   0.0000000  -0.0755675  -0.0000540
   35   0.0000190   0.0481956  -0.0209946  -0.0000000   0.0000304   0.0031292
   36  -0.0001245   0.0209946  -0.0139657   0.0000000  -0.0000627   0.0072146
   37   0.0000000   0.0000000   0.0000000   0.0347466   0.0000000   0.0000000
   38  -0.0755675  -0.0000304  -0.0000627   0.0000000  -0.0519199  -0.0000381
   39   0.0000540   0.0031292  -0.0072146  -0.0000000   0.0000381  -0.0043532
   40   0.0000059  -0.0010794   0.0007128  -0.0000000   0.0000035  -0.0007671
   41  -0.0000000  -0.0000000   0.0000000  -0.0000024  -0.0000000   0.0000000
   42   0.0000064  -0.0010732   0.0006842  -0.0000000   0.0000045  -0.0007822
   43  -0.0000000  -0.0000000  -0.0000000  -0.0063091  -0.0000000  -0.0000000
   44   0.0000200  -0.0000020   0.0000038  -0.0000000   0.0012433   0.0000021
   45   0.0000109   0.0005407   0.0003235   0.0000000   0.0000048   0.0013632
           25          26          27          28          29          30
    1   0.0023768  -0.0000000   0.0024554   0.0000000   0.0000053  -0.0071051
    2  -0.0045729  -0.0000000  -0.0045525  -0.0000000  -0.0000102   0.0142866
    3  -0.0000000  -0.0000054  -0.0000000   0.0141131   0.0000000   0.0000000
    4   0.0000002   0.0000000  -0.0000091   0.0000000   0.0135656   0.0000150
    5   0.0032133  -0.0000000   0.0033604   0.0000000   0.0000110  -0.0120374
    6  -0.0014872  -0.0000000  -0.0010538  -0.0000000  -0.0000057   0.0057292
    7  -0.0000000  -0.0000016   0.0000000   0.0041846   0.0000000  -0.0000000
    8   0.0000006  -0.0000000  -0.0000020   0.0000000   0.0038850   0.0000029
    9   0.0000009   0.0000000  -0.0002586  -0.0000000   0.0000053  -0.0012167
   10   0.0002746  -0.0000000   0.0003219  -0.0000000   0.0000004  -0.0007482
   11  -0.0000000  -0.0000000  -0.0000000   0.0000006  -0.0000000   0.0000000
   12   0.0003049  -0.0000000   0.0003511  -0.0000000   0.0000014  -0.0008448
   13  -0.0000000   0.0000000  -0.0000000  -0.0000000   0.0000000   0.0000000
   14   0.0000008  -0.0000000   0.0000020   0.0000000  -0.0015849  -0.0000008
   15  -0.0000501   0.0000000  -0.0001737   0.0000000  -0.0000011  -0.0000483
   16  -0.0079428  -0.0000000  -0.0067751  -0.0000000  -0.0000008  -0.0051825
   17  -0.0010208   0.0000000  -0.0036219   0.0000000  -0.0000002  -0.0049228
   18   0.0000000  -0.0000048   0.0000000   0.0125495  -0.0000000  -0.0000000
   19  -0.0000016   0.0000000  -0.0000195  -0.0000000   0.0253322   0.0000047
   20  -0.0061593  -0.0000000  -0.0051724  -0.0000000  -0.0000022   0.0241626
   21   0.0010316   0.0000000  -0.0018710   0.0000000   0.0000079  -0.0128108
   22   0.0000000  -0.0000024   0.0000000   0.0063091  -0.0000000  -0.0000000
   23  -0.0000016   0.0000000  -0.0000113  -0.0000000   0.0138359   0.0000038
   24  -0.0023972  -0.0000000  -0.0019789  -0.0000000   0.0000016   0.0093143
   25   0.0002185   0.0000000   0.0002175   0.0000000   0.0000001  -0.0004314
   26   0.0000000   0.0000000  -0.0000000  -0.0000004   0.0000000  -0.0000000
   27   0.0002175  -0.0000000   0.0002406   0.0000000  -0.0000011  -0.0003588
   28   0.0000000  -0.0000004   0.0000000   0.0011456  -0.0000000  -0.0000000
   29   0.0000001   0.0000000  -0.0000011  -0.0000000   0.0017610   0.0000001
   30  -0.0004314  -0.0000000  -0.0003588  -0.0000000   0.0000001   0.0019295
   31   0.0000289  -0.0000000   0.0000597   0.0000000  -0.0000020   0.0014062
   32   0.0007039   0.0000000   0.0006120  -0.0000000   0.0000044  -0.0010033
   33  -0.0000000  -0.0000048  -0.0000000   0.0125494   0.0000000   0.0000000
   34   0.0000059  -0.0000000   0.0000064   0.0000000  -0.0000200   0.0000109
   35   0.0010794   0.0000000   0.0010732  -0.0000000  -0.0000020  -0.0005407
   36   0.0007128   0.0000000   0.0006842   0.0000000  -0.0000038   0.0003235
   37  -0.0000000  -0.0000024  -0.0000000   0.0063091   0.0000000   0.0000000
   38   0.0000035  -0.0000000   0.0000045   0.0000000  -0.0012433   0.0000048
   39   0.0007671  -0.0000000   0.0007822  -0.0000000   0.0000021  -0.0013632
   40   0.0000562   0.0000000   0.0000502  -0.0000000   0.0000004  -0.0001842
   41   0.0000000   0.0000000   0.0000000  -0.0000004  -0.0000000  -0.0000000
   42   0.0000502   0.0000000   0.0000453  -0.0000000   0.0000000  -0.0001791
   43   0.0000000   0.0000004   0.0000000  -0.0011456  -0.0000000  -0.0000000
   44  -0.0000004   0.0000000  -0.0000000  -0.0000000  -0.0004628  -0.0000009
   45  -0.0001842  -0.0000000  -0.0001791   0.0000000   0.0000009   0.0003491
           31          32          33          34          35          36
    1   0.0079205  -0.0161633  -0.0000000   0.0000383   0.0669002  -0.0012564
    2  -0.0097134   0.0161790   0.0000000  -0.0000891  -0.1551859  -0.0263185
    3   0.0000000  -0.0000000   0.1546032   0.0000000  -0.0000000  -0.0000000
    4  -0.0000095   0.0000248   0.0000000   0.1544090  -0.0000964  -0.0000019
    5  -0.0226497   0.0509968  -0.0000000  -0.0000929  -0.1908544  -0.0243898
    6   0.0131055  -0.0408803   0.0000000  -0.0000533  -0.0643049  -0.0578084
    7  -0.0000000   0.0000000   0.0458405   0.0000000  -0.0000000  -0.0000000
    8   0.0000028  -0.0000070   0.0000000   0.0442202  -0.0000128  -0.0000104
    9   0.0069215  -0.0273172   0.0000000  -0.0001067  -0.0175388  -0.0339641
   10   0.0028433  -0.0062250  -0.0000000   0.0000028   0.0079178  -0.0039648
   11  -0.0000000   0.0000000   0.0000064  -0.0000000  -0.0000000  -0.0000000
   12   0.0028647  -0.0062320  -0.0000000   0.0000142   0.0089701  -0.0036858
   13   0.0000000   0.0000000  -0.0000000  -0.0000000   0.0000000  -0.0000000
   14  -0.0000055   0.0000097  -0.0000000   0.0309502  -0.0000240   0.0000179
   15  -0.0083797   0.0135540   0.0000000  -0.0000125   0.0014782   0.0138449
   16   0.0004918  -0.0001941  -0.0000000   0.0000057  -0.0048162  -0.0037570
   17  -0.0001941   0.0037382  -0.0000000   0.0000072   0.0147736   0.0041148
   18   0.0000000  -0.0000000   0.1374743   0.0000000  -0.0000000   0.0000000
   19   0.0000057   0.0000072   0.0000000  -0.1034833   0.0000190  -0.0001245
   20   0.0048162  -0.0147736   0.0000000  -0.0000190   0.0481956   0.0209946
   21  -0.0037569   0.0041148   0.0000000  -0.0001245  -0.0209946  -0.0139657
   22  -0.0000000  -0.0000000   0.0691141   0.0000000  -0.0000000   0.0000000
   23   0.0000024   0.0000080   0.0000000  -0.0755675   0.0000304  -0.0000627
   24  -0.0002933  -0.0012419   0.0000000  -0.0000540   0.0031292   0.0072146
[...]
  45  O 2   dzz      0.00004  -0.01328   0.00180   0.00000   0.00009  -0.21680
                        19        20        21        22        23        24
 eigenvalues:          0.389     0.478     0.518     0.542     0.670     0.697
   1  C     s        0.00000  -0.05288   0.00000   0.00000  -0.00000  -0.00000
   2  C     s       -0.00000  -1.03170   0.00000  -0.00000   0.00000  -0.00000
   3  C     px      -0.00000  -0.00000  -0.00000  -0.00000   0.00000  -0.18963
   4  C     py      -0.00000  -0.00024  -0.00000  -0.00000   0.00000  -0.00000
   5  C     pz       1.15481   0.00000   0.00000   0.00035  -0.40084  -0.00000
   6  C     s        0.00000  -0.11870   0.00000   0.00000  -0.00000  -0.00000
   7  C     px       0.00000  -0.00000   0.00000   0.00000  -0.00000   1.10077
   8  C     py       0.00000  -0.00008   0.00000   0.00000   0.00000   0.00000
   9  C     pz      -0.01790   0.00000  -0.00000  -0.00008  -0.80684  -0.00000
  10  C     dxx     -0.00000   0.02742   0.00000  -0.00000   0.00000   0.00000
  11  C     dxy      0.00000   0.00000  -0.00000   0.00000  -0.00000  -0.00011
  12  C     dyy     -0.00000   0.02452  -0.00000  -0.00000   0.00000   0.00000
  13  C     dxz     -0.00000   0.00000   0.10827  -0.00000   0.00000  -0.00000
  14  C     dyz     -0.00011   0.00000   0.00000   0.11031   0.00067   0.00000
  15  C     dzz      0.00000  -0.32719   0.00000   0.00000  -0.00000  -0.00000
  16  O 1   s       -0.05214  -0.01481  -0.00000  -0.00002   0.03994  -0.00000
  17  O 1   s        0.24624   0.37198  -0.00000  -0.00034  -0.02215  -0.00000
  18  O 1   px      -0.00000  -0.00000  -0.62838   0.00000  -0.00000   0.61806
  19  O 1   py      -0.00010  -0.00000  -0.00000  -0.63347  -0.00004   0.00000
  20  O 1   pz       0.10662  -0.32597   0.00000   0.00034  -0.72779   0.00000
  21  O 1   s        0.29719  -0.21935   0.00000   0.00079  -0.81286   0.00000
  22  O 1   px       0.00000   0.00000   0.82373  -0.00000   0.00000  -1.13333
  23  O 1   py      -0.00037  -0.00025   0.00000   0.82078   0.00070  -0.00000
  24  O 1   pz       0.79972   1.02258  -0.00000  -0.00008   0.56979   0.00000
  25  O 1   dxx      0.08840   0.12537  -0.00000  -0.00009   0.04812  -0.00000
  26  O 1   dxy      0.00000   0.00000  -0.00001   0.00000  -0.00000  -0.00009
  27  O 1   dyy      0.08102   0.12040  -0.00000  -0.00011   0.04936  -0.00000
  28  O 1   dxz      0.00000  -0.00000  -0.00163   0.00000  -0.00000   0.07892
  29  O 1   dyz      0.00013  -0.00004  -0.00000  -0.00253  -0.00028   0.00000
  30  O 1   dzz     -0.08842   0.17724  -0.00000  -0.00020   0.12690  -0.00000
  31  O 2   s        0.05214  -0.01481   0.00000   0.00002  -0.03994  -0.00000
  32  O 2   s       -0.24624   0.37198   0.00000   0.00034   0.02215  -0.00000
  33  O 2   px       0.00000   0.00000   0.62838  -0.00000  -0.00000   0.61806
  34  O 2   py       0.00010  -0.00000   0.00000   0.63347   0.00004   0.00000
  35  O 2   pz       0.10662   0.32597   0.00000   0.00034  -0.72779  -0.00000
  36  O 2   s       -0.29719  -0.21935  -0.00000  -0.00079   0.81286   0.00000
  37  O 2   px      -0.00000  -0.00000  -0.82373   0.00000   0.00000  -1.13333
  38  O 2   py       0.00037  -0.00025  -0.00000  -0.82078  -0.00070  -0.00000
  39  O 2   pz       0.79972  -1.02257  -0.00000  -0.00008   0.56979  -0.00000
  40  O 2   dxx     -0.08840   0.12537   0.00000   0.00009  -0.04812  -0.00000
  41  O 2   dxy     -0.00000   0.00000   0.00001  -0.00000   0.00000  -0.00009
  42  O 2   dyy     -0.08102   0.12040   0.00000   0.00011  -0.04936  -0.00000
  43  O 2   dxz      0.00000  -0.00000  -0.00163   0.00000  -0.00000  -0.07892
  44  O 2   dyz      0.00013   0.00004  -0.00000  -0.00253  -0.00028  -0.00000
  45  O 2   dzz      0.08842   0.17724   0.00000   0.00020  -0.12690  -0.00000
                        25        26        27        28        29        30
 eigenvalues:          0.718     1.014     1.021     1.022     1.035     1.050
   1  C     s       -0.00004  -0.00000  -0.00571   0.00000  -0.00000   0.04719
   2  C     s       -0.00040  -0.00000  -0.04417   0.00000  -0.00000   0.33711
   3  C     px       0.00000   0.00000  -0.00000  -0.00016   0.00000  -0.00000
   4  C     py      -0.18810   0.00000   0.00017  -0.00000   0.00000  -0.00001
   5  C     pz      -0.00000   0.00000   0.00000  -0.00000   0.00069  -0.00000
   6  C     s       -0.00079  -0.00000  -0.55638   0.00000  -0.00000   3.71855
   7  C     px      -0.00000  -0.00000   0.00000   0.00031  -0.00000   0.00000
   8  C     py       1.09626   0.00000  -0.00059   0.00000  -0.00000   0.00170
   9  C     pz       0.00000   0.00000  -0.00000  -0.00000   0.00028   0.00000
  10  C     dxx      0.00019   0.00000   0.64775  -0.00000   0.00000  -0.05687
  11  C     dxy      0.00000   0.00000   0.00000   0.72737  -0.00000   0.00000
  12  C     dyy     -0.00001  -0.00000  -0.59742   0.00000  -0.00000  -0.25260
  13  C     dxz     -0.00000   0.54176  -0.00000   0.00000  -0.00000   0.00000
  14  C     dyz     -0.00000   0.00000  -0.00000   0.00000   0.54445  -0.00000
  15  C     dzz     -0.00027  -0.00000  -0.04298   0.00000   0.00000   0.29951
  16  O 1   s       -0.00002  -0.00000  -0.00859   0.00000  -0.00003   0.06367
  17  O 1   s       -0.00040  -0.00000  -0.17013   0.00000   0.00071   1.12976
  18  O 1   px      -0.00000   0.15517  -0.00000   0.00003  -0.00000   0.00000
  19  O 1   py       0.61760   0.00000  -0.00008   0.00000   0.15775   0.00028
  20  O 1   pz       0.00020   0.00000  -0.00774   0.00000   0.00090   0.06404
  21  O 1   s        0.00093   0.00000   0.50990  -0.00000  -0.00038  -3.44872
  22  O 1   px       0.00000   0.06374  -0.00000  -0.00024  -0.00000  -0.00000
  23  O 1   py      -1.13352   0.00000   0.00032  -0.00000   0.06347  -0.00034
  24  O 1   pz       0.00017   0.00000   0.19212  -0.00000  -0.00058  -1.33024
  25  O 1   dxx     -0.00001   0.00000   0.31103  -0.00000  -0.00000   0.23371
  26  O 1   dxy      0.00000   0.00028   0.00000   0.39282  -0.00000   0.00000
  27  O 1   dyy     -0.00017  -0.00000  -0.36226   0.00000   0.00048   0.13923
  28  O 1   dxz     -0.00000  -0.42250   0.00000   0.00030   0.00000  -0.00000
  29  O 1   dyz      0.07873  -0.00000  -0.00031   0.00000  -0.42053   0.00004
  30  O 1   dzz     -0.00006  -0.00000  -0.05832   0.00000  -0.00024   0.38376
  31  O 2   s       -0.00002  -0.00000  -0.00859   0.00000   0.00003   0.06367
  32  O 2   s       -0.00040  -0.00000  -0.17013   0.00000  -0.00071   1.12976
  33  O 2   px      -0.00000  -0.15517   0.00000   0.00003   0.00000  -0.00000
  34  O 2   py       0.61760  -0.00000  -0.00008  -0.00000  -0.15775   0.00028
  35  O 2   pz      -0.00020   0.00000   0.00774  -0.00000   0.00090  -0.06404
  36  O 2   s        0.00093   0.00000   0.50990  -0.00000   0.00038  -3.44872
  37  O 2   px       0.00000  -0.06374  -0.00000  -0.00024   0.00000  -0.00000
  38  O 2   py      -1.13352  -0.00000   0.00032  -0.00000  -0.06347  -0.00034
  39  O 2   pz      -0.00017  -0.00000  -0.19212   0.00000  -0.00058   1.33024
  40  O 2   dxx     -0.00001   0.00000   0.31103  -0.00000   0.00000   0.23371
  41  O 2   dxy      0.00000  -0.00028   0.00000   0.39282  -0.00000   0.00000
  42  O 2   dyy     -0.00017  -0.00000  -0.36226   0.00000  -0.00048   0.13923
  43  O 2   dxz      0.00000  -0.42250   0.00000  -0.00030   0.00000  -0.00000
  44  O 2   dyz     -0.07873  -0.00000   0.00031  -0.00000  -0.42053  -0.00004
  45  O 2   dzz     -0.00006   0.00000  -0.05832   0.00000   0.00024   0.38376
                        31        32        33        34        35        36
 eigenvalues:          1.342     1.342     1.505     1.652     1.652     1.732
   1  C     s        0.00000   0.00000  -0.00000  -0.00000   0.00017  -0.00000
   2  C     s       -0.00000   0.00000  -0.00000  -0.00000   0.02276  -0.00000
   3  C     px       0.00000   0.00000   0.00000  -0.00139   0.00000   0.49111
   4  C     py      -0.00000  -0.00000  -0.00000  -0.00000  -0.00117   0.00000
   5  C     pz       0.00000   0.01008   0.13185  -0.00000   0.00000   0.00000
   6  C     s       -0.00000   0.00000  -0.00000  -0.00000   0.04237   0.00000
   7  C     px      -0.00000   0.00000   0.00000  -0.00103   0.00000   0.43734
   8  C     py      -0.00000   0.00000  -0.00000  -0.00000  -0.00083   0.00000
   9  C     pz      -0.00000  -0.16711   5.33412  -0.00000   0.00000  -0.00000
  10  C     dxx      0.00000  -0.00000   0.00000  -0.00000  -0.62354  -0.00000
  11  C     dxy     -0.00000   0.00000   0.00000   0.71615  -0.00000   0.00242
  12  C     dyy      0.00000   0.00000   0.00000   0.00000   0.61622   0.00000
  13  C     dxz     -0.00002  -0.00000   0.00000   0.00000   0.00000   0.00000
  14  C     dyz     -0.00000  -0.00000   0.00062  -0.00000   0.00000   0.00000
  15  C     dzz     -0.00000   0.00000  -0.00000  -0.00000   0.00231   0.00000
  16  O 1   s        0.00000   0.00054  -0.07207  -0.00000   0.00221   0.00000
  17  O 1   s        0.00000   0.05359  -1.60219   0.00000   0.00925  -0.00000
  18  O 1   px       0.00003   0.00000   0.00000  -0.00043   0.00000   0.14346
  19  O 1   py       0.00000  -0.00004   0.00039  -0.00000  -0.00037   0.00000
  20  O 1   pz       0.00000   0.00450  -0.09820   0.00000   0.00013  -0.00000
  21  O 1   s       -0.00000  -0.17684   5.99790  -0.00000  -0.04620  -0.00000
  22  O 1   px      -0.00004  -0.00000  -0.00000   0.00110  -0.00000  -0.44435
  23  O 1   py      -0.00000   0.00008  -0.00136   0.00000   0.00091  -0.00000
  24  O 1   pz      -0.00000  -0.03511   1.37468  -0.00000  -0.02018   0.00000
  25  O 1   dxx      0.00000  -0.61210  -0.16185   0.00000   0.53147   0.00000
  26  O 1   dxy     -0.70725  -0.00000  -0.00000  -0.60535   0.00000  -0.00134
  27  O 1   dyy     -0.00000   0.61212  -0.11924  -0.00000  -0.51731  -0.00000
  28  O 1   dxz     -0.00044  -0.00000  -0.00000   0.00196  -0.00000  -0.79138
  29  O 1   dyz     -0.00000   0.00043   0.00022   0.00000   0.00162  -0.00000
  30  O 1   dzz      0.00000   0.01691  -0.48210   0.00000   0.00098  -0.00000
  31  O 2   s       -0.00000  -0.00054   0.07207  -0.00000   0.00221   0.00000
  32  O 2   s       -0.00000  -0.05359   1.60219  -0.00000   0.00925  -0.00000
  33  O 2   px      -0.00003  -0.00000  -0.00000  -0.00043   0.00000   0.14346
  34  O 2   py      -0.00000   0.00004  -0.00039  -0.00000  -0.00037   0.00000
  35  O 2   pz       0.00000   0.00450  -0.09820   0.00000  -0.00013   0.00000
  36  O 2   s        0.00000   0.17684  -5.99790   0.00000  -0.04620   0.00000
  37  O 2   px       0.00004   0.00000  -0.00000   0.00110  -0.00000  -0.44435
  38  O 2   py       0.00000  -0.00008   0.00136   0.00000   0.00091  -0.00000
  39  O 2   pz      -0.00000  -0.03511   1.37468  -0.00000   0.02018  -0.00000
  40  O 2   dxx     -0.00000   0.61210   0.16185   0.00000   0.53147   0.00000
  41  O 2   dxy      0.70725   0.00000   0.00000  -0.60535   0.00000  -0.00134
  42  O 2   dyy      0.00000  -0.61212   0.11924  -0.00000  -0.51731  -0.00000
  43  O 2   dxz     -0.00043  -0.00000   0.00000  -0.00196   0.00000   0.79138
  44  O 2   dyz     -0.00000   0.00043   0.00022  -0.00000  -0.00162   0.00000
  45  O 2   dzz     -0.00000  -0.01691   0.48210  -0.00000   0.00098  -0.00000
                        37        38        39        40        41        42
 eigenvalues:          1.757     2.350     2.549     2.572     2.591     2.686
   1  C     s       -0.00017   0.24994  -0.00000   0.00000   0.00000  -0.04768
   2  C     s       -0.00022   0.78770   0.00000   0.00000  -0.00000   2.77123
   3  C     px      -0.00000  -0.00000  -0.00000  -0.00000   0.00000   0.00000
   4  C     py       0.49037   0.00085  -0.00000   0.00000  -0.00000   0.00055
   5  C     pz       0.00000   0.00000   1.80469  -0.00000  -0.00474  -0.00000
   6  C     s        0.00097   1.06961   0.00000   0.00000   0.00000   1.63111
   7  C     px      -0.00000  -0.00000  -0.00000  -0.00000   0.00000   0.00000
   8  C     py       0.43670   0.00093  -0.00000  -0.00000  -0.00000   0.00015
   9  C     pz       0.00000   0.00000   1.81357  -0.00000  -0.00595  -0.00000
  10  C     dxx     -0.00237   0.65014  -0.00000  -0.00000   0.00000  -1.13139
  11  C     dxy     -0.00000   0.00000  -0.00000  -0.00000   0.00000   0.00000
  12  C     dyy      0.00128   0.64951  -0.00000  -0.00000  -0.00000  -1.13536
  13  C     dxz     -0.00000  -0.00000   0.00000   1.31866  -0.00000  -0.00000
  14  C     dyz      0.00000   0.00000   0.00399   0.00000   1.31724  -0.00000
  15  C     dzz      0.00041  -0.07843   0.00000   0.00000   0.00000   1.07907
  16  O 1   s        0.00001  -0.00944  -0.03785   0.00000   0.00001  -0.02529
  17  O 1   s       -0.00033   0.86499  -0.66951   0.00000   0.00263   0.04607
  18  O 1   px      -0.00000  -0.00000   0.00000   0.13065  -0.00000  -0.00000
  19  O 1   py       0.14323  -0.00003   0.00039   0.00000   0.13151   0.00030
  20  O 1   pz      -0.00038   0.28902   0.12765  -0.00000   0.00009  -0.58945
  21  O 1   s       -0.00020  -1.53427   2.80258  -0.00000  -0.00824  -1.13023
  22  O 1   px       0.00000  -0.00000   0.00000   0.31245  -0.00000  -0.00000
  23  O 1   py      -0.44388  -0.00024   0.00010   0.00000   0.31272   0.00047
  24  O 1   pz       0.00008  -1.14459   1.34493  -0.00000  -0.00382  -0.94691
  25  O 1   dxx      0.00100   0.26808  -0.47947   0.00000   0.00107   0.20105
  26  O 1   dxy      0.00000  -0.00000   0.00000  -0.00044   0.00000  -0.00000
  27  O 1   dyy     -0.00088   0.27185  -0.48439   0.00000   0.00031   0.20426
  28  O 1   dxz      0.00000  -0.00000   0.00000   0.82973  -0.00000  -0.00000
  29  O 1   dyz     -0.79145  -0.00040   0.00160   0.00000   0.83076   0.00098
  30  O 1   dzz     -0.00019  -0.70108   0.97555  -0.00000  -0.00217  -1.18888
  31  O 2   s        0.00001  -0.00944   0.03785  -0.00000  -0.00001  -0.02529
  32  O 2   s       -0.00033   0.86499   0.66951  -0.00000  -0.00263   0.04607
  33  O 2   px      -0.00000   0.00000  -0.00000  -0.13065   0.00000   0.00000
  34  O 2   py       0.14323  -0.00003  -0.00039  -0.00000  -0.13151   0.00030
  35  O 2   pz       0.00038  -0.28902   0.12765   0.00000   0.00009   0.58945
  36  O 2   s       -0.00020  -1.53427  -2.80258   0.00000   0.00824  -1.13023
  37  O 2   px       0.00000   0.00000  -0.00000  -0.31245   0.00000   0.00000
  38  O 2   py      -0.44388  -0.00024  -0.00010  -0.00000  -0.31272   0.00047
  39  O 2   pz      -0.00008   1.14459   1.34493  -0.00000  -0.00382   0.94691
  40  O 2   dxx      0.00100   0.26808   0.47947  -0.00000  -0.00107   0.20105
  41  O 2   dxy      0.00000  -0.00000  -0.00000   0.00044  -0.00000  -0.00000
  42  O 2   dyy     -0.00088   0.27185   0.48439  -0.00000  -0.00031   0.20426
  43  O 2   dxz     -0.00000  -0.00000   0.00000   0.82973  -0.00000  -0.00000
  44  O 2   dyz      0.79145   0.00040   0.00160   0.00000   0.83076  -0.00098
  45  O 2   dzz     -0.00019  -0.70108  -0.97555   0.00000   0.00217  -1.18888
                        43        44        45
 eigenvalues:          3.383     4.011     4.097
   1  C     s       -0.02384  -0.50448  -0.00000
   2  C     s       -1.05348   1.92576   0.00000
   3  C     px      -0.00000  -0.00000  -0.00000
   4  C     py      -0.00019  -0.00049  -0.00000
   5  C     pz       0.00000   0.00000   0.08955
   6  C     s       -3.15141  -1.00328  -0.00000
   7  C     px      -0.00000   0.00000  -0.00000
   8  C     py      -0.00120  -0.00034  -0.00000
   9  C     pz      -0.00000  -0.00000   5.64011
  10  C     dxx      0.19542  -1.29121  -0.00000
  11  C     dxy     -0.00000   0.00000  -0.00000
  12  C     dyy      0.19780  -1.29231  -0.00000
  13  C     dxz     -0.00000   0.00000   0.00000
  14  C     dyz     -0.00000   0.00000  -0.00066
  15  C     dzz      0.49557  -3.22413  -0.00000
  16  O 1   s       -0.38054  -0.05968  -0.48793
  17  O 1   s       -0.38764   0.18358  -0.93006
  18  O 1   px      -0.00000   0.00000  -0.00000
  19  O 1   py       0.00003  -0.00032   0.00017
  20  O 1   pz      -0.27656   0.62349  -0.20710
  21  O 1   s        4.41950   1.54948   8.45499
  22  O 1   px      -0.00000   0.00000   0.00000
  23  O 1   py       0.00006  -0.00040  -0.00162
  24  O 1   pz       1.20925   1.03066   1.69079
  25  O 1   dxx     -1.37478  -0.34776  -1.60395
  26  O 1   dxy      0.00000   0.00000   0.00000
  27  O 1   dyy     -1.37972  -0.34794  -1.60657
  28  O 1   dxz      0.00000   0.00000   0.00000
  29  O 1   dyz      0.00003  -0.00067  -0.00060
  30  O 1   dzz     -0.95183   0.58983  -1.44796
  31  O 2   s       -0.38054  -0.05968   0.48793
  32  O 2   s       -0.38764   0.18358   0.93006
  33  O 2   px      -0.00000  -0.00000  -0.00000
  34  O 2   py       0.00003  -0.00032  -0.00017
  35  O 2   pz       0.27656  -0.62349  -0.20710
  36  O 2   s        4.41950   1.54949  -8.45498
  37  O 2   px       0.00000  -0.00000   0.00000
  38  O 2   py       0.00006  -0.00040   0.00162
  39  O 2   pz      -1.20925  -1.03067   1.69079
  40  O 2   dxx     -1.37479  -0.34777   1.60395
  41  O 2   dxy      0.00000   0.00000  -0.00000
  42  O 2   dyy     -1.37972  -0.34794   1.60657
  43  O 2   dxz     -0.00000   0.00000  -0.00000
  44  O 2   dyz     -0.00003   0.00067  -0.00060
  45  O 2   dzz     -0.95183   0.58983   1.44796
 
          Ground-State Mulliken Net Atomic Charges

     Atom                 Charge (a.u.)
  ----------------------------------------
      1 C                     0.966953
      2 O                     0.016524
      3 O                     0.016524
  ----------------------------------------
  Sum of atomic charges =     1.000000

Compute ChElPG charges using a head room of 2.80 A and a grid spacing of 0.300 A
Total Grid Volume 6000.9147851 A^3
ChElPG fitting will utilize 49860 grid points
         cpu   0.56 wall   0.14
CHELPG time 0.85 (cpu) 0.21 (wall) 
         Ground-State ChElPG Net Atomic Charges

     Atom                 Charge (a.u.)
  ----------------------------------------
      1 C                     0.828957
      2 O                     0.085526
      3 O                     0.085518
  ----------------------------------------
  Sum of atomic charges =     1.000000

 -----------------------------------------------------------------
                    Cartesian Multipole Moments
 -----------------------------------------------------------------
    Charge (ESU x 10^10)
                 4.8032
    Dipole Moment (Debye)
         X      -0.0000      Y      -0.0011      Z      -0.0000
       Tot       0.0011
    Quadrupole Moments (Debye-Ang)
        XX     -11.9966     XY       0.0000     YY     -12.9098
        XZ       0.0000     YZ      -0.0000     ZZ     -11.2730
    Octopole Moments (Debye-Ang^2)
       XXX      -0.0000    XXY       0.0002    XYY       0.0000
       YYY       0.0002    XXZ       0.0001    XYZ      -0.0000
       YYZ       0.0001    XZZ      -0.0000    YZZ       0.0016
       ZZZ       0.0002
    Hexadecapole Moments (Debye-Ang^3)
      XXXX      -7.7525   XXXY       0.0000   XXYY      -2.7274
      XYYY       0.0000   YYYY      -8.6119   XXXZ      -0.0000
      XXYZ       0.0000   XYYZ      -0.0000   YYYZ       0.0000
      XXZZ     -14.4284   XYZZ       0.0000   YYZZ     -15.8654
      XZZZ       0.0000   YZZZ       0.0000   ZZZZ     -79.9906
 -----------------------------------------------------------------
Archival summary:
1\1\copper\SP\ROProcedureUnspecified\6-31G**\21(1+,2)\eric\TueFeb1717:07:392015TueFeb1717:07:392015\0\\#,ROProcedureUnspecified,6-31G**,\\1,2\C\O,1,1.16916\O,1,1.16916,2,179.958\\\@

 Total job time:  3.26s(wall), 12.85s(cpu) 
 Tue Feb 17 17:07:39 2015

        *************************************************************
        *                                                           *
        *  Thank you very much for using Q-Chem.  Have a nice day.  *
        *                                                           *
        *************************************************************


