This is a multi-thread run using 4 threads
/media/Backup/opt/apps/qchem/trunk_intel_release_r17262_20141216/exe/qcprog.exe .CO2_linear_dependence.in.16537.qcin.1 /tmp/qchem/qchem16537/

                  Welcome to Q-Chem
     A Quantum Leap Into The Future Of Chemistry


 Q-Chem 4.2, Q-Chem, Inc., Pleasanton, CA (2014).

 Y. Shao,  Z. Gan,  E. Epifanovsky,  A. T. B. Gilbert,  M. Wormit,  
 J. Kussmann,  A. W. Lange,  A. Behn,  J. Deng,  X. Feng,  D. Ghosh,  
 M. Goldey,  P. R. Horn,  L. D. Jacobson,  I. Kaliman,  R. Z. Khaliullin,  
 T. Kus,  A. Landau,  J. Liu,  E. I. Proynov,  Y. M. Rhee,  R. M. Richard,  
 M. A. Rohrdanz,  R. P. Steele,  E. J. Sundstrom,  H. L. Woodcock III,  
 P. M. Zimmerman,  D. Zuev,  B. Albrecht,  E. Alguire,  B. Austin,  
 G. J. O. Beran,  Y. A. Bernard,  E. Berquist,  K. Brandhorst,  
 K. B. Bravaya,  S. T. Brown,  D. Casanova,  C.-M. Chang,  Y. Chen,  
 S. H. Chien,  K. D. Closser,  D. L. Crittenden,  M. Diedenhofen,  
 R. A. DiStasio Jr.,  H. Do,  A. D. Dutoi,  R. G. Edgar,  S. Fatehi,  
 L. Fusti-Molnar,  A. Ghysels,  A. Golubeva-Zadorozhnaya,  J. Gomes,  
 M. W. D. Hanson-Heine,  P. H. P. Harbach,  A. W. Hauser,  E. G. Hohenstein,  
 Z. C. Holden,  T.-C. Jagau,  H. Ji,  B. Kaduk,  K. Khistyaev,  Jaehoon Kim,  
 Jihan Kim,  R. A. King,  P. Klunzinger,  D. Kosenkov,  T. Kowalczyk,  
 C. M. Krauter,  K. U. Lao,  A. Laurent,  K. V. Lawler,  S. V. Levchenko,  
 C. Y. Lin,  F. Liu,  E. Livshits,  R. C. Lochan,  A. Luenser,  P. Manohar,  
 S. F. Manzer,  S.-P. Mao,  N. Mardirossian,  A. V. Marenich,  S. A. Maurer,  
 N. J. Mayhall,  C. M. Oana,  R. Olivares-Amaya,  D. P. O'Neill,  
 J. A. Parkhill,  T. M. Perrine,  R. Peverati,  P. A. Pieniazek,  A. Prociuk,  
 D. R. Rehn,  E. Rosta,  N. J. Russ,  N. Sergueev,  S. M. Sharada,  
 S. Sharma,  D. W. Small,  A. Sodt,  T. Stein,  D. Stuck,  Y.-C. Su,  
 A. J. W. Thom,  T. Tsuchimochi,  L. Vogt,  O. Vydrov,  T. Wang,  
 M. A. Watson,  J. Wenzel,  A. White,  C. F. Williams,  V. Vanovschi,  
 S. Yeganeh,  S. R. Yost,  Z.-Q. You,  I. Y. Zhang,  X. Zhang,  Y. Zhao,  
 B. R. Brooks,  G. K. L. Chan,  D. M. Chipman,  C. J. Cramer,  
 W. A. Goddard III,  M. S. Gordon,  W. J. Hehre,  A. Klamt,  
 H. F. Schaefer III,  M. W. Schmidt,  C. D. Sherrill,  D. G. Truhlar,  
 A. Warshel,  X. Xu,  A. Aspuru-Guzik,  R. Baer,  A. T. Bell,  N. A. Besley,  
 J.-D. Chai,  A. Dreuw,  B. D. Dunietz,  T. R. Furlani,  S. R. Gwaltney,  
 C.-P. Hsu,  Y. Jung,  J. Kong,  D. S. Lambrecht,  W. Liang,  C. Ochsenfeld,  
 V. A. Rassolov,  L. V. Slipchenko,  J. E. Subotnik,  T. Van Voorhis,  
 J. M. Herbert,  A. I. Krylov,  P. M. W. Gill,  M. Head-Gordon

 Contributors to earlier versions of Q-Chem not listed above: 
 R. D. Adamson,  J. Baker,  E. F. C. Byrd,  A. K. Chakraborty,  C.-L. Cheng,  
 H. Dachsel,  R. J. Doerksen,  G. Hawkins,  A. Heyden,  S. Hirata,  
 G. Kedziora,  F. J. Keil,  C. Kelley,  P. P. Korambath,  W. Kurlancheek,  
 A. M. Lee,  M. S. Lee,  D. Liotard,  I. Lotan,  P. E. Maslen,  N. Nair,  
 D. Neuhauser,  R. Olson,  B. Peters,  J. Ritchie,  N. E. Schultz,  
 N. Shenvi,  A. C. Simmonett,  K. S. Thanthiriwatte,  Q. Wu,  W. Zhang

 Q-Chem 4.2.2 for Intel X86 EM64T Linux

 Parts of Q-Chem use Armadillo 4.100.2 (Dirt Cruiser).
 http://arma.sourceforge.net/

 Q-Chem begins on Thu Jul 27 13:19:17 2017  

Host: copper
0

     Scratch files written to /tmp/qchem/qchem16537//
 Dec1314 |home|eric|opt|apps|qchem|trunk_intel_release|libmdc|qstr_info.C -1
Checking the input file for consistency...	...done.

--------------------------------------------------------------
User input:
--------------------------------------------------------------
$rem
 method = hf
 basis = aug-pc-2
 basis_lin_dep_thresh = 1
 print_general_basis = true
 print_orbitals = 9999
 scf_final_print = 3
$end

$molecule
0 1
C      0.0000000000   -0.0003162467   -0.0000048217
O      0.0000000000    0.0001159898   -1.1691641452
O      0.0000000000    0.0001159547    1.1691546879
$end
--------------------------------------------------------------
 ----------------------------------------------------------------
             Standard Nuclear Orientation (Angstroms)
    I     Atom           X                Y                Z
 ----------------------------------------------------------------
    1      C       0.0000000000    -0.0003143411    -0.0000000677
    2      O      -0.0000000000     0.0001178779    -1.1691593912
    3      O       0.0000000000     0.0001178779     1.1691594419
 ----------------------------------------------------------------
 Molecular Point Group                 C*v   NOp =***
 Largest Abelian Subgroup              C2v   NOp =  1
 Nuclear Repulsion Energy =    57.9345113696 hartrees
 There are       11 alpha and       11 beta electrons
 Requested basis set is aug-pc-2
Basis set in general basis input format:
-----------------------------------------------------------------------
$basis
C    0
S    7    1.000000
   7.85710000E+03    5.68250000E-04 
   1.17870000E+03    4.39150000E-03 
   2.68320000E+02    2.25040000E-02 
   7.59480000E+01    8.66530000E-02 
   2.45590000E+01    2.44050000E-01 
   8.62120000E+00    4.41480000E-01 
   3.12780000E+00    3.53320000E-01 
S    7    1.000000
   1.17870000E+03   -5.94920000E-07 
   2.68320000E+02   -6.27480000E-05 
   7.59480000E+01   -7.57730000E-04 
   2.45590000E+01   -7.33080000E-03 
   8.62120000E+00   -3.89320000E-02 
   3.12780000E+00   -8.89080000E-02 
   8.22020000E-01    2.16890000E-01 
S    1    1.000000
   3.30170000E-01    1.00000000E+00 
S    1    1.000000
   1.14630000E-01    1.00000000E+00 
S    1    1.000000
   3.72170000E-02    1.00000000E+00 
P    4    1.000000
   3.37750000E+01    6.02940000E-03 
   7.67660000E+00    4.32280000E-02 
   2.23570000E+00    1.63010000E-01 
   7.64470000E-01    3.65040000E-01 
P    1    1.000000
   2.62320000E-01    1.00000000E+00 
P    1    1.000000
   8.46380000E-02    1.00000000E+00 
P    1    1.000000
   2.64490000E-02    1.00000000E+00 
D    1    1.000000
   1.40000000E+00    1.00000000E+00 
D    1    1.000000
   4.50000000E-01    1.00000000E+00 
D    1    1.000000
   7.93480000E-02    1.00000000E+00 
F    1    1.000000
   9.50000000E-01    1.00000000E+00 
F    1    1.000000
   1.05800000E-01    1.00000000E+00 
****
O    0
S    7    1.000000
   1.47820000E+04    5.35190000E-04 
   2.21730000E+03    4.13750000E-03 
   5.04740000E+02    2.12450000E-02 
   1.42870000E+02    8.24530000E-02 
   4.63000000E+01    2.36710000E-01 
   1.63370000E+01    4.40390000E-01 
   5.98280000E+00    3.64650000E-01 
S    7    1.000000
   2.21730000E+03   -1.92750000E-06 
   5.04740000E+02   -5.79640000E-05 
   1.42870000E+02   -7.94940000E-04 
   4.63000000E+01   -7.31250000E-03 
   1.63370000E+01   -4.05740000E-02 
   5.98280000E+00   -9.15940000E-02 
   1.67180000E+00    2.09400000E-01 
S    1    1.000000
   6.46620000E-01    1.00000000E+00 
S    1    1.000000
   2.16690000E-01    1.00000000E+00 
S    1    1.000000
   6.81410000E-02    1.00000000E+00 
P    4    1.000000
   6.04240000E+01    6.89490000E-03 
   1.39350000E+01    4.90050000E-02 
   4.15310000E+00    1.82550000E-01 
   1.41580000E+00    3.76330000E-01 
P    1    1.000000
   4.75490000E-01    1.00000000E+00 
P    1    1.000000
   1.45290000E-01    1.00000000E+00 
P    1    1.000000
   4.18710000E-02    1.00000000E+00 
D    1    1.000000
   2.20000000E+00    1.00000000E+00 
D    1    1.000000
   6.50000000E-01    1.00000000E+00 
D    1    1.000000
   1.25610000E-01    1.00000000E+00 
F    1    1.000000
   1.10000000E+00    1.00000000E+00 
F    1    1.000000
   1.67480000E-01    1.00000000E+00 
****
O    0
S    7    1.000000
   1.47820000E+04    5.35190000E-04 
   2.21730000E+03    4.13750000E-03 
   5.04740000E+02    2.12450000E-02 
   1.42870000E+02    8.24530000E-02 
   4.63000000E+01    2.36710000E-01 
   1.63370000E+01    4.40390000E-01 
   5.98280000E+00    3.64650000E-01 
S    7    1.000000
   2.21730000E+03   -1.92750000E-06 
   5.04740000E+02   -5.79640000E-05 
   1.42870000E+02   -7.94940000E-04 
   4.63000000E+01   -7.31250000E-03 
   1.63370000E+01   -4.05740000E-02 
   5.98280000E+00   -9.15940000E-02 
   1.67180000E+00    2.09400000E-01 
S    1    1.000000
   6.46620000E-01    1.00000000E+00 
S    1    1.000000
   2.16690000E-01    1.00000000E+00 
S    1    1.000000
   6.81410000E-02    1.00000000E+00 
P    4    1.000000
   6.04240000E+01    6.89490000E-03 
   1.39350000E+01    4.90050000E-02 
   4.15310000E+00    1.82550000E-01 
   1.41580000E+00    3.76330000E-01 
P    1    1.000000
   4.75490000E-01    1.00000000E+00 
P    1    1.000000
   1.45290000E-01    1.00000000E+00 
P    1    1.000000
   4.18710000E-02    1.00000000E+00 
D    1    1.000000
   2.20000000E+00    1.00000000E+00 
D    1    1.000000
   6.50000000E-01    1.00000000E+00 
D    1    1.000000
   1.25610000E-01    1.00000000E+00 
F    1    1.000000
   1.10000000E+00    1.00000000E+00 
F    1    1.000000
   1.67480000E-01    1.00000000E+00 
****
$end
-----------------------------------------------------------------------
 There are 42 shells and 138 basis functions

Total QAlloc Memory Limit   2000 MB
Mega-Array Size        61 MB
MEM_STATIC part        62 MB

                       Distance Matrix (Angstroms)
             C (  1)   O (  2)
   O (  2)  1.169159
   O (  3)  1.169160  2.338319
 
 A cutoff of  1.0D-08 yielded    896 shell pairs
 There are      9824 function pairs (     14115 Cartesian)
 
 -------------------------------------------------------
 OpenMP Integral Computing Module                       
 Release: version 1.0, May 2013, Q-Chem Inc. Pittsburgh 
 -------------------------------------------------------
 Integral Job Info:
 Integral job number is                      11
 Integral operator is                         1
 short-range coefficients               -999999
 long-range coefficients                -999999
 Omega coefficients                           0
 if combine SR and LR in K              -999999
 Integral screening is                        0
 Integral computing path is                   2
 max size of driver memory is            800000
 size of driver memory is                776718
 size of scratch memory is              5197868
 max col of scratch BK array              10000
 max len of scratch array in speh3          662
 max len of scratch index in speh4           32
 max int batch size is                      520
 min int batch size is                       52
 fixed nKL is                                52
 max L of basis functions is                  3
 order of int derivative is                   0
 number of shells is                         42
 number of basis is                         165
 number of cartesian basis is               165
 number of contracted shell pairs           896
 number of primitive shell pairs           3194
 maxK2 (contraction) of shell pair           49
 max number of K2 of shell pair               1
 max number of CS2 of shell pair             83
 max number of PS2 of shell pair            441
 mem total for path MDJ                   74816
 -------------------------------------------------------
         cpu   0.01 wall   0.00
 Smallest overlap matrix eigenvalue = 1.67E-04
 Linear dependence detected in AO basis
 Number of orthogonalized atomic orbitals = 106
 Maximum deviation from orthogonality = 2.530E-14

  Scale SEOQF with 1.000000e-01/1.000000e-01/1.000000e-01

 Standard Electronic Orientation quadrupole field applied
 Nucleus-field energy     =    -0.0000000023 hartrees
 Guess from superposition of atomic densities
 Warning:  Energy on first SCF cycle will be non-variational
 A restricted Hartree-Fock SCF calculation will be
 performed using Pulay DIIS extrapolation
 SCF converges when DIIS error is below 1.0E-05
 using 4 threads for integral computing 
         cpu   0.33 wall   0.08
 ---------------------------------------
  Cycle       Energy         DIIS Error
 ---------------------------------------
    1     -76.6717436403      3.59E-01
         cpu   2.76 wall   0.69
    2    -180.0890652615      9.23E-02
         cpu   2.74 wall   0.69
    3    -184.6623795001      4.81E-02
         cpu   2.73 wall   0.68
    4    -187.2541240485      1.17E-02
         cpu   2.72 wall   0.68
    5    -187.3708210756      1.55E-03
         cpu   2.71 wall   0.68
    6    -187.3731076561      5.27E-04
         cpu   2.67 wall   0.67
    7    -187.3733656098      1.95E-04
         cpu   2.70 wall   0.68
    8    -187.3734056422      1.79E-05
         cpu   2.51 wall   0.63
    9    -187.3734064165      4.41E-06 Convergence criterion met
 ---------------------------------------
 One-Electron    Energy =  -370.8818430645
 Total Coulomb   Energy =   147.0072155398
 Alpha Exchange  Energy =   -10.7166451296
 Beta  Exchange  Energy =   -10.7166451296
 DFT   Exchange  Energy =     0.0000000000
 DFT Correlation Energy =     0.0000000000
 Nuclear Repu.   Energy =    57.9345113673
 Nuclear Attr.   Energy =  -554.1925895741
 Kinetic         Energy =   183.3107465096
 SCF time:  CPU 22.37 s  wall 5.59 s
 Final Alpha MO Eigenvalues
            1           2           3           4           5           6
    1 -20.6552676 -20.6470967 -11.4505417  -1.5270236  -1.4709938  -0.8093586
            7           8           9          10          11          12
    1  -0.7501221  -0.7242823  -0.7242774  -0.5540953  -0.5540536   0.0817422
           13          14          15          16
    1   0.0817433   0.0844925   0.0874820   0.1378792
 Final Alpha MO Coefficients
            1           2           3           4           5           6
    1  -0.0290380   0.0000529   0.9029050  -0.1260677   0.0000169   0.1002348
    2  -0.0650403   0.0001185  -0.1988670   0.1486329  -0.0000207  -0.1416913
    3  -0.0077628   0.0000142   0.0966511   0.1112997  -0.0000152  -0.0783333
    4  -0.0202883   0.0000370  -0.0029239   0.1147397  -0.0000149   0.0350566
    5   0.0246498  -0.0000449   0.0176067  -0.0322917   0.0000039  -0.0352154
    6  -0.0000000   0.0000000  -0.0000000   0.0000000   0.0000000   0.0000000
    7  -0.0000107   0.0000000  -0.0000417   0.0000781  -0.0000000  -0.0000641
    8  -0.0001157  -0.0635305   0.0000001   0.0000282   0.2373868  -0.0000464
    9  -0.0000000  -0.0000000   0.0000000   0.0000000   0.0000000   0.0000000
   10  -0.0000089   0.0000000   0.0000312   0.0000795   0.0000000   0.0000281
   11  -0.0000228  -0.0125052   0.0000000   0.0000332   0.2620376  -0.0000037
   12   0.0000000   0.0000000  -0.0000000   0.0000000   0.0000000  -0.0000000
   13   0.0000126  -0.0000000  -0.0000115  -0.0000123  -0.0000001  -0.0000152
   14   0.0000227   0.0124821  -0.0000000  -0.0000017  -0.0120191   0.0000093
   15  -0.0000000  -0.0000000  -0.0000000   0.0000000  -0.0000000   0.0000000
   16  -0.0000270   0.0000001   0.0000104   0.0000553   0.0000000   0.0000556
   17  -0.0000451  -0.0247602   0.0000000   0.0000081   0.0632402   0.0000065
   18   0.0000000   0.0000000   0.0000000   0.0000000   0.0000000  -0.0000000
   19  -0.0000000  -0.0000172   0.0000000   0.0000000   0.0000027   0.0000000
   20  -0.0182246   0.0000332  -0.0740586   0.0171679  -0.0000016  -0.0250274
   21   0.0000000   0.0000000   0.0000000   0.0000000  -0.0000000  -0.0000000
   22  -0.0000000  -0.0000000  -0.0000001  -0.0000003  -0.0000004   0.0000001
   23  -0.0000000   0.0000000   0.0000000   0.0000000   0.0000000  -0.0000000
   24  -0.0000000  -0.0000214  -0.0000000   0.0000001   0.0001201   0.0000000
   25  -0.0265511   0.0000484   0.0930462   0.1634942  -0.0000186   0.1154695
   26  -0.0000000  -0.0000000   0.0000000  -0.0000000   0.0000000   0.0000000
   27   0.0000000  -0.0000000  -0.0000001  -0.0000009  -0.0000013   0.0000005
   28   0.0000000  -0.0000000  -0.0000000   0.0000000  -0.0000000  -0.0000000
   29  -0.0000000  -0.0000134  -0.0000000  -0.0000000   0.0000382   0.0000000
   30  -0.0140833   0.0000257  -0.0298243   0.0451074  -0.0000060   0.0835037
   31   0.0000000   0.0000000   0.0000000   0.0000000   0.0000000   0.0000000
   32   0.0000000   0.0000000   0.0000000  -0.0000001   0.0000000   0.0000003
   33  -0.0000000  -0.0000000  -0.0000000   0.0000000  -0.0000000   0.0000000
   34   0.0000000   0.0000000   0.0000000   0.0000000  -0.0000000  -0.0000000
   35   0.0000028  -0.0000000   0.0000295   0.0000325   0.0000001  -0.0000077
   36  -0.0000140  -0.0077200   0.0000000   0.0000055   0.0414483  -0.0000001
   37  -0.0000000  -0.0000000  -0.0000000  -0.0000000  -0.0000000   0.0000000
   38  -0.0000000   0.0000000  -0.0000000  -0.0000005   0.0000003   0.0000002
   39  -0.0000000   0.0000000  -0.0000000   0.0000000  -0.0000000   0.0000000
   40   0.0000000   0.0000000   0.0000000   0.0000000   0.0000000   0.0000000
   41   0.0000000   0.0000000   0.0000000   0.0000000   0.0000000  -0.0000000
   42  -0.0000353   0.0000001   0.0000061   0.0000692   0.0000000   0.0001032
   43  -0.0000657  -0.0360390   0.0000000   0.0000172   0.1366616   0.0000196
   44  -0.0000000  -0.0000000   0.0000000   0.0000000  -0.0000000   0.0000000
   45  -0.0000000   0.0000000  -0.0000000  -0.0000004  -0.0000002   0.0000006
   46  -0.0000000  -0.0000000   0.0000000   0.0000000   0.0000000  -0.0000000
   47   0.6798345  -0.6791428  -0.0153844  -0.1075923   0.1183261  -0.0738686
   48  -0.0364015   0.0431754  -0.0330054   0.1207113  -0.1284350   0.0733444
   49   0.1016328  -0.1089043  -0.0067377   0.1539476  -0.1951111   0.1531708
   50  -0.0361933   0.0234443   0.0045814   0.1418487  -0.1368913   0.1378455
   51   0.0031607  -0.0164964   0.0005735   0.0175013   0.0319078   0.0071985
   52  -0.0000000   0.0000000   0.0000000   0.0000000  -0.0000000  -0.0000000
   53   0.0000004  -0.0000034   0.0000084  -0.0000201   0.0000288   0.0000582
   54  -0.0018554   0.0073881  -0.0208431   0.0865573  -0.0802827  -0.2610908
   55   0.0000000  -0.0000000   0.0000000   0.0000000  -0.0000000  -0.0000000
   56  -0.0000179   0.0000146  -0.0000139   0.0000213   0.0000328   0.0000952
   57   0.0350307  -0.0454241   0.0405807  -0.0187525  -0.0130819  -0.2848325
   58  -0.0000000   0.0000000  -0.0000000   0.0000000   0.0000000  -0.0000000
   59   0.0000076   0.0000031  -0.0000072  -0.0000475  -0.0000303  -0.0000142
   60  -0.0096183   0.0188231   0.0045084   0.1053219  -0.0758459  -0.0485871
   61   0.0000000   0.0000000   0.0000000  -0.0000000   0.0000000   0.0000000
   62   0.0000105   0.0000011  -0.0000005  -0.0000161   0.0000710  -0.0000141
   63   0.0121234   0.0025389   0.0045209   0.0054764   0.0003575   0.0010867
   64   0.0000000  -0.0000000  -0.0000000   0.0000000  -0.0000000   0.0000000
   65   0.0000036  -0.0000017   0.0000075  -0.0000056  -0.0000032   0.0000026
   66  -0.0013805   0.0047070  -0.0112626   0.0050383   0.0009563  -0.0094754
   67   0.0000000  -0.0000000   0.0000000   0.0000000  -0.0000000  -0.0000000
   68   0.0000000  -0.0000000   0.0000000   0.0000000  -0.0000000  -0.0000000
   69   0.0000000  -0.0000000  -0.0000000  -0.0000000  -0.0000000   0.0000000
   70  -0.0000258   0.0000109  -0.0000494   0.0000089   0.0000276   0.0000420
   71   0.0207637  -0.0263602   0.0655220   0.0059567  -0.0207627  -0.0307647
   72  -0.0000000   0.0000000  -0.0000000  -0.0000000   0.0000000   0.0000000
   73  -0.0000000   0.0000000   0.0000000   0.0000005  -0.0000001  -0.0000002
   74  -0.0000000   0.0000000  -0.0000000  -0.0000000   0.0000000   0.0000000
   75  -0.0000168   0.0000112   0.0000042   0.0000017   0.0000238   0.0000555
   76   0.0213462  -0.0223999   0.0321462   0.0487106   0.0587205  -0.0497380
   77   0.0000000  -0.0000000   0.0000000  -0.0000000   0.0000000   0.0000000
   78  -0.0000000   0.0000000  -0.0000000  -0.0000000  -0.0000002   0.0000001
   79  -0.0000000   0.0000000   0.0000000   0.0000000  -0.0000000   0.0000000
   80  -0.0000000   0.0000000  -0.0000000  -0.0000000   0.0000000   0.0000000
   81  -0.0000182   0.0000089  -0.0000493  -0.0000013   0.0000023   0.0000085
   82   0.0127716  -0.0130025   0.0409414   0.0009481  -0.0034597  -0.0017661
   83  -0.0000000   0.0000000  -0.0000000  -0.0000000   0.0000000   0.0000000
   84  -0.0000000  -0.0000000  -0.0000000   0.0000002  -0.0000001  -0.0000001
   85  -0.0000000   0.0000000   0.0000000   0.0000000  -0.0000000   0.0000000
   86  -0.0000000  -0.0000000  -0.0000000   0.0000000  -0.0000000  -0.0000000
   87  -0.0000000   0.0000000  -0.0000000  -0.0000000   0.0000000   0.0000000
   88  -0.0000012   0.0000154  -0.0000105  -0.0000268  -0.0000109   0.0000079
   89   0.0140791  -0.0094702   0.0230961   0.0238315  -0.0021666  -0.0254033
   90   0.0000000   0.0000000  -0.0000000   0.0000000   0.0000000  -0.0000000
   91  -0.0000000  -0.0000000   0.0000000   0.0000002  -0.0000002   0.0000000
   92  -0.0000000   0.0000000  -0.0000000  -0.0000000   0.0000000  -0.0000000
   93   0.6823051   0.6766606  -0.0153844  -0.1076223  -0.1182993  -0.0738906
   94  -0.0365587  -0.0430425  -0.0330054   0.1207454   0.1284065   0.0733748
   95   0.1020290   0.1085332  -0.0067377   0.1539978   0.1950737   0.1532239
   96  -0.0362785  -0.0233123   0.0045814   0.1418835   0.1368555   0.1378915
   97   0.0032208   0.0164847   0.0005734   0.0174930  -0.0319127   0.0071984
   98   0.0000000   0.0000000  -0.0000000  -0.0000000  -0.0000000   0.0000000
   99   0.0000004   0.0000034   0.0000084  -0.0000196  -0.0000282   0.0000582
  100   0.0018824   0.0073814   0.0208432  -0.0865808  -0.0802647   0.2612359
  101  -0.0000000  -0.0000000  -0.0000000  -0.0000000  -0.0000000   0.0000000
  102  -0.0000179  -0.0000145  -0.0000139   0.0000215  -0.0000324   0.0000953
  103  -0.0351960  -0.0452961  -0.0405806   0.0187496  -0.0130859   0.2849806
  104   0.0000000   0.0000000   0.0000000  -0.0000000   0.0000000   0.0000000
  105   0.0000076  -0.0000031  -0.0000072  -0.0000474   0.0000303  -0.0000142
  106   0.0096868   0.0187880  -0.0045084  -0.1053415  -0.0758187   0.0485979
  107  -0.0000000   0.0000000  -0.0000000   0.0000000   0.0000000  -0.0000000
  108   0.0000105  -0.0000011  -0.0000005  -0.0000161  -0.0000710  -0.0000142
  109  -0.0121141   0.0025831  -0.0045209  -0.0054763   0.0003598  -0.0010882
  110  -0.0000000  -0.0000000   0.0000000  -0.0000000  -0.0000000  -0.0000000
  111  -0.0000036  -0.0000016  -0.0000075   0.0000056  -0.0000032  -0.0000026
  112  -0.0013976  -0.0047019  -0.0112626   0.0050382  -0.0009573  -0.0094782
  113   0.0000000   0.0000000   0.0000000   0.0000000   0.0000000  -0.0000000
  114   0.0000001   0.0000001  -0.0000000   0.0000003   0.0000003   0.0000003
  115  -0.0000000  -0.0000000   0.0000000   0.0000000  -0.0000000  -0.0000000
  116   0.0000258   0.0000108   0.0000494  -0.0000088   0.0000276  -0.0000420
  117   0.0208597   0.0262843   0.0655220   0.0059610   0.0207601  -0.0307820
  118  -0.0000000  -0.0000000  -0.0000000  -0.0000000  -0.0000000   0.0000000
  119   0.0000000   0.0000000  -0.0000000   0.0000002   0.0000006   0.0000017
  120   0.0000000   0.0000000   0.0000000   0.0000000   0.0000000  -0.0000000
  121   0.0000168   0.0000112  -0.0000042  -0.0000017   0.0000238  -0.0000555
  122   0.0214277   0.0223220   0.0321461   0.0486956  -0.0587344  -0.0497570
  123   0.0000000   0.0000000  -0.0000000  -0.0000000  -0.0000000   0.0000000
  124  -0.0000000  -0.0000000  -0.0000000  -0.0000003  -0.0000003   0.0000007
  125   0.0000000   0.0000000   0.0000000   0.0000000   0.0000000  -0.0000000
  126  -0.0000000  -0.0000000  -0.0000000  -0.0000000  -0.0000000   0.0000000
  127  -0.0000182  -0.0000088  -0.0000493  -0.0000013  -0.0000023   0.0000086
  128  -0.0128188  -0.0129558  -0.0409414  -0.0009483  -0.0034589   0.0017708
  129   0.0000000   0.0000000   0.0000000   0.0000000   0.0000000  -0.0000000
  130   0.0000000   0.0000000   0.0000000   0.0000003   0.0000003  -0.0000008
  131  -0.0000000  -0.0000000  -0.0000000   0.0000000   0.0000000  -0.0000000
  132  -0.0000000   0.0000000  -0.0000000   0.0000000   0.0000000  -0.0000000
  133  -0.0000000  -0.0000000  -0.0000000  -0.0000000  -0.0000000   0.0000000
  134  -0.0000013  -0.0000154  -0.0000105  -0.0000268   0.0000109   0.0000080
  135  -0.0141135  -0.0094189  -0.0230961  -0.0238317  -0.0021595   0.0254085
  136  -0.0000000   0.0000000   0.0000000  -0.0000000   0.0000000   0.0000000
  137   0.0000000   0.0000000   0.0000000   0.0000006   0.0000004  -0.0000004
  138   0.0000000   0.0000000  -0.0000000   0.0000000   0.0000000   0.0000000
            7           8           9          10          11          12
    1  -0.0000260  -0.0000000   0.0000382  -0.0000000   0.0000003  -0.0000000
    2   0.0000373   0.0000000  -0.0000628   0.0000000  -0.0000003   0.0000000
    3   0.0000212   0.0000000  -0.0000587   0.0000000  -0.0000002  -0.0000000
    4  -0.0000063   0.0000000  -0.0000413   0.0000000  -0.0000004   0.0000000
    5   0.0000086   0.0000000   0.0000118   0.0000000  -0.0000006   0.0000000
    6   0.0000000   0.2720460   0.0000000  -0.0000443   0.0000000  -0.0642237
    7  -0.0000024  -0.0000000   0.2720948   0.0000000   0.0000446   0.0000000
    8  -0.2182486   0.0000000  -0.0000024   0.0000000   0.0000177  -0.0000000
    9   0.0000000   0.1684319   0.0000000  -0.0000189   0.0000000  -0.0390699
   10  -0.0000016  -0.0000000   0.1684387   0.0000000   0.0000143   0.0000000
   11  -0.0152763   0.0000000  -0.0000003   0.0000000  -0.0000431   0.0000000
   12  -0.0000000   0.0081591   0.0000000  -0.0000065   0.0000000  -0.0670989
   13  -0.0000001  -0.0000000   0.0081688   0.0000000   0.0000097   0.0000000
   14   0.0455845  -0.0000000   0.0000002  -0.0000000  -0.0000350   0.0000000
   15   0.0000000   0.0272551   0.0000000   0.0000006  -0.0000000   0.5711210
   16  -0.0000003  -0.0000000   0.0272489  -0.0000000  -0.0000032  -0.0000000
   17   0.0287143  -0.0000000   0.0000003  -0.0000000  -0.0000016  -0.0000000
   18  -0.0000000   0.0000046   0.0000000  -0.0000000   0.0000000  -0.0000008
   19  -0.0000006  -0.0000000   0.0000003  -0.0000000   0.0153494  -0.0000000
   20   0.0000042   0.0000000  -0.0000142  -0.0000000   0.0000001  -0.0000000
   21   0.0000000   0.0000006  -0.0000000   0.0153481   0.0000000   0.0000000
   22   0.0000001   0.0000000  -0.0000046   0.0000000   0.0000000   0.0000000
   23  -0.0000000   0.0000212   0.0000000  -0.0000000   0.0000000  -0.0000295
   24   0.0000482  -0.0000000  -0.0000054  -0.0000000   0.1875423  -0.0000000
   25  -0.0000350  -0.0000000  -0.0000215  -0.0000000   0.0000010  -0.0000000
   26   0.0000000   0.0000141  -0.0000000   0.1875383   0.0000000   0.0000010
   27   0.0000005   0.0000000  -0.0000211   0.0000000   0.0000000  -0.0000000
   28   0.0000000   0.0000378   0.0000000  -0.0000000  -0.0000000  -0.0000215
   29   0.0000379  -0.0000000  -0.0000003  -0.0000000   0.0453293  -0.0000000
   30  -0.0000200  -0.0000000  -0.0000545  -0.0000000   0.0000000  -0.0000000
   31   0.0000000   0.0000024  -0.0000000   0.0453211   0.0000000   0.0000086
   32   0.0000001   0.0000000  -0.0000378  -0.0000000   0.0000000   0.0000000
   33  -0.0000000  -0.0000000   0.0000008   0.0000000  -0.0000001   0.0000000
   34   0.0000000   0.0000000  -0.0000000   0.0000316   0.0000000  -0.0000000
   35  -0.0000002  -0.0000000   0.0170026  -0.0000000  -0.0000042   0.0000000
   36   0.0026377  -0.0000000   0.0000001   0.0000000  -0.0000473   0.0000000
   37   0.0000000   0.0170091   0.0000000   0.0000020  -0.0000000  -0.0306753
   38  -0.0000005  -0.0000000   0.0000000   0.0000000  -0.0000316   0.0000000
   39   0.0000000   0.0000008   0.0000000  -0.0000001  -0.0000000  -0.0000001
   40   0.0000000  -0.0000000   0.0000001   0.0000000  -0.0000000  -0.0000000
   41  -0.0000000  -0.0000000   0.0000000   0.0000503   0.0000000   0.0000001
   42  -0.0000008  -0.0000000   0.0787976   0.0000000  -0.0000029   0.0000000
   43   0.0861919  -0.0000000   0.0000009   0.0000000  -0.0000869   0.0000000
   44   0.0000000   0.0788048   0.0000000  -0.0000030  -0.0000000  -0.1006254
   45   0.0000002   0.0000000   0.0000000   0.0000000  -0.0000503  -0.0000000
   46   0.0000000   0.0000001   0.0000000  -0.0000000  -0.0000000   0.0000029
   47   0.0482378  -0.0000000  -0.0000073   0.0000000   0.0000031   0.0000000
   48  -0.0686083   0.0000000   0.0000031  -0.0000000  -0.0000068  -0.0000000
   49  -0.1150945   0.0000000   0.0000218  -0.0000000  -0.0000035   0.0000000
   50  -0.1016692   0.0000000  -0.0000103  -0.0000000   0.0000048  -0.0000000
   51  -0.0020879   0.0000000  -0.0000142   0.0000000   0.0000097   0.0000000
   52   0.0000000   0.2789745   0.0000000  -0.3563415  -0.0000000  -0.0467553
   53  -0.0001430  -0.0000000   0.2790027   0.0000000  -0.3563291   0.0000000
   54   0.2920062  -0.0000000   0.0001010  -0.0000000  -0.0002094   0.0000000
   55   0.0000000   0.2402354   0.0000000  -0.2596865  -0.0000000   0.0280887
   56  -0.0001549  -0.0000000   0.2402554   0.0000000  -0.2596733  -0.0000000
   57   0.3190520  -0.0000000   0.0000908   0.0000000  -0.0001213   0.0000000
   58   0.0000000   0.0572315   0.0000000  -0.1097124  -0.0000000  -0.1215304
   59  -0.0000366  -0.0000000   0.0572458   0.0000000  -0.1097061   0.0000000
   60   0.0263441  -0.0000000  -0.0000002   0.0000000  -0.0000184   0.0000000
   61  -0.0000000   0.0001622  -0.0000000   0.0470351   0.0000000   0.3240568
   62   0.0000071  -0.0000000   0.0001586  -0.0000000   0.0470392  -0.0000000
   63  -0.0020073   0.0000000  -0.0000226   0.0000000  -0.0000140  -0.0000000
   64  -0.0000000  -0.0000038  -0.0000000   0.0000057   0.0000000   0.0000011
   65  -0.0000068  -0.0000000   0.0091233   0.0000000  -0.0139011   0.0000000
   66   0.0070217  -0.0000000   0.0000042  -0.0000000  -0.0000180   0.0000000
   67   0.0000000   0.0091218   0.0000000  -0.0139022  -0.0000000  -0.0041509
   68   0.0000000  -0.0000000   0.0000038   0.0000000  -0.0000057   0.0000000
   69  -0.0000000  -0.0000082   0.0000000  -0.0000091  -0.0000000  -0.0000068
   70  -0.0000296  -0.0000000   0.0225521  -0.0000000   0.0275709  -0.0000000
   71   0.0457956  -0.0000000   0.0000167   0.0000000   0.0000262   0.0000000
   72   0.0000000   0.0225504   0.0000000   0.0275582   0.0000000   0.0186373
   73   0.0000001   0.0000000   0.0000082  -0.0000000   0.0000091  -0.0000000
   74  -0.0000000  -0.0000195  -0.0000000   0.0000221  -0.0000000  -0.0000165
   75  -0.0000027  -0.0000000   0.0567433  -0.0000000   0.0347126   0.0000000
   76   0.0425220  -0.0000000   0.0000007   0.0000000  -0.0000191   0.0000000
   77   0.0000000   0.0567427   0.0000000   0.0346926   0.0000000  -0.0693423
   78   0.0000001  -0.0000000   0.0000195  -0.0000000  -0.0000221   0.0000000
   79  -0.0000000  -0.0000000   0.0000001   0.0000000  -0.0000002   0.0000000
   80  -0.0000000  -0.0000024  -0.0000000   0.0000008   0.0000000  -0.0000078
   81  -0.0000119  -0.0000000   0.0049249  -0.0000000   0.0053524  -0.0000000
   82   0.0128226  -0.0000000   0.0000061   0.0000000  -0.0000004   0.0000000
   83  -0.0000000   0.0049231   0.0000000   0.0053483   0.0000000   0.0088186
   84   0.0000000  -0.0000000   0.0000024   0.0000000  -0.0000008   0.0000000
   85   0.0000000   0.0000001   0.0000000  -0.0000002  -0.0000000  -0.0000000
   86  -0.0000000  -0.0000000   0.0000004   0.0000000  -0.0000005  -0.0000000
   87  -0.0000000  -0.0000193  -0.0000000  -0.0000192   0.0000000   0.0000176
   88  -0.0000096  -0.0000000   0.0123873  -0.0000000   0.0222626   0.0000000
   89   0.0105164  -0.0000000   0.0000131   0.0000000   0.0000257   0.0000000
   90   0.0000000   0.0123820   0.0000000   0.0222492   0.0000000  -0.0008726
   91  -0.0000001  -0.0000000   0.0000193   0.0000000   0.0000192  -0.0000000
   92   0.0000000   0.0000004   0.0000000  -0.0000005  -0.0000000  -0.0000004
   93  -0.0482016   0.0000000  -0.0000082   0.0000000  -0.0000033   0.0000000
   94   0.0685710  -0.0000000   0.0000044  -0.0000000   0.0000072   0.0000000
   95   0.1150206  -0.0000000   0.0000240  -0.0000000   0.0000040  -0.0000000
   96   0.1016052  -0.0000000  -0.0000085  -0.0000000  -0.0000049   0.0000000
   97   0.0020858  -0.0000000  -0.0000144   0.0000000  -0.0000107   0.0000000
   98   0.0000000   0.2790443   0.0000000   0.3563230   0.0000000  -0.0467565
   99   0.0001375  -0.0000000   0.2789564  -0.0000000   0.3563110   0.0000000
  100   0.2919035  -0.0000000  -0.0000957   0.0000000  -0.0002108   0.0000000
  101   0.0000000   0.2402810   0.0000000   0.2596610   0.0000000   0.0280895
  102   0.0001503  -0.0000000   0.2402299  -0.0000000   0.2596716  -0.0000000
  103   0.3189216  -0.0000000  -0.0000846  -0.0000000  -0.0001214   0.0000000
  104   0.0000000   0.0572469   0.0000000   0.1096976   0.0000000  -0.1215421
  105   0.0000356  -0.0000000   0.0572396  -0.0000000   0.1097192   0.0000000
  106   0.0263172  -0.0000000   0.0000006  -0.0000000  -0.0000182   0.0000000
  107  -0.0000000   0.0001555   0.0000000  -0.0470369  -0.0000000   0.3240925
  108  -0.0000071  -0.0000000   0.0001616   0.0000000  -0.0470363  -0.0000000
  109  -0.0020091   0.0000000   0.0000225  -0.0000000  -0.0000137  -0.0000000
  110  -0.0000000  -0.0000038   0.0000000  -0.0000058   0.0000000   0.0000011
  111  -0.0000067   0.0000000  -0.0091221   0.0000000  -0.0139016  -0.0000000
  112  -0.0070173   0.0000000   0.0000041  -0.0000000   0.0000180  -0.0000000
  113  -0.0000000  -0.0091239  -0.0000000  -0.0139005  -0.0000000   0.0041508
  114   0.0000003   0.0000000   0.0000038   0.0000000   0.0000058  -0.0000000
  115  -0.0000000  -0.0000082  -0.0000000   0.0000091  -0.0000000  -0.0000069
  116  -0.0000292   0.0000000  -0.0225598  -0.0000000   0.0275537   0.0000000
  117  -0.0457757   0.0000000   0.0000157   0.0000000  -0.0000265   0.0000000
  118  -0.0000000  -0.0225426  -0.0000000   0.0275720   0.0000000  -0.0186368
  119   0.0000011  -0.0000000   0.0000082  -0.0000000  -0.0000091   0.0000000
  120  -0.0000000  -0.0000195  -0.0000000  -0.0000222  -0.0000000  -0.0000164
  121  -0.0000016   0.0000000  -0.0567458  -0.0000000   0.0346968  -0.0000000
  122  -0.0424950   0.0000000   0.0000001   0.0000000   0.0000189  -0.0000000
  123  -0.0000000  -0.0567380  -0.0000000   0.0347087   0.0000000   0.0693410
  124   0.0000004  -0.0000000   0.0000195  -0.0000000   0.0000222  -0.0000000
  125  -0.0000000   0.0000000  -0.0000007   0.0000000  -0.0000008  -0.0000000
  126   0.0000000   0.0000025  -0.0000000   0.0000008  -0.0000000   0.0000078
  127   0.0000118  -0.0000000   0.0049255   0.0000000  -0.0053481  -0.0000000
  128   0.0128205  -0.0000000  -0.0000058  -0.0000000  -0.0000003  -0.0000000
  129  -0.0000000   0.0049215   0.0000000  -0.0053525  -0.0000000   0.0088185
  130  -0.0000007  -0.0000000  -0.0000025  -0.0000000  -0.0000008   0.0000000
  131  -0.0000000  -0.0000007  -0.0000000  -0.0000008  -0.0000000   0.0000001
  132  -0.0000000   0.0000000  -0.0000001   0.0000000  -0.0000001   0.0000000
  133   0.0000000   0.0000194  -0.0000000  -0.0000191  -0.0000000  -0.0000176
  134   0.0000094  -0.0000000   0.0123858   0.0000000  -0.0222522   0.0000000
  135   0.0105043  -0.0000000  -0.0000130  -0.0000000   0.0000256   0.0000000
  136   0.0000000   0.0123801   0.0000000  -0.0222576  -0.0000000  -0.0008715
  137  -0.0000000  -0.0000000  -0.0000194  -0.0000000   0.0000191  -0.0000000
  138  -0.0000000  -0.0000001  -0.0000000  -0.0000001  -0.0000000  -0.0000007
           13          14          15          16
    1   0.0000093  -0.0042037   0.0000024   0.0043096
    2   0.0000145   0.0051078  -0.0000029  -0.0029957
    3   0.0001744  -0.0579738   0.0000267  -0.0120194
    4  -0.0002347   0.0837623  -0.0000392  -0.0245077
    5  -0.0018933   0.6777484  -0.0003119  -0.2125747
    6  -0.0000000   0.0000000   0.0000000   0.0000000
    7  -0.0642442  -0.0005536   0.0000010  -0.0005275
    8   0.0000003   0.0000159   0.0306829   0.0000024
    9  -0.0000000   0.0000000  -0.0000000   0.0000000
   10  -0.0390728  -0.0001635   0.0000005  -0.0000905
   11  -0.0000002  -0.0000098  -0.0204644  -0.0000002
   12  -0.0000000   0.0000000  -0.0000000   0.0000000
   13  -0.0671069  -0.0004256   0.0000010  -0.0002159
   14  -0.0000021  -0.0000953  -0.2131967  -0.0000036
   15   0.0000000  -0.0000000   0.0000000  -0.0000000
   16   0.5711245   0.0017737  -0.0000067   0.0001161
   17   0.0000071   0.0003293   0.7115216   0.0000160
   18   0.0000000   0.0000000   0.0000000   0.0000000
   19  -0.0000003   0.0000000   0.0000034   0.0000000
   20   0.0001204  -0.0403099   0.0000193  -0.0093525
   21  -0.0000000  -0.0000000  -0.0000000   0.0000000
   22   0.0000008  -0.0000002  -0.0000000  -0.0000001
   23  -0.0000000   0.0000000   0.0000000   0.0000000
   24  -0.0000010   0.0000003   0.0000195   0.0000002
   25   0.0002981  -0.0991516   0.0000495  -0.0746411
   26  -0.0000000  -0.0000000   0.0000000  -0.0000000
   27   0.0000295  -0.0000006  -0.0000002  -0.0000007
   28   0.0000000  -0.0000000   0.0000000  -0.0000000
   29   0.0000066   0.0000010  -0.0000315   0.0000004
   30   0.0002828  -0.1017972   0.0000523  -0.1691371
   31  -0.0000000  -0.0000000   0.0000000  -0.0000000
   32   0.0000215   0.0000015  -0.0000006   0.0000023
   33  -0.0000001  -0.0000000   0.0000000  -0.0000000
   34   0.0000000   0.0000000  -0.0000000   0.0000000
   35  -0.0306727  -0.0001054   0.0000004   0.0000605
   36  -0.0000001  -0.0000050  -0.0100790  -0.0000005
   37  -0.0000000   0.0000000  -0.0000000  -0.0000000
   38   0.0000000  -0.0000002   0.0000000  -0.0000001
   39  -0.0000000   0.0000000   0.0000000  -0.0000000
   40   0.0000029   0.0000000   0.0000000  -0.0000000
   41  -0.0000000   0.0000000  -0.0000000   0.0000000
   42  -0.1006150  -0.0001686   0.0000011   0.0003427
   43  -0.0000011  -0.0000491  -0.0987282  -0.0000062
   44  -0.0000000   0.0000000  -0.0000000  -0.0000000
   45  -0.0000001  -0.0000016   0.0000003  -0.0000012
   46   0.0000000   0.0000000   0.0000000   0.0000000
   47  -0.0001058   0.0366052  -0.0005841   0.0249979
   48   0.0000849  -0.0344296   0.0336176   0.0043012
   49   0.0002832  -0.0904687  -0.0394730  -0.0933393
   50   0.0003506  -0.1308441   0.0951131   0.0643806
   51  -0.0010781   0.3863336   0.0351265  -0.1086369
   52  -0.0000000   0.0000000  -0.0000000   0.0000000
   53  -0.0467425   0.0001041  -0.0000113   0.0003164
   54   0.0001508  -0.0513483  -0.0378088  -0.0692983
   55   0.0000000   0.0000000  -0.0000000   0.0000000
   56   0.0280995   0.0002740   0.0000009   0.0002632
   57  -0.0001522   0.0580414  -0.0071599   0.0097675
   58  -0.0000000  -0.0000000  -0.0000000  -0.0000000
   59  -0.1215323  -0.0002719   0.0000705  -0.0001342
   60  -0.0001285   0.0450748  -0.1606074  -0.2875844
   61   0.0000000   0.0000000   0.0000000   0.0000000
   62   0.3240576   0.0008818  -0.0001782   0.0000643
   63   0.0012665  -0.4746417   0.3811936   1.0022847
   64   0.0000000   0.0000000   0.0000000   0.0000000
   65  -0.0041508  -0.0000101  -0.0000002   0.0000007
   66   0.0000292  -0.0095290  -0.0034255  -0.0022631
   67  -0.0000000   0.0000000  -0.0000000   0.0000000
   68  -0.0000011   0.0000000  -0.0000000   0.0000001
   69  -0.0000000  -0.0000000   0.0000000  -0.0000000
   70   0.0186338   0.0000093   0.0000137  -0.0000971
   71  -0.0001314   0.0497179   0.0027964  -0.0069384
   72   0.0000000  -0.0000000   0.0000000  -0.0000000
   73   0.0000068   0.0000000   0.0000002   0.0000000
   74   0.0000000  -0.0000000   0.0000000  -0.0000000
   75  -0.0693484  -0.0003068  -0.0000117  -0.0001249
   76   0.0005064  -0.1804639  -0.0764084   0.0199150
   77  -0.0000000  -0.0000000  -0.0000000   0.0000000
   78   0.0000165   0.0000018  -0.0000006   0.0000018
   79  -0.0000000   0.0000000  -0.0000000   0.0000000
   80   0.0000000  -0.0000000   0.0000000  -0.0000000
   81   0.0088175   0.0000173   0.0000046  -0.0000266
   82  -0.0000186   0.0101586   0.0001558  -0.0031555
   83   0.0000000  -0.0000000   0.0000000  -0.0000000
   84   0.0000078  -0.0000000   0.0000000  -0.0000000
   85  -0.0000000   0.0000000  -0.0000000   0.0000000
   86  -0.0000004  -0.0000000   0.0000000   0.0000000
   87  -0.0000000   0.0000000  -0.0000000  -0.0000000
   88  -0.0008760  -0.0000721   0.0000072  -0.0000624
   89   0.0001832  -0.0703253  -0.0120049   0.0095474
   90  -0.0000000  -0.0000000   0.0000000   0.0000000
   91  -0.0000176   0.0000006  -0.0000000   0.0000011
   92   0.0000000   0.0000000  -0.0000000   0.0000000
   93  -0.0001057   0.0366068   0.0005484   0.0249985
   94   0.0000842  -0.0344623  -0.0335848   0.0042982
   95   0.0002839  -0.0904372   0.0395616  -0.0933397
   96   0.0003487  -0.1309337  -0.0949936   0.0643753
   97  -0.0010787   0.3863051  -0.0354826  -0.1086375
   98  -0.0000000  -0.0000000  -0.0000000  -0.0000000
   99  -0.0467467   0.0001051   0.0000121   0.0003170
  100  -0.0001515   0.0513090  -0.0378622   0.0692944
  101   0.0000000  -0.0000000  -0.0000000  -0.0000000
  102   0.0280966   0.0002748  -0.0000018   0.0002637
  103   0.0001521  -0.0580560  -0.0071059  -0.0097719
  104  -0.0000000   0.0000000  -0.0000000   0.0000000
  105  -0.1215449  -0.0002724  -0.0000676  -0.0001342
  106   0.0001254  -0.0452200  -0.1605744   0.2875764
  107   0.0000000  -0.0000000   0.0000000  -0.0000000
  108   0.3240894   0.0008850   0.0001709   0.0000653
  109  -0.0012588   0.4749968   0.3807926  -1.0022676
  110  -0.0000000  -0.0000000   0.0000000  -0.0000000
  111   0.0041510   0.0000101  -0.0000003  -0.0000007
  112   0.0000292  -0.0095258   0.0034345  -0.0022630
  113   0.0000000   0.0000000   0.0000000   0.0000000
  114  -0.0000011   0.0000001   0.0000000   0.0000001
  115   0.0000000   0.0000000   0.0000000   0.0000000
  116  -0.0186330  -0.0000091   0.0000140   0.0000972
  117  -0.0001314   0.0497159  -0.0028436  -0.0069376
  118  -0.0000000  -0.0000000  -0.0000000  -0.0000000
  119   0.0000069  -0.0000012  -0.0000003  -0.0000008
  120  -0.0000000   0.0000000   0.0000000   0.0000000
  121   0.0693465   0.0003070  -0.0000134   0.0001250
  122   0.0005078  -0.1803948   0.0765764   0.0199144
  123   0.0000000  -0.0000000   0.0000000   0.0000000
  124   0.0000164  -0.0000000  -0.0000005   0.0000006
  125   0.0000001  -0.0000000  -0.0000000  -0.0000000
  126   0.0000000  -0.0000000  -0.0000000  -0.0000000
  127   0.0088174   0.0000173  -0.0000048  -0.0000266
  128   0.0000186  -0.0101587   0.0001653   0.0031553
  129   0.0000000   0.0000000   0.0000000   0.0000000
  130  -0.0000078   0.0000001   0.0000001   0.0000001
  131   0.0000000   0.0000000   0.0000000  -0.0000000
  132  -0.0000007  -0.0000000  -0.0000000   0.0000000
  133  -0.0000000   0.0000000   0.0000000  -0.0000000
  134  -0.0008739  -0.0000721  -0.0000071  -0.0000626
  135  -0.0001834   0.0703142  -0.0120710  -0.0095483
  136  -0.0000000   0.0000000   0.0000000  -0.0000000
  137   0.0000176  -0.0000008  -0.0000003  -0.0000006
  138  -0.0000000  -0.0000000  -0.0000000  -0.0000000
 Final Alpha density matrix.
            1           2           3           4           5           6
    1   0.8420208  -0.2106095   0.0656091  -0.0130019   0.0157225  -0.0000000
    2  -0.2106095   0.0859465   0.0089262   0.0139879  -0.0049145   0.0000000
    3   0.0656091   0.0089262   0.0279254   0.0098993   0.0006748   0.0000000
    4  -0.0130019   0.0139879   0.0098993   0.0148143  -0.0054913   0.0000000
    5   0.0157225  -0.0049145   0.0006748  -0.0054913   0.0032005   0.0000000
    6  -0.0000000   0.0000000   0.0000000   0.0000000   0.0000000   0.0740090
    7  -0.0000432   0.0000126  -0.0000062  -0.0000042   0.0000019   0.0000000
    8   0.0000016  -0.0000023  -0.0000015  -0.0000006  -0.0000002   0.0000000
    9  -0.0000000   0.0000000   0.0000000   0.0000000   0.0000000   0.0458212
   10   0.0000276  -0.0000084  -0.0000002   0.0000032  -0.0000012   0.0000000
   11   0.0000003  -0.0000005  -0.0000003  -0.0000001  -0.0000000   0.0000000
   12  -0.0000000   0.0000000   0.0000000  -0.0000000   0.0000000   0.0022196
   13  -0.0000104   0.0000013  -0.0000019  -0.0000025   0.0000011   0.0000000
   14  -0.0000003   0.0000004   0.0000002   0.0000000   0.0000001  -0.0000000
   15  -0.0000000  -0.0000000   0.0000000   0.0000000   0.0000000   0.0074146
   16   0.0000098  -0.0000017   0.0000014   0.0000077  -0.0000039  -0.0000000
   17  -0.0000000   0.0000000   0.0000000   0.0000000   0.0000000  -0.0000000
   18   0.0000000   0.0000000   0.0000000   0.0000000  -0.0000000   0.0000013
   19   0.0000000  -0.0000000  -0.0000000  -0.0000000  -0.0000000   0.0000000
   20  -0.0710116   0.0220110  -0.0031451   0.0016787  -0.0014262  -0.0000000
   21  -0.0000000   0.0000000   0.0000000   0.0000000   0.0000000  -0.0000005
   22  -0.0000000  -0.0000000  -0.0000001  -0.0000000   0.0000000  -0.0000000
   23  -0.0000000   0.0000000   0.0000000   0.0000000  -0.0000000   0.0000058
   24   0.0000001  -0.0000000  -0.0000000  -0.0000001  -0.0000001   0.0000000
   25   0.0757456  -0.0088373   0.0183509   0.0230739  -0.0083621  -0.0000000
   26  -0.0000000   0.0000000   0.0000000   0.0000000   0.0000000  -0.0000045
   27   0.0000000  -0.0000002  -0.0000001  -0.0000001   0.0000000  -0.0000000
   28  -0.0000000   0.0000000   0.0000000  -0.0000000   0.0000000   0.0000103
   29   0.0000000  -0.0000000  -0.0000000  -0.0000000  -0.0000000   0.0000000
   30  -0.0238361   0.0017197  -0.0042939   0.0084759  -0.0052695  -0.0000000
   31  -0.0000000   0.0000000   0.0000000   0.0000000   0.0000000  -0.0000014
   32   0.0000001  -0.0000001  -0.0000000  -0.0000000  -0.0000000  -0.0000000
   33  -0.0000000  -0.0000000  -0.0000000  -0.0000000  -0.0000000  -0.0000000
   34  -0.0000000   0.0000000   0.0000000   0.0000000  -0.0000000  -0.0000000
   35   0.0000223  -0.0000012   0.0000060   0.0000026   0.0000000  -0.0000000
   36  -0.0000000   0.0000001   0.0000001  -0.0000000   0.0000000  -0.0000000
   37   0.0000000  -0.0000000  -0.0000000   0.0000000  -0.0000000   0.0046273
   38   0.0000000  -0.0000001  -0.0000001  -0.0000000   0.0000000  -0.0000000
   39   0.0000000  -0.0000000  -0.0000000  -0.0000000  -0.0000000   0.0000002
   40   0.0000000  -0.0000000  -0.0000000   0.0000000  -0.0000000  -0.0000000
   41  -0.0000000   0.0000000   0.0000000   0.0000000   0.0000000  -0.0000000
   42   0.0000111  -0.0000082  -0.0000041   0.0000090  -0.0000057   0.0000000
   43  -0.0000001   0.0000002   0.0000001   0.0000001   0.0000000  -0.0000000
   44  -0.0000000   0.0000000   0.0000000   0.0000000   0.0000000   0.0214385
   45   0.0000001  -0.0000001  -0.0000001  -0.0000000  -0.0000000   0.0000000
   46  -0.0000000   0.0000000   0.0000000   0.0000000  -0.0000000   0.0000000
   47  -0.0275072  -0.0467636  -0.0129634  -0.0287096   0.0225940  -0.0000000
   48  -0.0366079   0.0164859   0.0047835   0.0172606  -0.0079623   0.0000000
   49  -0.0130955  -0.0041048   0.0036948   0.0209909  -0.0079755   0.0000000
   50   0.0011235   0.0029966   0.0057138   0.0218325  -0.0102488   0.0000000
   51  -0.0010591   0.0012590   0.0014141   0.0021936  -0.0007298   0.0000000
   52   0.0000000  -0.0000000  -0.0000000  -0.0000000  -0.0000000   0.0759097
   53   0.0000265  -0.0000304  -0.0000223  -0.0000117   0.0000023  -0.0000000
   54  -0.0558565   0.0541387   0.0280933   0.0008768   0.0059885  -0.0000000
   55   0.0000000  -0.0000000  -0.0000000  -0.0000000  -0.0000000   0.0653666
   56   0.0000040  -0.0000214  -0.0000203  -0.0000036  -0.0000017  -0.0000000
   57   0.0094263   0.0272293   0.0238813  -0.0129698   0.0122188  -0.0000000
   58   0.0000000  -0.0000000  -0.0000000  -0.0000000  -0.0000000   0.0155745
   59  -0.0000000  -0.0000077  -0.0000083  -0.0000084   0.0000028  -0.0000000
   60  -0.0137989   0.0222725   0.0160407   0.0105649  -0.0018486  -0.0000000
   61  -0.0000000   0.0000000   0.0000000   0.0000000   0.0000000   0.0000421
   62  -0.0000001  -0.0000010  -0.0000008  -0.0000026   0.0000012   0.0000000
   63   0.0031486  -0.0010274   0.0008672   0.0004074   0.0001632   0.0000000
   64  -0.0000000  -0.0000000   0.0000000   0.0000000  -0.0000000  -0.0000010
   65   0.0000080  -0.0000035  -0.0000007  -0.0000010   0.0000004  -0.0000000
   66  -0.0117138   0.0044218   0.0002254   0.0003070  -0.0000615  -0.0000000
   67   0.0000000  -0.0000000  -0.0000000  -0.0000000  -0.0000000   0.0024822
   68  -0.0000000   0.0000000   0.0000000   0.0000000   0.0000000  -0.0000000
   69   0.0000000  -0.0000000  -0.0000000   0.0000000  -0.0000000  -0.0000022
   70  -0.0000399   0.0000055  -0.0000082   0.0000022  -0.0000030   0.0000000
   71   0.0547196  -0.0091372   0.0092454  -0.0010088   0.0025580  -0.0000000
   72   0.0000000  -0.0000000  -0.0000000   0.0000000   0.0000000   0.0061335
   73  -0.0000001   0.0000001   0.0000001   0.0000001  -0.0000000   0.0000000
   74   0.0000000  -0.0000000  -0.0000000  -0.0000000  -0.0000000  -0.0000053
   75   0.0000118  -0.0000109  -0.0000070   0.0000001  -0.0000017   0.0000000
   76   0.0172775   0.0065040   0.0122586   0.0033164   0.0012724  -0.0000000
   77  -0.0000000   0.0000000   0.0000000   0.0000000   0.0000000   0.0154351
   78   0.0000000  -0.0000000  -0.0000000  -0.0000000  -0.0000000   0.0000000
   79  -0.0000000   0.0000000   0.0000000   0.0000000  -0.0000000  -0.0000000
   80   0.0000000  -0.0000000  -0.0000000  -0.0000000  -0.0000000  -0.0000007
   81  -0.0000428   0.0000093  -0.0000057   0.0000005  -0.0000015   0.0000000
   82   0.0362977  -0.0085824   0.0041019  -0.0003325   0.0010679  -0.0000000
   83   0.0000000  -0.0000000  -0.0000000   0.0000000   0.0000000   0.0013391
   84  -0.0000000   0.0000000   0.0000000   0.0000000  -0.0000000  -0.0000000
   85   0.0000000  -0.0000000  -0.0000000  -0.0000000  -0.0000000   0.0000000
   86  -0.0000000   0.0000000   0.0000000   0.0000000  -0.0000000  -0.0000000
   87   0.0000000  -0.0000000  -0.0000000  -0.0000000   0.0000000  -0.0000053
   88  -0.0000048  -0.0000037  -0.0000053  -0.0000033   0.0000005   0.0000000
   89   0.0148933   0.0016321   0.0067655   0.0014903   0.0008792   0.0000000
   90  -0.0000000   0.0000000   0.0000000   0.0000000   0.0000000   0.0033675
   91  -0.0000000   0.0000000   0.0000000   0.0000000  -0.0000000  -0.0000000
   92   0.0000000  -0.0000000  -0.0000000  -0.0000000  -0.0000000   0.0000001
   93  -0.0275071  -0.0467636  -0.0129634  -0.0287097   0.0225940   0.0000000
   94  -0.0366085   0.0164864   0.0047839   0.0172608  -0.0079623  -0.0000000
   95  -0.0130959  -0.0041043   0.0036952   0.0209912  -0.0079754  -0.0000000
   96   0.0011230   0.0029972   0.0057143   0.0218328  -0.0102487  -0.0000000
   97  -0.0010593   0.0012593   0.0014143   0.0021935  -0.0007297  -0.0000000
   98  -0.0000000   0.0000000   0.0000000   0.0000000   0.0000000   0.0758971
   99   0.0000266  -0.0000305  -0.0000224  -0.0000119   0.0000018   0.0000000
  100   0.0558562  -0.0541376  -0.0280925  -0.0008757  -0.0059885  -0.0000000
  101  -0.0000000   0.0000000   0.0000000   0.0000000   0.0000000   0.0653560
  102   0.0000041  -0.0000215  -0.0000204  -0.0000038  -0.0000021   0.0000000
  103  -0.0094281  -0.0272264  -0.0238793   0.0129710  -0.0122185  -0.0000000
  104  -0.0000000   0.0000000   0.0000000   0.0000000   0.0000000   0.0155689
  105   0.0000000  -0.0000077  -0.0000083  -0.0000085   0.0000027   0.0000000
  106   0.0137985  -0.0222718  -0.0160403  -0.0105649   0.0018487  -0.0000000
  107   0.0000000  -0.0000000  -0.0000000  -0.0000000  -0.0000000   0.0000444
  108  -0.0000001  -0.0000010  -0.0000008  -0.0000025   0.0000013  -0.0000000
  109  -0.0031486   0.0010274  -0.0008672  -0.0004074  -0.0001632   0.0000000
  110   0.0000000   0.0000000  -0.0000000  -0.0000000   0.0000000  -0.0000010
  111  -0.0000080   0.0000035   0.0000007   0.0000010  -0.0000004  -0.0000000
  112  -0.0117138   0.0044217   0.0002253   0.0003070  -0.0000615   0.0000000
  113   0.0000000  -0.0000000  -0.0000000  -0.0000000  -0.0000000  -0.0024815
  114  -0.0000000  -0.0000000   0.0000000   0.0000000  -0.0000000   0.0000000
  115  -0.0000000   0.0000000   0.0000000  -0.0000000   0.0000000  -0.0000022
  116   0.0000399  -0.0000055   0.0000082  -0.0000022   0.0000030   0.0000000
  117   0.0547205  -0.0091384   0.0092446  -0.0010090   0.0025578   0.0000000
  118   0.0000000  -0.0000000  -0.0000000   0.0000000   0.0000000  -0.0061338
  119   0.0000001  -0.0000002  -0.0000001   0.0000001  -0.0000001  -0.0000000
  120  -0.0000000   0.0000000   0.0000000   0.0000000   0.0000000  -0.0000053
  121  -0.0000118   0.0000109   0.0000069  -0.0000001   0.0000017   0.0000000
  122   0.0172777   0.0065037   0.0122584   0.0033163   0.0012723   0.0000000
  123  -0.0000000   0.0000000   0.0000000   0.0000000   0.0000000  -0.0154369
  124   0.0000001  -0.0000001  -0.0000001  -0.0000000  -0.0000000  -0.0000000
  125  -0.0000000   0.0000000   0.0000000   0.0000000  -0.0000000   0.0000000
  126   0.0000000  -0.0000000  -0.0000000  -0.0000000  -0.0000000   0.0000007
  127  -0.0000428   0.0000093  -0.0000057   0.0000005  -0.0000015  -0.0000000
  128  -0.0362980   0.0085828  -0.0041016   0.0003325  -0.0010679  -0.0000000
  129  -0.0000000   0.0000000   0.0000000  -0.0000000  -0.0000000   0.0013391
  130  -0.0000001   0.0000002   0.0000001   0.0000000   0.0000000  -0.0000000
  131  -0.0000000   0.0000000   0.0000000  -0.0000000  -0.0000000  -0.0000002
  132  -0.0000000   0.0000000   0.0000000   0.0000000  -0.0000000   0.0000000
  133   0.0000000  -0.0000000  -0.0000000  -0.0000000   0.0000000   0.0000053
  134  -0.0000048  -0.0000037  -0.0000053  -0.0000032   0.0000005  -0.0000000
  135  -0.0148934  -0.0016320  -0.0067654  -0.0014902  -0.0008792   0.0000000
  136   0.0000000  -0.0000000  -0.0000000  -0.0000000  -0.0000000   0.0033689
  137  -0.0000001   0.0000001   0.0000001   0.0000001  -0.0000000  -0.0000000
  138  -0.0000000   0.0000000   0.0000000   0.0000000  -0.0000000  -0.0000000
            7           8           9          10          11          12
    1  -0.0000432   0.0000016  -0.0000000   0.0000276   0.0000003  -0.0000000
    2   0.0000126  -0.0000023   0.0000000  -0.0000084  -0.0000005   0.0000000
    3  -0.0000062  -0.0000015   0.0000000  -0.0000002  -0.0000003   0.0000000
    4  -0.0000042  -0.0000006   0.0000000   0.0000032  -0.0000001  -0.0000000
    5   0.0000019  -0.0000002   0.0000000  -0.0000012  -0.0000000   0.0000000
    6   0.0000000   0.0000000   0.0458212   0.0000000   0.0000000   0.0022196
    7   0.0740356  -0.0000001   0.0000000   0.0458313  -0.0000000   0.0000000
    8  -0.0000001   0.1080211   0.0000000  -0.0000001   0.0663328   0.0000000
    9   0.0000000   0.0000000   0.0283693   0.0000000   0.0000000   0.0013743
   10   0.0458313  -0.0000001   0.0000000   0.0283716  -0.0000000   0.0000000
   11  -0.0000000   0.0663328   0.0000000  -0.0000000   0.0690535   0.0000000
   12   0.0000000   0.0000000   0.0013743   0.0000000   0.0000000   0.0000666
   13   0.0022227  -0.0000000   0.0000000   0.0013759  -0.0000000   0.0000000
   14  -0.0000001  -0.0135949   0.0000000  -0.0000000  -0.0040019  -0.0000000
   15   0.0000000  -0.0000000   0.0045906  -0.0000000  -0.0000000   0.0002224
   16   0.0074143   0.0000000  -0.0000000   0.0045898   0.0000000   0.0000000
   17   0.0000000   0.0103186  -0.0000000   0.0000000   0.0164423  -0.0000000
   18  -0.0000000   0.0000000   0.0000008  -0.0000000   0.0000000   0.0000000
   19   0.0000008   0.0000022   0.0000000   0.0000003   0.0000003   0.0000000
   20   0.0000024   0.0000004  -0.0000000  -0.0000039   0.0000002   0.0000000
   21   0.0000000  -0.0000000  -0.0000002   0.0000000  -0.0000000  -0.0000001
   22  -0.0000013  -0.0000001  -0.0000000  -0.0000008  -0.0000001  -0.0000000
   23  -0.0000000   0.0000000   0.0000036  -0.0000000   0.0000000   0.0000002
   24   0.0000069   0.0000227   0.0000000   0.0000018   0.0000229   0.0000000
   25  -0.0000041   0.0000025  -0.0000000   0.0000158   0.0000006  -0.0000000
   26   0.0000000   0.0000000  -0.0000012   0.0000000   0.0000000  -0.0000011
   27  -0.0000058  -0.0000004  -0.0000000  -0.0000036  -0.0000004  -0.0000000
   28  -0.0000000   0.0000000   0.0000064  -0.0000000  -0.0000000   0.0000003
   29   0.0000019   0.0000025   0.0000000   0.0000006   0.0000077   0.0000000
   30  -0.0000153   0.0000003  -0.0000000  -0.0000040  -0.0000001  -0.0000000
   31   0.0000000   0.0000000  -0.0000005   0.0000000   0.0000000  -0.0000003
   32  -0.0000103  -0.0000000  -0.0000000  -0.0000064   0.0000000  -0.0000000
   33   0.0000002  -0.0000000  -0.0000000   0.0000001  -0.0000000  -0.0000000
   34  -0.0000000  -0.0000000  -0.0000000  -0.0000000  -0.0000000  -0.0000000
   35   0.0046263   0.0000000  -0.0000000   0.0028639   0.0000000   0.0000000
   36   0.0000000   0.0097541  -0.0000000   0.0000000   0.0109173   0.0000000
   37  -0.0000000  -0.0000000   0.0028649  -0.0000000  -0.0000000   0.0001388
   38  -0.0000000   0.0000002  -0.0000000   0.0000000   0.0000001  -0.0000000
   39   0.0000000   0.0000000   0.0000001   0.0000000  -0.0000000   0.0000000
   40   0.0000000  -0.0000000  -0.0000000   0.0000000   0.0000000  -0.0000000
   41   0.0000000   0.0000000  -0.0000000   0.0000000   0.0000000  -0.0000000
   42   0.0214404  -0.0000000  -0.0000000   0.0132726   0.0000000   0.0000000
   43   0.0000000   0.0159200  -0.0000000   0.0000000   0.0349445  -0.0000000
   44   0.0000000  -0.0000000   0.0132732  -0.0000000  -0.0000000   0.0006430
   45   0.0000000  -0.0000001   0.0000000   0.0000000  -0.0000001   0.0000000
   46   0.0000000   0.0000000   0.0000000   0.0000000   0.0000000   0.0000000
   47  -0.0000125   0.0606292  -0.0000000  -0.0000185   0.0387430  -0.0000000
   48   0.0000075  -0.0182539   0.0000000   0.0000116  -0.0331421   0.0000000
   49   0.0000076  -0.0142934   0.0000000   0.0000193  -0.0480042   0.0000000
   50  -0.0000001  -0.0117947   0.0000000   0.0000140  -0.0346057   0.0000000
   51  -0.0000030   0.0090780  -0.0000000  -0.0000008   0.0085997   0.0000000
   52  -0.0000000  -0.0000000   0.0469949  -0.0000000  -0.0000000   0.0022785
   53   0.0758993   0.0000313  -0.0000000   0.0469897   0.0000250  -0.0000000
   54   0.0000512  -0.0832426  -0.0000000   0.0000154  -0.0255864  -0.0000000
   55  -0.0000000  -0.0000000   0.0404682  -0.0000000  -0.0000000   0.0019618
   56   0.0653606   0.0000355  -0.0000000   0.0404646   0.0000219  -0.0000000
   57   0.0000387  -0.0698437  -0.0000000   0.0000063  -0.0077342  -0.0000000
   58  -0.0000000   0.0000000   0.0096417  -0.0000000   0.0000000   0.0004677
   59   0.0155714  -0.0000015  -0.0000000   0.0096408  -0.0000027  -0.0000000
   60   0.0000111  -0.0249439  -0.0000000   0.0000071  -0.0205084  -0.0000000
   61   0.0000000   0.0000000   0.0000264   0.0000000   0.0000000   0.0000010
   62   0.0000453   0.0000161   0.0000000   0.0000274   0.0000164   0.0000000
   63  -0.0000061   0.0003603  -0.0000000  -0.0000033   0.0000925   0.0000000
   64  -0.0000000   0.0000000  -0.0000006  -0.0000000  -0.0000000  -0.0000000
   65   0.0024818   0.0000006  -0.0000000   0.0015365  -0.0000001  -0.0000000
   66   0.0000026  -0.0016038  -0.0000000   0.0000005   0.0000847  -0.0000000
   67  -0.0000000   0.0000000   0.0015367  -0.0000000  -0.0000000   0.0000745
   68   0.0000010  -0.0000000  -0.0000000   0.0000006  -0.0000000  -0.0000000
   69   0.0000000   0.0000000  -0.0000014   0.0000000  -0.0000000  -0.0000001
   70   0.0061375   0.0000127  -0.0000000   0.0037990   0.0000064   0.0000000
   71   0.0000039  -0.0132497  -0.0000000   0.0000042  -0.0058107  -0.0000000
   72   0.0000000   0.0000000   0.0037977  -0.0000000   0.0000000   0.0001838
   73   0.0000022  -0.0000000   0.0000000   0.0000014  -0.0000000   0.0000000
   74   0.0000000   0.0000000  -0.0000033   0.0000000   0.0000000  -0.0000002
   75   0.0154411   0.0000060   0.0000000   0.0095583   0.0000046   0.0000000
   76   0.0000055   0.0060834  -0.0000000   0.0000033   0.0150188  -0.0000000
   77   0.0000000   0.0000000   0.0095566   0.0000000   0.0000000   0.0004627
   78   0.0000053  -0.0000001   0.0000000   0.0000033  -0.0000001   0.0000000
   79   0.0000000  -0.0000000  -0.0000000   0.0000000  -0.0000000  -0.0000000
   80  -0.0000000   0.0000000  -0.0000004  -0.0000000   0.0000000  -0.0000000
   81   0.0013403   0.0000027   0.0000000   0.0008296   0.0000004   0.0000000
   82  -0.0000000  -0.0027951  -0.0000000   0.0000022  -0.0009401  -0.0000000
   83   0.0000000   0.0000000   0.0008291  -0.0000000   0.0000000   0.0000401
   84   0.0000007  -0.0000000  -0.0000000   0.0000004  -0.0000000  -0.0000000
   85   0.0000000   0.0000000   0.0000000   0.0000000   0.0000000   0.0000000
   86   0.0000001   0.0000000  -0.0000000   0.0000001  -0.0000000  -0.0000000
   87  -0.0000000   0.0000000  -0.0000033  -0.0000000   0.0000000  -0.0000002
   88   0.0033715  -0.0000011   0.0000000   0.0020868  -0.0000039   0.0000000
   89   0.0000059  -0.0022076   0.0000000   0.0000040  -0.0006094  -0.0000000
   90   0.0000000   0.0000000   0.0020851   0.0000000   0.0000000   0.0001009
   91   0.0000053  -0.0000000  -0.0000000   0.0000033  -0.0000001  -0.0000000
   92   0.0000000   0.0000000   0.0000001   0.0000000   0.0000000   0.0000000
   93  -0.0000124  -0.0606299   0.0000000  -0.0000185  -0.0387431   0.0000000
   94   0.0000075   0.0182552  -0.0000000   0.0000116   0.0331426  -0.0000000
   95   0.0000076   0.0142951  -0.0000000   0.0000193   0.0480046  -0.0000000
   96  -0.0000001   0.0117953  -0.0000000   0.0000140   0.0346057  -0.0000000
   97  -0.0000031  -0.0090784   0.0000000  -0.0000008  -0.0085999  -0.0000000
   98   0.0000000  -0.0000000   0.0469932   0.0000000  -0.0000000   0.0022744
   99   0.0759185  -0.0000313   0.0000000   0.0469922  -0.0000249   0.0000000
  100  -0.0000512  -0.0832450  -0.0000000  -0.0000155  -0.0255878  -0.0000000
  101   0.0000000  -0.0000000   0.0404661   0.0000000  -0.0000000   0.0019588
  102   0.0653769  -0.0000355   0.0000000   0.0404677  -0.0000218   0.0000000
  103  -0.0000385  -0.0698415  -0.0000000  -0.0000062  -0.0077341  -0.0000000
  104   0.0000000   0.0000000   0.0096401   0.0000000   0.0000000   0.0004664
  105   0.0155795   0.0000014   0.0000000   0.0096429   0.0000027   0.0000000
  106  -0.0000112  -0.0249420  -0.0000000  -0.0000072  -0.0205082  -0.0000000
  107  -0.0000000   0.0000000   0.0000271  -0.0000000   0.0000000   0.0000016
  108   0.0000419  -0.0000161  -0.0000000   0.0000265  -0.0000165  -0.0000000
  109   0.0000061   0.0003611  -0.0000000   0.0000033   0.0000928   0.0000000
  110   0.0000000   0.0000000  -0.0000006   0.0000000  -0.0000000  -0.0000000
  111  -0.0024827   0.0000006  -0.0000000  -0.0015367  -0.0000001  -0.0000000
  112   0.0000026   0.0016037   0.0000000   0.0000005  -0.0000846   0.0000000
  113  -0.0000000  -0.0000000  -0.0015365  -0.0000000   0.0000000  -0.0000744
  114   0.0000010   0.0000000   0.0000000   0.0000006   0.0000001   0.0000000
  115  -0.0000000   0.0000000  -0.0000014  -0.0000000  -0.0000000  -0.0000001
  116  -0.0061372   0.0000128  -0.0000000  -0.0037995   0.0000064   0.0000000
  117   0.0000039   0.0132480   0.0000000   0.0000042   0.0058104   0.0000000
  118  -0.0000000  -0.0000000  -0.0037974  -0.0000000  -0.0000000  -0.0001841
  119   0.0000022  -0.0000001  -0.0000000   0.0000014   0.0000001  -0.0000000
  120  -0.0000000   0.0000000  -0.0000033  -0.0000000   0.0000000  -0.0000002
  121  -0.0154387   0.0000060   0.0000000  -0.0095577   0.0000046   0.0000000
  122   0.0000056  -0.0060852   0.0000000   0.0000034  -0.0150193   0.0000000
  123   0.0000000  -0.0000000  -0.0095572   0.0000000  -0.0000000  -0.0004632
  124   0.0000053  -0.0000001  -0.0000000   0.0000033  -0.0000001  -0.0000000
  125  -0.0000002   0.0000000   0.0000000  -0.0000001   0.0000000   0.0000000
  126  -0.0000000  -0.0000000   0.0000004  -0.0000000  -0.0000000   0.0000000
  127   0.0013400  -0.0000027   0.0000000   0.0008296  -0.0000004  -0.0000000
  128   0.0000000  -0.0027947  -0.0000000  -0.0000022  -0.0009399  -0.0000000
  129  -0.0000000   0.0000000   0.0008290   0.0000000   0.0000000   0.0000402
  130  -0.0000007   0.0000002  -0.0000000  -0.0000004   0.0000001  -0.0000000
  131  -0.0000000   0.0000000  -0.0000001  -0.0000000   0.0000000  -0.0000000
  132  -0.0000000   0.0000000   0.0000000  -0.0000000   0.0000000   0.0000000
  133  -0.0000000  -0.0000000   0.0000033  -0.0000000  -0.0000000   0.0000002
  134   0.0033691   0.0000011  -0.0000000   0.0020859   0.0000039  -0.0000000
  135  -0.0000059  -0.0022070   0.0000000  -0.0000040  -0.0006091  -0.0000000
  136  -0.0000000   0.0000000   0.0020856  -0.0000000   0.0000000   0.0001012
  137  -0.0000053   0.0000001  -0.0000000  -0.0000033   0.0000001  -0.0000000
  138  -0.0000000   0.0000000  -0.0000000  -0.0000000   0.0000000  -0.0000000
           13          14          15          16          17          18
    1  -0.0000104  -0.0000003  -0.0000000   0.0000098  -0.0000000   0.0000000
    2   0.0000013   0.0000004  -0.0000000  -0.0000017   0.0000000   0.0000000
    3  -0.0000019   0.0000002   0.0000000   0.0000014   0.0000000   0.0000000
    4  -0.0000025   0.0000000   0.0000000   0.0000077   0.0000000   0.0000000
    5   0.0000011   0.0000001   0.0000000  -0.0000039   0.0000000  -0.0000000
    6   0.0000000  -0.0000000   0.0074146  -0.0000000  -0.0000000   0.0000013
    7   0.0022227  -0.0000001   0.0000000   0.0074143   0.0000000  -0.0000000
    8  -0.0000000  -0.0135949  -0.0000000   0.0000000   0.0103186   0.0000000
    9   0.0000000   0.0000000   0.0045906  -0.0000000  -0.0000000   0.0000008
   10   0.0013759  -0.0000000  -0.0000000   0.0045898   0.0000000  -0.0000000
   11  -0.0000000  -0.0040019  -0.0000000   0.0000000   0.0164423   0.0000000
   12   0.0000000  -0.0000000   0.0002224   0.0000000  -0.0000000   0.0000000
   13   0.0000667  -0.0000000   0.0000000   0.0002226  -0.0000000  -0.0000000
   14  -0.0000000   0.0023782   0.0000000  -0.0000000   0.0002398  -0.0000000
   15   0.0000000   0.0000000   0.0007428  -0.0000000  -0.0000000   0.0000001
   16   0.0002226  -0.0000000  -0.0000000   0.0007425   0.0000000  -0.0000000
   17  -0.0000000   0.0002398  -0.0000000   0.0000000   0.0054369   0.0000000
   18  -0.0000000  -0.0000000   0.0000001  -0.0000000   0.0000000   0.0000000
   19   0.0000002  -0.0000008  -0.0000000  -0.0000000   0.0000006   0.0000000
   20   0.0000007  -0.0000001  -0.0000000  -0.0000011  -0.0000000   0.0000000
   21   0.0000000  -0.0000000   0.0000000  -0.0000000  -0.0000000  -0.0000000
   22  -0.0000000   0.0000000  -0.0000000  -0.0000001  -0.0000000  -0.0000000
   23  -0.0000000  -0.0000000   0.0000006  -0.0000000   0.0000000   0.0000000
   24   0.0000018  -0.0000061  -0.0000000  -0.0000008   0.0000092   0.0000000
   25  -0.0000053  -0.0000006  -0.0000000   0.0000166  -0.0000001   0.0000000
   26   0.0000000  -0.0000000   0.0000005  -0.0000000  -0.0000000  -0.0000000
   27  -0.0000002   0.0000000  -0.0000000  -0.0000006  -0.0000001  -0.0000000
   28  -0.0000000  -0.0000000   0.0000010  -0.0000000  -0.0000000   0.0000000
   29   0.0000004  -0.0000005  -0.0000000  -0.0000002   0.0000038   0.0000000
   30  -0.0000021  -0.0000001   0.0000000   0.0000057  -0.0000000   0.0000000
   31   0.0000000  -0.0000000   0.0000001  -0.0000000  -0.0000000  -0.0000000
   32  -0.0000003   0.0000000  -0.0000000  -0.0000010   0.0000000   0.0000000
   33   0.0000000   0.0000000  -0.0000000   0.0000000  -0.0000000  -0.0000000
   34  -0.0000000   0.0000000   0.0000000  -0.0000000  -0.0000000  -0.0000000
   35   0.0001389  -0.0000000  -0.0000000   0.0004633   0.0000000  -0.0000000
   36  -0.0000000  -0.0004743  -0.0000000   0.0000000   0.0028881   0.0000000
   37   0.0000000   0.0000000   0.0004636  -0.0000000  -0.0000000   0.0000001
   38  -0.0000000  -0.0000000  -0.0000000   0.0000000   0.0000000  -0.0000000
   39   0.0000000  -0.0000000   0.0000000   0.0000000  -0.0000000   0.0000000
   40   0.0000000   0.0000000  -0.0000000   0.0000000   0.0000000  -0.0000000
   41   0.0000000  -0.0000000  -0.0000000   0.0000000   0.0000000  -0.0000000
   42   0.0006437  -0.0000000  -0.0000000   0.0021472   0.0000000  -0.0000000
   43  -0.0000000   0.0018366   0.0000000   0.0000000   0.0120098   0.0000000
   44   0.0000000   0.0000000   0.0021478  -0.0000000  -0.0000000   0.0000004
   45  -0.0000000   0.0000000   0.0000000   0.0000000  -0.0000000  -0.0000000
   46   0.0000000   0.0000000   0.0000000   0.0000000   0.0000000   0.0000000
   47   0.0000111  -0.0076854   0.0000000  -0.0000288   0.0256518   0.0000000
   48  -0.0000026  -0.0010452   0.0000000   0.0000115  -0.0111582  -0.0000000
   49  -0.0000027  -0.0042573  -0.0000000   0.0000148  -0.0129496  -0.0000000
   50  -0.0000044  -0.0026964  -0.0000000   0.0000163  -0.0121532  -0.0000000
   51  -0.0000004  -0.0006845  -0.0000000   0.0000009   0.0023664   0.0000000
   52  -0.0000000   0.0000000   0.0076033   0.0000000  -0.0000000   0.0000013
   53   0.0022757   0.0000056   0.0000000   0.0076037  -0.0000015  -0.0000000
   54   0.0000039   0.0143655   0.0000000  -0.0000072   0.0031238  -0.0000000
   55  -0.0000000   0.0000000   0.0065475   0.0000000  -0.0000000   0.0000011
   56   0.0019601   0.0000019   0.0000000   0.0065476  -0.0000022  -0.0000000
   57   0.0000053   0.0141322   0.0000000  -0.0000150   0.0094552  -0.0000000
   58  -0.0000000  -0.0000000   0.0015598   0.0000000  -0.0000000   0.0000003
   59   0.0004666   0.0000026   0.0000000   0.0015602  -0.0000029  -0.0000000
   60  -0.0000007   0.0023466   0.0000000   0.0000034  -0.0045051  -0.0000000
   61   0.0000000  -0.0000000   0.0000044  -0.0000000  -0.0000000   0.0000000
   62   0.0000018  -0.0000022  -0.0000000   0.0000042   0.0000046   0.0000000
   63  -0.0000002  -0.0000638  -0.0000000  -0.0000005  -0.0000984   0.0000000
   64  -0.0000000  -0.0000000  -0.0000001  -0.0000000  -0.0000000  -0.0000000
   65   0.0000744   0.0000002   0.0000000   0.0002486  -0.0000003  -0.0000000
   66   0.0000002   0.0003672   0.0000000  -0.0000002   0.0001456  -0.0000000
   67  -0.0000000   0.0000000   0.0002486   0.0000000  -0.0000000   0.0000000
   68   0.0000000   0.0000000  -0.0000000   0.0000001  -0.0000000  -0.0000000
   69   0.0000000  -0.0000000  -0.0000002   0.0000000  -0.0000000  -0.0000000
   70   0.0001845  -0.0000025  -0.0000000   0.0006144   0.0000006   0.0000000
   71   0.0000000   0.0020083   0.0000000  -0.0000008   0.0006535  -0.0000000
   72   0.0000000  -0.0000000   0.0006146  -0.0000000  -0.0000000   0.0000001
   73   0.0000001   0.0000000   0.0000000   0.0000002  -0.0000000   0.0000000
   74   0.0000000  -0.0000000  -0.0000005   0.0000000   0.0000000  -0.0000000
   75   0.0004639  -0.0000015  -0.0000000   0.0015461   0.0000011   0.0000000
   76   0.0000001   0.0009529   0.0000000  -0.0000003   0.0054882   0.0000000
   77   0.0000000  -0.0000000   0.0015465  -0.0000000  -0.0000000   0.0000003
   78   0.0000002   0.0000000   0.0000000   0.0000005  -0.0000000  -0.0000000
   79   0.0000000   0.0000000  -0.0000000   0.0000000  -0.0000000  -0.0000000
   80  -0.0000000  -0.0000000  -0.0000001  -0.0000000   0.0000000  -0.0000000
   81   0.0000403  -0.0000006  -0.0000000   0.0001342  -0.0000004   0.0000000
   82  -0.0000002   0.0004641   0.0000000   0.0000002   0.0004708  -0.0000000
   83   0.0000000  -0.0000000   0.0001342  -0.0000000  -0.0000000   0.0000000
   84   0.0000000   0.0000000  -0.0000000   0.0000001  -0.0000000  -0.0000000
   85   0.0000000   0.0000000   0.0000000   0.0000000  -0.0000000   0.0000000
   86   0.0000000   0.0000000  -0.0000000   0.0000000  -0.0000000  -0.0000000
   87  -0.0000000  -0.0000000  -0.0000005  -0.0000000   0.0000000  -0.0000000
   88   0.0001014  -0.0000009  -0.0000000   0.0003375  -0.0000014   0.0000000
   89   0.0000001   0.0003873   0.0000000   0.0000001   0.0003988  -0.0000000
   90   0.0000000  -0.0000000   0.0003375  -0.0000000  -0.0000000   0.0000001
   91   0.0000002  -0.0000000  -0.0000000   0.0000005  -0.0000000   0.0000000
   92   0.0000000   0.0000000   0.0000000   0.0000000   0.0000000   0.0000000
   93   0.0000111   0.0076857  -0.0000000  -0.0000288  -0.0256517  -0.0000000
   94  -0.0000026   0.0010448  -0.0000000   0.0000115   0.0111583   0.0000000
   95  -0.0000027   0.0042568   0.0000000   0.0000148   0.0129496   0.0000000
   96  -0.0000044   0.0026960   0.0000000   0.0000163   0.0121532   0.0000000
   97  -0.0000004   0.0006845   0.0000000   0.0000009  -0.0023664  -0.0000000
   98   0.0000000   0.0000000   0.0076056  -0.0000000  -0.0000000   0.0000013
   99   0.0022822  -0.0000058  -0.0000000   0.0076001   0.0000016   0.0000000
  100  -0.0000039   0.0143658   0.0000000   0.0000072   0.0031240  -0.0000000
  101   0.0000000   0.0000000   0.0065490  -0.0000000  -0.0000000   0.0000011
  102   0.0019649  -0.0000020  -0.0000000   0.0065452   0.0000023   0.0000000
  103  -0.0000052   0.0141316   0.0000000   0.0000150   0.0094552  -0.0000000
  104   0.0000000  -0.0000000   0.0015603  -0.0000000  -0.0000000   0.0000003
  105   0.0004687  -0.0000026  -0.0000000   0.0015594   0.0000029   0.0000000
  106   0.0000007   0.0023463   0.0000000  -0.0000034  -0.0045053  -0.0000000
  107  -0.0000000  -0.0000000   0.0000042   0.0000000  -0.0000000   0.0000000
  108   0.0000009   0.0000022   0.0000000   0.0000046  -0.0000046  -0.0000000
  109   0.0000002  -0.0000639  -0.0000000   0.0000005  -0.0000984   0.0000000
  110   0.0000000  -0.0000000  -0.0000001   0.0000000  -0.0000000  -0.0000000
  111  -0.0000747   0.0000002   0.0000000  -0.0002485  -0.0000003  -0.0000000
  112   0.0000002  -0.0003672  -0.0000000  -0.0000002  -0.0001456   0.0000000
  113  -0.0000000  -0.0000000  -0.0002487   0.0000000   0.0000000  -0.0000000
  114   0.0000000   0.0000000   0.0000000   0.0000001   0.0000000   0.0000000
  115  -0.0000000  -0.0000000  -0.0000002  -0.0000000  -0.0000000  -0.0000000
  116  -0.0001840  -0.0000025  -0.0000000  -0.0006148   0.0000006   0.0000000
  117   0.0000000  -0.0020079  -0.0000000  -0.0000008  -0.0006534   0.0000000
  118   0.0000000   0.0000000  -0.0006144  -0.0000000   0.0000000  -0.0000001
  119   0.0000001   0.0000000  -0.0000000   0.0000002   0.0000001  -0.0000000
  120  -0.0000000  -0.0000000  -0.0000005  -0.0000000   0.0000000  -0.0000000
  121  -0.0004632  -0.0000014  -0.0000000  -0.0015464   0.0000011   0.0000000
  122   0.0000001  -0.0009526  -0.0000000  -0.0000003  -0.0054882  -0.0000000
  123   0.0000000   0.0000000  -0.0015464  -0.0000000   0.0000000  -0.0000003
  124   0.0000002   0.0000000  -0.0000000   0.0000005  -0.0000000   0.0000000
  125  -0.0000000   0.0000000   0.0000000  -0.0000000   0.0000000   0.0000000
  126  -0.0000000   0.0000000   0.0000001  -0.0000000  -0.0000000   0.0000000
  127   0.0000402   0.0000006   0.0000000   0.0001342   0.0000004  -0.0000000
  128   0.0000002   0.0004640   0.0000000  -0.0000002   0.0004708  -0.0000000
  129  -0.0000000  -0.0000000   0.0001341   0.0000000  -0.0000000   0.0000000
  130  -0.0000000  -0.0000000  -0.0000000  -0.0000001  -0.0000000  -0.0000000
  131  -0.0000000  -0.0000000  -0.0000000  -0.0000000   0.0000000  -0.0000000
  132  -0.0000000   0.0000000   0.0000000  -0.0000000   0.0000000   0.0000000
  133  -0.0000000   0.0000000   0.0000005  -0.0000000  -0.0000000   0.0000000
  134   0.0001010   0.0000009   0.0000000   0.0003376   0.0000014  -0.0000000
  135  -0.0000001   0.0003872   0.0000000  -0.0000001   0.0003989  -0.0000000
  136  -0.0000000  -0.0000000   0.0003374   0.0000000  -0.0000000   0.0000001
  137  -0.0000002  -0.0000000  -0.0000000  -0.0000005   0.0000000   0.0000000
  138  -0.0000000   0.0000000  -0.0000000  -0.0000000   0.0000000  -0.0000000
           19          20          21          22          23          24
    1   0.0000000  -0.0710116  -0.0000000  -0.0000000  -0.0000000   0.0000001
    2  -0.0000000   0.0220110   0.0000000  -0.0000000   0.0000000  -0.0000000
    3  -0.0000000  -0.0031451   0.0000000  -0.0000001   0.0000000  -0.0000000
    4  -0.0000000   0.0016787   0.0000000  -0.0000000   0.0000000  -0.0000001
    5  -0.0000000  -0.0014262   0.0000000   0.0000000  -0.0000000  -0.0000001
    6   0.0000000  -0.0000000  -0.0000005  -0.0000000   0.0000058   0.0000000
    7   0.0000008   0.0000024   0.0000000  -0.0000013  -0.0000000   0.0000069
    8   0.0000022   0.0000004  -0.0000000  -0.0000001   0.0000000   0.0000227
    9   0.0000000  -0.0000000  -0.0000002  -0.0000000   0.0000036   0.0000000
   10   0.0000003  -0.0000039   0.0000000  -0.0000008  -0.0000000   0.0000018
   11   0.0000003   0.0000002  -0.0000000  -0.0000001   0.0000000   0.0000229
   12   0.0000000   0.0000000  -0.0000001  -0.0000000   0.0000002   0.0000000
   13   0.0000002   0.0000007   0.0000000  -0.0000000  -0.0000000   0.0000018
   14  -0.0000008  -0.0000001  -0.0000000   0.0000000  -0.0000000  -0.0000061
   15  -0.0000000  -0.0000000   0.0000000  -0.0000000   0.0000006  -0.0000000
   16  -0.0000000  -0.0000011  -0.0000000  -0.0000001  -0.0000000  -0.0000008
   17   0.0000006  -0.0000000  -0.0000000  -0.0000000   0.0000000   0.0000092
   18   0.0000000   0.0000000  -0.0000000  -0.0000000   0.0000000   0.0000000
   19   0.0002356   0.0000000   0.0000000   0.0000000   0.0000000   0.0028787
   20   0.0000000   0.0067379  -0.0000000  -0.0000000   0.0000000   0.0000000
   21   0.0000000  -0.0000000   0.0002356   0.0000000  -0.0000000   0.0000000
   22   0.0000000  -0.0000000   0.0000000   0.0000000  -0.0000000   0.0000000
   23   0.0000000   0.0000000  -0.0000000  -0.0000000   0.0000000   0.0000000
   24   0.0028787   0.0000000   0.0000000   0.0000000   0.0000000   0.0351721
   25   0.0000000  -0.0064900  -0.0000000  -0.0000001   0.0000000   0.0000002
   26   0.0000000  -0.0000000   0.0028784   0.0000000  -0.0000000   0.0000000
   27   0.0000000  -0.0000000   0.0000000   0.0000000  -0.0000000   0.0000000
   28  -0.0000000   0.0000000  -0.0000000  -0.0000000   0.0000000  -0.0000000
   29   0.0006958   0.0000000   0.0000000   0.0000000   0.0000000   0.0085012
   30   0.0000000   0.0011499  -0.0000000  -0.0000000   0.0000000   0.0000000
   31   0.0000000  -0.0000000   0.0006956   0.0000000  -0.0000000   0.0000000
   32   0.0000000  -0.0000000  -0.0000000   0.0000000   0.0000000   0.0000000
   33  -0.0000000  -0.0000000   0.0000000  -0.0000000  -0.0000000  -0.0000000
   34  -0.0000000   0.0000000   0.0000005   0.0000000  -0.0000000  -0.0000000
   35  -0.0000001  -0.0000017  -0.0000000  -0.0000001  -0.0000000  -0.0000009
   36  -0.0000005   0.0000000  -0.0000000  -0.0000000   0.0000000  -0.0000036
   37  -0.0000000  -0.0000000   0.0000000  -0.0000000   0.0000004  -0.0000000
   38  -0.0000005  -0.0000000  -0.0000000  -0.0000000  -0.0000000  -0.0000059
   39  -0.0000000   0.0000000  -0.0000000  -0.0000000   0.0000000  -0.0000000
   40  -0.0000000  -0.0000000   0.0000000  -0.0000000  -0.0000000  -0.0000000
   41  -0.0000000   0.0000000   0.0000008   0.0000000  -0.0000000  -0.0000000
   42  -0.0000000  -0.0000023   0.0000000  -0.0000004  -0.0000000  -0.0000010
   43  -0.0000004  -0.0000001  -0.0000000  -0.0000000   0.0000000   0.0000050
   44  -0.0000000  -0.0000000  -0.0000000  -0.0000000   0.0000017  -0.0000000
   45  -0.0000008  -0.0000000  -0.0000000  -0.0000000  -0.0000000  -0.0000094
   46  -0.0000000   0.0000000  -0.0000000  -0.0000000   0.0000000  -0.0000000
   47   0.0000120  -0.0112713   0.0000000  -0.0000000   0.0000000   0.0000316
   48  -0.0000012   0.0033458  -0.0000000   0.0000000  -0.0000000  -0.0000209
   49   0.0000014  -0.0025475  -0.0000000   0.0000000  -0.0000000  -0.0000273
   50  -0.0000006  -0.0006938  -0.0000000   0.0000000  -0.0000000  -0.0000209
   51   0.0000005   0.0000196   0.0000000  -0.0000000   0.0000000   0.0000059
   52  -0.0000000   0.0000000  -0.0054690  -0.0000000   0.0000059  -0.0000000
   53  -0.0054694  -0.0000065   0.0000000  -0.0000013  -0.0000000  -0.0668283
   54  -0.0000037   0.0095994  -0.0000000   0.0000000  -0.0000000  -0.0000350
   55  -0.0000000   0.0000000  -0.0039856  -0.0000000   0.0000051  -0.0000000
   56  -0.0039858  -0.0000041   0.0000000  -0.0000011  -0.0000000  -0.0487010
   57  -0.0000013   0.0031627   0.0000000   0.0000000  -0.0000000  -0.0000080
   58   0.0000000   0.0000000  -0.0016838  -0.0000000   0.0000012   0.0000000
   59  -0.0016839  -0.0000009   0.0000000  -0.0000003  -0.0000000  -0.0205749
   60  -0.0000008   0.0028664   0.0000000  -0.0000000  -0.0000000  -0.0000117
[...]
  18  C     d 1      0.00000  -0.00000   0.00000  -0.00000   0.00005  -0.11428
  19  C     d 2     -0.00000   0.01478  -0.00129   0.00003   0.00000  -0.00000
  20  C     d 3     -0.00000   0.00000  -0.00001   0.00000  -0.00000   0.00000
  21  C     d 4      0.01479  -0.00000   0.00000   0.00000  -0.00003   0.00000
  22  C     d 5     -0.00000  -0.00000  -0.00000   0.00005   0.00000  -0.00000
  23  C     d 1     -0.00000   0.00000  -0.00000   0.00000  -0.00012   0.30075
  24  C     d 2      0.00000  -0.22539   0.00060   0.00002  -0.00000   0.00000
  25  C     d 3      0.00000  -0.00000   0.00000  -0.00000   0.00000  -0.00000
  26  C     d 4     -0.22540  -0.00000  -0.00000  -0.00000  -0.00002  -0.00000
  27  C     d 5      0.00000   0.00000   0.00001  -0.00012  -0.00000   0.00000
  28  C     d 1     -0.00000   0.00000  -0.00000   0.00000  -0.00001   0.02033
  29  C     d 2      0.00000  -0.04932   0.00015  -0.00003  -0.00000   0.00000
  30  C     d 3      0.00000  -0.00000   0.00000  -0.00000   0.00000   0.00000
  31  C     d 4     -0.04932  -0.00000  -0.00000  -0.00000   0.00003   0.00000
  32  C     d 5      0.00000   0.00000   0.00000  -0.00001  -0.00000   0.00000
  33  C     f 1     -0.00000   0.00000   0.00000  -0.00000  -0.00000   0.00000
  34  C     f 2     -0.00082   0.00000  -0.00000   0.00000  -0.23317  -0.00009
  35  C     f 3     -0.00000  -0.00001   0.00000   0.00000   0.00000  -0.00000
  36  C     f 4     -0.00000  -0.00011  -0.60217  -0.00007   0.00000  -0.00000
  37  C     f 5     -0.00001  -0.00000  -0.00000   0.00000  -0.00000   0.00009
  38  C     f 6      0.00000   0.00082   0.00002  -0.23317  -0.00000  -0.00000
  39  C     f 7      0.00000   0.00000   0.00000  -0.00000   0.00000  -0.00009
  40  C     f 1      0.00000  -0.00000   0.00000  -0.00000   0.00000   0.00000
  41  C     f 2     -0.00006   0.00000  -0.00000   0.00000  -0.12643  -0.00005
  42  C     f 3      0.00000   0.00000   0.00000  -0.00000   0.00000   0.00000
  43  C     f 4     -0.00000   0.00050   0.05330   0.00001  -0.00000   0.00000
  44  C     f 5      0.00000   0.00000   0.00000   0.00000   0.00000  -0.00008
  45  C     f 6      0.00000   0.00006   0.00001  -0.12643  -0.00000  -0.00000
  46  C     f 7     -0.00000  -0.00000   0.00000   0.00000   0.00000  -0.00010
  47  O 1   s       -0.00000  -0.00003  -0.09598  -0.00001   0.00000  -0.00000
  48  O 1   s       -0.00000  -0.00011  -0.29401  -0.00003   0.00000  -0.00000
  49  O 1   s        0.00000   0.00009   0.00524   0.00000  -0.00000   0.00000
  50  O 1   s        0.00000  -0.00003   0.04150   0.00000  -0.00000   0.00000
  51  O 1   s       -0.00000  -0.00005  -0.04681  -0.00000   0.00000  -0.00000
  52  O 1   px       0.09692   0.00000   0.00000  -0.00000   0.00002  -0.00001
  53  O 1   py       0.00000   0.09692  -0.00006  -0.00002  -0.00000  -0.00000
  54  O 1   pz      -0.00000   0.00019  -0.14904  -0.00002   0.00000  -0.00000
  55  O 1   px      -0.23926   0.00000   0.00000  -0.00000  -0.00010  -0.00006
  56  O 1   py       0.00000  -0.23926   0.00058   0.00010  -0.00000   0.00000
  57  O 1   pz      -0.00000  -0.00065  -0.19661  -0.00002   0.00000  -0.00000
  58  O 1   px       0.06929  -0.00000  -0.00000   0.00000  -0.00001   0.00002
  59  O 1   py      -0.00000   0.06929  -0.00030   0.00001   0.00000  -0.00000
  60  O 1   pz       0.00000  -0.00010   0.03130   0.00000  -0.00000   0.00000
  61  O 1   px      -0.12360  -0.00000  -0.00000   0.00000   0.00000   0.00001
  62  O 1   py      -0.00000  -0.12360   0.00051  -0.00000   0.00000   0.00000
  63  O 1   pz      -0.00000   0.00012   0.02313   0.00000   0.00000   0.00000
  64  O 1   d 1     -0.00018   0.00000  -0.00000  -0.00000   0.84826   0.85554
  65  O 1   d 2      0.00000  -0.82386   0.00290   0.00010  -0.00000   0.00000
  66  O 1   d 3      0.00000  -0.00292  -0.81374  -0.00009   0.00000  -0.00000
  67  O 1   d 4     -0.82387   0.00000   0.00000  -0.00000  -0.00010   0.00005
  68  O 1   d 5      0.00000   0.00018  -0.00006   0.84826   0.00000   0.00000
  69  O 1   d 1     -0.00006  -0.00000   0.00000   0.00000  -0.54512  -0.53842
  70  O 1   d 2     -0.00000   0.36449  -0.00146   0.00003   0.00000  -0.00000
  71  O 1   d 3     -0.00000   0.00118   0.23755   0.00003  -0.00000   0.00000
  72  O 1   d 4      0.36449  -0.00000  -0.00000   0.00000  -0.00003  -0.00011
  73  O 1   d 5     -0.00000   0.00006   0.00004  -0.54512  -0.00000  -0.00000
  74  O 1   d 1     -0.00002   0.00000  -0.00000  -0.00000   0.01564   0.04300
  75  O 1   d 2      0.00000  -0.09857   0.00036   0.00004  -0.00000   0.00000
  76  O 1   d 3     -0.00000  -0.00010  -0.06636  -0.00001   0.00000  -0.00000
  77  O 1   d 4     -0.09857   0.00000   0.00000  -0.00000  -0.00004  -0.00002
  78  O 1   d 5      0.00000   0.00002  -0.00000   0.01564   0.00000   0.00000
  79  O 1   f 1     -0.00000  -0.00000  -0.00000   0.00007   0.00000   0.00000
  80  O 1   f 2     -0.00043  -0.00000   0.00000   0.00000  -0.13264  -0.06761
  81  O 1   f 3      0.00000  -0.06383  -0.00007   0.00012  -0.00000   0.00000
  82  O 1   f 4      0.00000  -0.00046  -0.28237  -0.00003   0.00000  -0.00000
  83  O 1   f 5     -0.06383   0.00000   0.00000  -0.00000  -0.00012  -0.00008
  84  O 1   f 6     -0.00000   0.00043   0.00001  -0.13264  -0.00000  -0.00000
  85  O 1   f 7     -0.00000   0.00000   0.00000   0.00000  -0.00007  -0.00003
  86  O 1   f 1     -0.00000  -0.00000  -0.00000   0.00004  -0.00000  -0.00000
  87  O 1   f 2      0.00004  -0.00000   0.00000  -0.00000   0.00405  -0.06670
  88  O 1   f 3     -0.00000   0.05153  -0.00015   0.00003   0.00000  -0.00000
  89  O 1   f 4     -0.00000  -0.00002  -0.02731  -0.00000  -0.00000  -0.00000
  90  O 1   f 5      0.05153  -0.00000  -0.00000   0.00000  -0.00003   0.00002
  91  O 1   f 6     -0.00000  -0.00004  -0.00000   0.00405   0.00000  -0.00000
  92  O 1   f 7     -0.00000   0.00000  -0.00000  -0.00000  -0.00004   0.00002
  93  O 2   s       -0.00000   0.00003   0.09598   0.00001   0.00000   0.00000
  94  O 2   s       -0.00000   0.00011   0.29401   0.00003   0.00000   0.00000
  95  O 2   s        0.00000  -0.00009  -0.00524  -0.00000  -0.00000  -0.00000
  96  O 2   s        0.00000   0.00003  -0.04150  -0.00000  -0.00000  -0.00000
  97  O 2   s       -0.00000   0.00005   0.04681   0.00000  -0.00000   0.00000
  98  O 2   px      -0.09692   0.00000   0.00000   0.00000  -0.00002  -0.00001
  99  O 2   py       0.00000  -0.09692   0.00006   0.00002   0.00000   0.00000
 100  O 2   pz       0.00000   0.00019  -0.14905  -0.00002  -0.00000  -0.00000
 101  O 2   px       0.23926   0.00000   0.00000  -0.00000   0.00010  -0.00006
 102  O 2   py       0.00000   0.23926  -0.00058  -0.00010  -0.00000  -0.00000
 103  O 2   pz       0.00000  -0.00065  -0.19661  -0.00002  -0.00000  -0.00000
 104  O 2   px      -0.06929  -0.00000  -0.00000   0.00000   0.00001   0.00002
 105  O 2   py      -0.00000  -0.06929   0.00030  -0.00001   0.00000   0.00000
 106  O 2   pz      -0.00000  -0.00010   0.03131   0.00000   0.00000   0.00000
 107  O 2   px       0.12360  -0.00000  -0.00000   0.00000  -0.00000   0.00001
 108  O 2   py      -0.00000   0.12360  -0.00051   0.00000   0.00000  -0.00000
 109  O 2   pz       0.00000   0.00012   0.02313   0.00000  -0.00000   0.00000
 110  O 2   d 1      0.00018   0.00000  -0.00000   0.00000  -0.84895   0.85485
 111  O 2   d 2     -0.00000  -0.82389   0.00290   0.00010   0.00000   0.00000
 112  O 2   d 3      0.00000   0.00292   0.81376   0.00009   0.00000   0.00000
 113  O 2   d 4     -0.82389  -0.00000  -0.00000   0.00000  -0.00010  -0.00005
 114  O 2   d 5      0.00000  -0.00018   0.00013  -0.84895  -0.00000   0.00000
 115  O 2   d 1      0.00006  -0.00000   0.00000  -0.00000   0.54555  -0.53798
 116  O 2   d 2      0.00000   0.36450  -0.00146   0.00003  -0.00000  -0.00000
 117  O 2   d 3     -0.00000  -0.00118  -0.23756  -0.00002  -0.00000  -0.00000
 118  O 2   d 4      0.36450   0.00000   0.00000  -0.00000  -0.00003   0.00011
 119  O 2   d 5     -0.00000  -0.00006  -0.00008   0.54555   0.00000  -0.00000
 120  O 2   d 1      0.00002   0.00000  -0.00000   0.00000  -0.01568   0.04299
 121  O 2   d 2     -0.00000  -0.09858   0.00036   0.00004   0.00000   0.00000
 122  O 2   d 3     -0.00000   0.00010   0.06636   0.00001   0.00000   0.00000
 123  O 2   d 4     -0.09858  -0.00000  -0.00000   0.00000  -0.00004   0.00002
 124  O 2   d 5      0.00000  -0.00002   0.00000  -0.01568  -0.00000   0.00000
 125  O 2   f 1     -0.00000   0.00000   0.00000  -0.00007   0.00000  -0.00000
 126  O 2   f 2     -0.00043   0.00000  -0.00000   0.00000  -0.13269   0.06751
 127  O 2   f 3      0.00000   0.06383   0.00007  -0.00012  -0.00000   0.00000
 128  O 2   f 4     -0.00000  -0.00046  -0.28237  -0.00003  -0.00000  -0.00000
 129  O 2   f 5      0.06383   0.00000  -0.00000  -0.00000   0.00012  -0.00008
 130  O 2   f 6      0.00000   0.00043   0.00002  -0.13269  -0.00000   0.00000
 131  O 2   f 7      0.00000   0.00000   0.00000   0.00000   0.00007  -0.00003
 132  O 2   f 1     -0.00000   0.00000   0.00000  -0.00004  -0.00000   0.00000
 133  O 2   f 2      0.00004   0.00000  -0.00000  -0.00000   0.00400   0.06670
 134  O 2   f 3     -0.00000  -0.05153   0.00015  -0.00003   0.00000   0.00000
 135  O 2   f 4      0.00000  -0.00002  -0.02731  -0.00000   0.00000  -0.00000
 136  O 2   f 5     -0.05153  -0.00000  -0.00000   0.00000   0.00003   0.00002
 137  O 2   f 6      0.00000  -0.00004   0.00000   0.00400   0.00000   0.00000
 138  O 2   f 7      0.00000   0.00000  -0.00000  -0.00000   0.00004   0.00002
                       103       104       105       106
 eigenvalues:          6.604     6.944     6.944     7.077
   1  C     s        0.00000   0.00000  -0.00025  -0.09134
   2  C     s        0.00000   0.00000  -0.00034  -0.04402
   3  C     s       -0.00000  -0.00000   0.00002   0.03323
   4  C     s       -0.00000  -0.00000   0.00004   0.03535
   5  C     s        0.00000  -0.00000   0.00005   0.01200
   6  C     px      -0.00000   0.01533   0.00000  -0.00000
   7  C     py      -0.00001  -0.00000   0.01533  -0.00004
   8  C     pz       0.00002   0.00000  -0.00000  -0.00001
   9  C     px       0.00000   0.00737   0.00000   0.00000
  10  C     py       0.00005   0.00000   0.00737  -0.00015
  11  C     pz      -0.00000   0.00000  -0.00000   0.00000
  12  C     px      -0.00000  -0.07182  -0.00000  -0.00000
  13  C     py      -0.00006   0.00000  -0.07182   0.00023
  14  C     pz      -0.00000  -0.00000   0.00000   0.00000
  15  C     px       0.00000   0.07605   0.00000   0.00000
  16  C     py       0.00006  -0.00000   0.07605  -0.00021
  17  C     pz       0.00000   0.00000  -0.00000  -0.00000
  18  C     d 1      0.00000  -0.00007   0.00000  -0.00000
  19  C     d 2      0.00000  -0.00000  -0.00000  -0.00000
  20  C     d 3     -0.00000  -0.00000   0.00124   0.65988
  21  C     d 4     -0.00000  -0.00000  -0.00000   0.00000
  22  C     d 5     -0.11428   0.00000   0.00007   0.00000
  23  C     d 1     -0.00000   0.00016  -0.00000  -0.00000
  24  C     d 2      0.00000   0.00000   0.00000   0.00000
  25  C     d 3      0.00000   0.00000  -0.00077  -0.24923
  26  C     d 4      0.00000   0.00000   0.00000  -0.00000
  27  C     d 5      0.30075  -0.00000  -0.00016   0.00000
  28  C     d 1     -0.00000  -0.00002  -0.00000  -0.00000
  29  C     d 2     -0.00000   0.00000   0.00000   0.00000
  30  C     d 3     -0.00000   0.00000   0.00002  -0.01467
  31  C     d 4      0.00000   0.00000   0.00000  -0.00000
  32  C     d 5      0.02033  -0.00000   0.00002   0.00000
  33  C     f 1      0.00009   0.00000  -0.00000   0.00000
  34  C     f 2      0.00000   0.00000  -0.00000  -0.00000
  35  C     f 3     -0.00009   0.00000  -0.53120   0.00114
  36  C     f 4      0.00002   0.00000  -0.00000  -0.00001
  37  C     f 5     -0.00000  -0.53120  -0.00000  -0.00000
  38  C     f 6     -0.00009  -0.00000  -0.00000   0.00000
  39  C     f 7      0.00000  -0.00000  -0.00000   0.00000
  40  C     f 1      0.00010   0.00000  -0.00000   0.00000
  41  C     f 2      0.00000   0.00000  -0.00000  -0.00000
  42  C     f 3      0.00008   0.00000  -0.01493  -0.00014
  43  C     f 4     -0.00000   0.00000  -0.00000   0.00000
  44  C     f 5      0.00000  -0.01493  -0.00000   0.00000
  45  C     f 6     -0.00005  -0.00000  -0.00000   0.00000
  46  C     f 7      0.00000  -0.00000  -0.00000  -0.00000
  47  O 1   s        0.00000   0.00000   0.00018   0.02600
  48  O 1   s        0.00001   0.00000   0.00039   0.00599
  49  O 1   s       -0.00000  -0.00000  -0.00003  -0.01472
  50  O 1   s       -0.00000  -0.00000  -0.00017  -0.02975
  51  O 1   s        0.00000   0.00000   0.00002   0.00837
  52  O 1   px      -0.00000   0.04549  -0.00000   0.00000
  53  O 1   py       0.00001  -0.00000   0.04549  -0.00013
  54  O 1   pz       0.00001   0.00000   0.00015  -0.03843
  55  O 1   px       0.00000   0.13644   0.00000  -0.00000
  56  O 1   py       0.00006   0.00000   0.13644  -0.00017
  57  O 1   pz       0.00001   0.00000  -0.00013  -0.12017
  58  O 1   px      -0.00000  -0.02110  -0.00000   0.00000
  59  O 1   py      -0.00002  -0.00000  -0.02110   0.00008
  60  O 1   pz      -0.00000  -0.00000   0.00007   0.07072
  61  O 1   px       0.00000  -0.02730   0.00000  -0.00000
  62  O 1   py      -0.00001   0.00000  -0.02730   0.00005
  63  O 1   pz      -0.00000  -0.00000   0.00004  -0.03565
  64  O 1   d 1     -0.00000  -0.00003   0.00000   0.00000
  65  O 1   d 2     -0.00005   0.00000   0.84820  -0.00109
  66  O 1   d 3      0.00004   0.00000  -0.00096  -0.82548
  67  O 1   d 4      0.00000   0.84819   0.00000  -0.00000
  68  O 1   d 5      0.85554   0.00000   0.00003  -0.00000
  69  O 1   d 1      0.00000  -0.00015  -0.00000  -0.00000
  70  O 1   d 2      0.00011  -0.00000  -0.33000   0.00047
  71  O 1   d 3     -0.00001  -0.00000   0.00052   0.35979
  72  O 1   d 4     -0.00000  -0.33000  -0.00000   0.00000
  73  O 1   d 5     -0.53842  -0.00000   0.00015   0.00000
  74  O 1   d 1     -0.00000   0.00001   0.00000   0.00000
  75  O 1   d 2      0.00002   0.00000   0.04283  -0.00012
  76  O 1   d 3      0.00000   0.00000   0.00005  -0.02908
  77  O 1   d 4      0.00000   0.04283   0.00000  -0.00000
  78  O 1   d 5      0.04300   0.00000  -0.00001   0.00000
  79  O 1   f 1      0.00003  -0.00000   0.00000  -0.00000
  80  O 1   f 2      0.00000  -0.00026  -0.00000  -0.00000
  81  O 1   f 3      0.00008   0.00000   0.11021   0.00003
  82  O 1   f 4      0.00001   0.00000   0.00005  -0.09924
  83  O 1   f 5      0.00000   0.11021   0.00000  -0.00000
  84  O 1   f 6     -0.06761  -0.00000   0.00026  -0.00000
  85  O 1   f 7      0.00000   0.00000   0.00000  -0.00000
  86  O 1   f 1     -0.00002   0.00000   0.00000  -0.00000
  87  O 1   f 2      0.00000   0.00001  -0.00000  -0.00000
  88  O 1   f 3     -0.00002  -0.00000  -0.05400   0.00009
  89  O 1   f 4      0.00000   0.00000   0.00017   0.08021
  90  O 1   f 5     -0.00000  -0.05400  -0.00000   0.00000
  91  O 1   f 6     -0.06670  -0.00000  -0.00001  -0.00000
  92  O 1   f 7     -0.00000   0.00000  -0.00000  -0.00000
  93  O 2   s       -0.00000  -0.00000   0.00018   0.02600
  94  O 2   s       -0.00001  -0.00000   0.00039   0.00599
  95  O 2   s        0.00000   0.00000  -0.00003  -0.01472
  96  O 2   s        0.00000   0.00000  -0.00017  -0.02975
  97  O 2   s       -0.00000  -0.00000   0.00002   0.00838
  98  O 2   px       0.00000   0.04549   0.00000  -0.00000
  99  O 2   py       0.00001   0.00000   0.04549  -0.00013
 100  O 2   pz       0.00001   0.00000  -0.00015   0.03842
 101  O 2   px      -0.00000   0.13644  -0.00000   0.00000
 102  O 2   py       0.00006  -0.00000   0.13643  -0.00017
 103  O 2   pz       0.00001   0.00000   0.00013   0.12017
 104  O 2   px       0.00000  -0.02110   0.00000  -0.00000
 105  O 2   py      -0.00002   0.00000  -0.02110   0.00008
 106  O 2   pz       0.00000  -0.00000  -0.00007  -0.07072
 107  O 2   px      -0.00000  -0.02730  -0.00000   0.00000
 108  O 2   py      -0.00001  -0.00000  -0.02730   0.00005
 109  O 2   pz      -0.00000  -0.00000  -0.00004   0.03565
 110  O 2   d 1     -0.00000  -0.00003  -0.00000  -0.00000
 111  O 2   d 2      0.00005   0.00000  -0.84816   0.00109
 112  O 2   d 3     -0.00003  -0.00000  -0.00096  -0.82546
 113  O 2   d 4      0.00000  -0.84817   0.00000  -0.00000
 114  O 2   d 5      0.85485  -0.00000   0.00003   0.00001
 115  O 2   d 1      0.00000  -0.00015   0.00000   0.00000
 116  O 2   d 2     -0.00011  -0.00000   0.32999  -0.00047
 117  O 2   d 3      0.00001   0.00000   0.00052   0.35978
 118  O 2   d 4     -0.00000   0.32999  -0.00000   0.00000
 119  O 2   d 5     -0.53798   0.00000   0.00015  -0.00001
 120  O 2   d 1     -0.00000   0.00001  -0.00000  -0.00000
 121  O 2   d 2     -0.00002   0.00000  -0.04283   0.00012
 122  O 2   d 3     -0.00000  -0.00000   0.00005  -0.02908
 123  O 2   d 4      0.00000  -0.04283   0.00000  -0.00000
 124  O 2   d 5      0.04299  -0.00000  -0.00001   0.00000
 125  O 2   f 1      0.00003   0.00000  -0.00000   0.00000
 126  O 2   f 2     -0.00000   0.00026  -0.00000  -0.00000
 127  O 2   f 3      0.00008  -0.00000   0.11021   0.00003
 128  O 2   f 4      0.00001   0.00000  -0.00005   0.09923
 129  O 2   f 5      0.00000   0.11021  -0.00000   0.00000
 130  O 2   f 6      0.06751  -0.00000  -0.00026   0.00000
 131  O 2   f 7     -0.00000  -0.00000  -0.00000   0.00000
 132  O 2   f 1     -0.00002  -0.00000   0.00000  -0.00000
 133  O 2   f 2     -0.00000  -0.00001  -0.00000  -0.00000
 134  O 2   f 3     -0.00002   0.00000  -0.05400   0.00009
 135  O 2   f 4      0.00000   0.00000  -0.00017  -0.08021
 136  O 2   f 5      0.00000  -0.05400   0.00000  -0.00000
 137  O 2   f 6      0.06670  -0.00000   0.00001   0.00000
 138  O 2   f 7      0.00000   0.00000   0.00000   0.00000
 
          Ground-State Mulliken Net Atomic Charges

     Atom                 Charge (a.u.)
  ----------------------------------------
      1 C                     0.066588
      2 O                    -0.033299
      3 O                    -0.033289
  ----------------------------------------
  Sum of atomic charges =    -0.000000

 -----------------------------------------------------------------
                    Cartesian Multipole Moments
 -----------------------------------------------------------------
    Charge (ESU x 10^10)
                -0.0000
    Dipole Moment (Debye)
         X      -0.0000      Y      -0.0015      Z       0.0000
       Tot       0.0015
    Quadrupole Moments (Debye-Ang)
        XX     -15.2259     XY      -0.0000     YY     -15.2262
        XZ      -0.0000     YZ       0.0000     ZZ     -20.1080
    Octopole Moments (Debye-Ang^2)
       XXX      -0.0000    XXY       0.0002    XYY      -0.0000
       YYY       0.0005    XXZ       0.0000    XYZ       0.0000
       YYZ       0.0001    XZZ      -0.0000    YZZ       0.0020
       ZZZ       0.0001
    Hexadecapole Moments (Debye-Ang^3)
      XXXX     -14.1974   XXXY      -0.0000   XXYY      -4.7326
      XYYY      -0.0000   YYYY     -14.1980   XXXZ      -0.0000
      XXYZ       0.0000   XYYZ      -0.0000   YYYZ       0.0000
      XXZZ     -20.4069   XYZZ      -0.0000   YYZZ     -20.4070
      XZZZ      -0.0000   YZZZ       0.0000   ZZZZ    -107.2978
 -----------------------------------------------------------------
Archival summary:
1\1\copper\SP\HF\BasisUnspecified\21\eric\ThuJul2713:19:232017ThuJul2713:19:232017\0\\#,HF,BasisUnspecified,\\0,1\C\O,1,1.16916\O,1,1.16916,2,179.958\\HF=-187.373406\\@

 Total job time:  6.44s(wall), 23.74s(cpu) 
 Thu Jul 27 13:19:23 2017

        *************************************************************
        *                                                           *
        *  Thank you very much for using Q-Chem.  Have a nice day.  *
        *                                                           *
        *************************************************************


