
Running Job 1 of 1 dvb_sp.in
qchem dvb_sp.in_25692.0 /home/eric/scratch/qchem/qchem25692/ 1
                  Welcome to Q-Chem
     A Quantum Leap Into The Future Of Chemistry


 Q-Chem 4.2, Q-Chem, Inc., Pleasanton, CA (2014).

 Y. Shao,  Z. Gan,  E. Epifanovsky,  A. T. B. Gilbert,  M. Wormit,  
 J. Kussmann,  A. W. Lange,  A. Behn,  J. Deng,  X. Feng,  D. Ghosh,  
 M. Goldey,  P. R. Horn,  L. D. Jacobson,  I. Kaliman,  R. Z. Khaliullin,  
 T. Kus,  A. Landau,  J. Liu,  E. I. Proynov,  Y. M. Rhee,  R. M. Richard,  
 M. A. Rohrdanz,  R. P. Steele,  E. J. Sundstrom,  H. L. Woodcock III,  
 P. M. Zimmerman,  D. Zuev,  B. Albrecht,  E. Alguire,  B. Austin,  
 G. J. O. Beran,  Y. A. Bernard,  E. Berquist,  K. Brandhorst,  
 K. B. Bravaya,  S. T. Brown,  D. Casanova,  C.-M. Chang,  Y. Chen,  
 S. H. Chien,  K. D. Closser,  D. L. Crittenden,  M. Diedenhofen,  
 R. A. DiStasio Jr.,  H. Do,  A. D. Dutoi,  R. G. Edgar,  S. Fatehi,  
 L. Fusti-Molnar,  A. Ghysels,  A. Golubeva-Zadorozhnaya,  J. Gomes,  
 M. W. D. Hanson-Heine,  P. H. P. Harbach,  A. W. Hauser,  E. G. Hohenstein,  
 Z. C. Holden,  T.-C. Jagau,  H. Ji,  B. Kaduk,  K. Khistyaev,  Jaehoon Kim,  
 Jihan Kim,  R. A. King,  P. Klunzinger,  D. Kosenkov,  T. Kowalczyk,  
 C. M. Krauter,  K. U. Lao,  A. Laurent,  K. V. Lawler,  S. V. Levchenko,  
 C. Y. Lin,  F. Liu,  E. Livshits,  R. C. Lochan,  A. Luenser,  P. Manohar,  
 S. F. Manzer,  S.-P. Mao,  N. Mardirossian,  A. V. Marenich,  S. A. Maurer,  
 N. J. Mayhall,  C. M. Oana,  R. Olivares-Amaya,  D. P. O'Neill,  
 J. A. Parkhill,  T. M. Perrine,  R. Peverati,  P. A. Pieniazek,  A. Prociuk,  
 D. R. Rehn,  E. Rosta,  N. J. Russ,  N. Sergueev,  S. M. Sharada,  
 S. Sharma,  D. W. Small,  A. Sodt,  T. Stein,  D. Stuck,  Y.-C. Su,  
 A. J. W. Thom,  T. Tsuchimochi,  L. Vogt,  O. Vydrov,  T. Wang,  
 M. A. Watson,  J. Wenzel,  A. White,  C. F. Williams,  V. Vanovschi,  
 S. Yeganeh,  S. R. Yost,  Z.-Q. You,  I. Y. Zhang,  X. Zhang,  Y. Zhao,  
 B. R. Brooks,  G. K. L. Chan,  D. M. Chipman,  C. J. Cramer,  
 W. A. Goddard III,  M. S. Gordon,  W. J. Hehre,  A. Klamt,  
 H. F. Schaefer III,  M. W. Schmidt,  C. D. Sherrill,  D. G. Truhlar,  
 A. Warshel,  X. Xu,  A. Aspuru-Guzik,  R. Baer,  A. T. Bell,  N. A. Besley,  
 J.-D. Chai,  A. Dreuw,  B. D. Dunietz,  T. R. Furlani,  S. R. Gwaltney,  
 C.-P. Hsu,  Y. Jung,  J. Kong,  D. S. Lambrecht,  W. Liang,  C. Ochsenfeld,  
 V. A. Rassolov,  L. V. Slipchenko,  J. E. Subotnik,  T. Van Voorhis,  
 J. M. Herbert,  A. I. Krylov,  P. M. W. Gill,  M. Head-Gordon

 Contributors to earlier versions of Q-Chem not listed above: 
 R. D. Adamson,  J. Baker,  E. F. C. Byrd,  A. K. Chakraborty,  C.-L. Cheng,  
 H. Dachsel,  R. J. Doerksen,  G. Hawkins,  A. Heyden,  S. Hirata,  
 G. Kedziora,  F. J. Keil,  C. Kelley,  P. P. Korambath,  W. Kurlancheek,  
 A. M. Lee,  M. S. Lee,  D. Liotard,  I. Lotan,  P. E. Maslen,  N. Nair,  
 D. Neuhauser,  R. Olson,  B. Peters,  J. Ritchie,  N. E. Schultz,  
 N. Shenvi,  A. C. Simmonett,  K. S. Thanthiriwatte,  Q. Wu,  W. Zhang

 Q-Chem 4.2.0 for Intel X86 Linux

 Parts of Q-Chem use Armadillo 4.100.2 (Dirt Cruiser).
 http://arma.sourceforge.net/

 Q-Chem begins on Thu Sep  4 10:47:27 2014  

Host: 
0

     Scratch files written to /home/eric/scratch/qchem/qchem25692//
 May1314 814_zgan -1
Processing $rem in /home/eric/opt/apps/qchem/website/4.2.0-omp/config/preferences.
 MEM_TOTAL  2000 
Finally everything over in PARseQInput

--------------------------------------------------------------
User input:
--------------------------------------------------------------
$comment
Divinylbenzene, single point, RB3LYP/STO-3G
$end

$rem
method = b3lyp
basis = sto-3g
scf_final_print = 2
$end

$molecule
0 1
C                  0.27867948   -1.36683162    0.00000000
C                  1.32303041   -0.44173575    0.00000000
C                  1.04434506    0.92484978    0.00000000
C                 -0.27867948    1.36683162    0.00000000
C                 -1.32303041    0.44173575    0.00000000
C                 -1.04434506   -0.92484978    0.00000000
H                  2.36595443   -0.79037726    0.00000000
H                  1.86746094    1.65407997    0.00000000
H                 -2.36595443    0.79037726    0.00000000
H                 -1.86746094   -1.65407997    0.00000000
C                 -0.58659169    2.87589931    0.00000000
C                  0.36350188    3.80076420    0.00000000
H                 -1.65647768    3.12394312    0.00000000
H                  0.14429560    4.87693235    0.00000000
H                  1.43338788    3.55272039    0.00000000
C                  0.58659169   -2.87589931    0.00000000
C                 -0.36350188   -3.80076420    0.00000000
H                  1.65647768   -3.12394312    0.00000000
H                 -0.14429560   -4.87693235    0.00000000
H                 -1.43338788   -3.55272039    0.00000000
$end
--------------------------------------------------------------
 ----------------------------------------------------------------
             Standard Nuclear Orientation (Angstroms)
    I     Atom           X                Y                Z
 ----------------------------------------------------------------
    1      C       1.3668132833     0.2787694006     0.0000000000
    2      C       0.4416487095     1.3230594681     0.0000000000
    3      C      -0.9249184834     1.0442842137     0.0000000000
    4      C      -1.3668132833    -0.2787694006     0.0000000000
    5      C      -0.4416487095    -1.3230594681     0.0000000000
    6      C       0.9249184834    -1.0442842137     0.0000000000
    7      H       0.7902216068     2.3660064222     0.0000000000
    8      H      -1.6542028230     1.8673521173     0.0000000000
    9      H      -0.7902216068    -2.3660064222     0.0000000000
   10      H       1.6542028230    -1.8673521173     0.0000000000
   11      C      -2.8758607131    -0.5867808885     0.0000000000
   12      C      -3.8007881058     0.3632518344     0.0000000000
   13      H      -3.1238341368    -1.6566831945     0.0000000000
   14      H      -4.8769418324     0.1439747559     0.0000000000
   15      H      -3.5528146821     1.4331541504     0.0000000000
   16      C       2.8758607131     0.5867808885     0.0000000000
   17      C       3.8007881058    -0.3632518344     0.0000000000
   18      H       3.1238341368     1.6566831945     0.0000000000
   19      H       4.8769418324    -0.1439747559     0.0000000000
   20      H       3.5528146821    -1.4331541504     0.0000000000
 ----------------------------------------------------------------
 Molecular Point Group                 C2h   NOp =  4
 Largest Abelian Subgroup              C2h   NOp =  4
 Nuclear Repulsion Energy =   450.0061381957 hartrees
 There are       35 alpha and       35 beta electrons
 Requested basis set is STO-3G
 There are 30 shells and 60 basis functions

Total QAlloc Memory Limit   2000 MB
Mega-Array Size        61 MB
MEM_STATIC part        62 MB
 A cutoff of  1.0D-08 yielded    367 shell pairs
 There are      1648 function pairs
 Smallest overlap matrix eigenvalue = 1.71E-01

  Scale SEOQF with 1.000000e-01/1.000000e-01/1.000000e+00

 Standard Electronic Orientation quadrupole field applied
 Nucleus-field energy     =     0.0000000194 hartrees
 Guess from superposition of atomic densities
 Warning:  Energy on first SCF cycle will be non-variational
 A restricted hybrid HF-DFT SCF calculation will be
 performed using Pulay DIIS extrapolation
 Exchange:     0.2000 Hartree-Fock + 0.0800 Slater + 0.7200 Becke88
 Correlation:  0.8100 LYP + 0.1900 VWN1RPA
 Using SG-1 standard quadrature grid
 SCF converges when DIIS error is below 1.0E-05
 using 2 threads for integral computing 
 
 -------------------------------------------------------
 OpenMP Integral Computing Module                       
 Release: version 1.0, May 2013, Q-Chem Inc. Pittsburgh 
 -------------------------------------------------------
 Integral Job Info:
 Integral job number is                      22
 Integral operator is                         1
 short-range coefficients               -999999
 long-range coefficients                -999999
 Omega coefficients                           0
 if combine SR and LR in K              -999999
 Integral screening is                        1
 Integral computing path is                   2
 max size of driver memory is            800000
 size of driver memory is                 45585
 size of scratch memory is               800000
 max col of scratch BK array                289
 max len of scratch array in speh3           22
 max len of scratch index in speh4            8
 max int batch size is                       50
 min int batch size is                       15
 fixed nKL is                                44
 max L of basis functions is                  1
 order of int derivative is                   0
 number of shells is                         30
 number of basis is                          60
 number of cartesian basis is                60
 number of contracted shell pairs           367
 number of primitive shell pairs           2152
 maxK2 (contraction) of shell pair            9
 max number of K2 of shell pair               1
 max number of CS2 of shell pair             44
 max number of PS2 of shell pair            320
 mem total for path MDJ                   19002
 -------------------------------------------------------
         cpu   0.04 wall   0.03
 -------------------------------------------------------
 OpenMP BLAS3 based DFT computing Module                
 Release: version 1.0, May 2013, Q-Chem Inc. Pittsburgh 
 -------------------------------------------------------
in dftxc.C, eleTot sum is:70.000719, tauTot is:0.000000
 ---------------------------------------
  Cycle       Energy         DIIS Error
 ---------------------------------------
    1    -381.9238072118      1.39E-01
         cpu   0.05 wall   0.02
in dftxc.C, eleTot sum is:70.000596, tauTot is:0.000000
    2    -382.2937213502      3.10E-03
         cpu   0.04 wall   0.02
in dftxc.C, eleTot sum is:70.000599, tauTot is:0.000000
    3    -382.2939223516      3.37E-03
         cpu   0.04 wall   0.02
in dftxc.C, eleTot sum is:70.000598, tauTot is:0.000000
    4    -382.2996875535      1.12E-03
         cpu   0.04 wall   0.02
in dftxc.C, eleTot sum is:70.000598, tauTot is:0.000000
    5    -382.3003411364      3.23E-04
         cpu   0.04 wall   0.02
in dftxc.C, eleTot sum is:70.000598, tauTot is:0.000000
    6    -382.3003969683      3.18E-05
         cpu   0.04 wall   0.02
in dftxc.C, eleTot sum is:70.000598, tauTot is:0.000000
    7    -382.3003975802      4.08E-06 Convergence criterion met
 ---------------------------------------
 One-Electron    Energy = -1408.6695361299
 Total Coulomb   Energy =   634.2528708520
 Alpha Exchange  Energy =    -5.5348617958
 Beta  Exchange  Energy =    -5.5348617958
 DFT   Exchange  Energy =   -43.8410359591
 DFT Correlation Energy =    -2.9791109668
 Nuclear Repu.   Energy =   450.0061382151
 Nuclear Attr.   Energy = -1784.6993982259
 Kinetic         Energy =   376.0298620960
 SCF time:  CPU 2.07 s  wall 1.09 s
 Final Alpha MO Eigenvalues
            1           2           3           4           5           6
    1 -10.0179352 -10.0178700 -10.0075470 -10.0075457 -10.0066365 -10.0066030
            7           8           9          10          11          12
    1 -10.0055833 -10.0054739  -9.9919309  -9.9919308  -0.8179611  -0.7550401
           13          14          15          16          17          18
    1  -0.7206789  -0.7041262  -0.6701959  -0.5851003  -0.5605876  -0.5319083
           19          20          21          22          23          24
    1  -0.5121189  -0.4619202  -0.4385300  -0.4103908  -0.3995789  -0.3971045
           25          26          27          28          29          30
    1  -0.3755028  -0.3577682  -0.3489575  -0.3301505  -0.3052652  -0.2954407
           31          32          33          34          35          36
    1  -0.2808733  -0.2631444  -0.2160311  -0.1975111  -0.1600517   0.0495878
           37          38          39          40
    1   0.0907364   0.1164532   0.1814701   0.2803265
 Final Alpha MO Coefficients
            1           2           3           4           5           6
    1  -0.6989646   0.6989081  -0.0342555   0.0346791   0.0264547   0.0143678
    2  -0.0318980   0.0316733   0.0033765  -0.0033143  -0.0077754  -0.0033199
    3   0.0013836  -0.0010355   0.0040828  -0.0040470   0.0032884   0.0022055
    4   0.0002793  -0.0002067   0.0006651  -0.0006231  -0.0018225  -0.0046515
    5   0.0000000   0.0000000   0.0000000   0.0000000  -0.0000000  -0.0000000
    6   0.0198116  -0.0210820   0.0139783  -0.0200459   0.6664498   0.6563151
    7   0.0081614  -0.0072919   0.0008690  -0.0010261   0.0319429   0.0315425
    8   0.0026779  -0.0030756  -0.0000233  -0.0000495  -0.0018152  -0.0018667
    9  -0.0035615   0.0034040  -0.0002091   0.0002801  -0.0014439  -0.0011640
   10  -0.0000000   0.0000000   0.0000000   0.0000000   0.0000000  -0.0000000
   11  -0.0183652  -0.0194609  -0.0092817  -0.0095467  -0.2125360  -0.2429439
   12  -0.0081157  -0.0072103  -0.0006584  -0.0003785  -0.0160200  -0.0171169
   13   0.0010601   0.0015058  -0.0001071   0.0000552  -0.0045184  -0.0043384
   14   0.0043196   0.0043332   0.0001624   0.0002670  -0.0005106  -0.0004535
   15  -0.0000000  -0.0000000  -0.0000000  -0.0000000  -0.0000000  -0.0000000
   16   0.6989646   0.6989081   0.0342555   0.0346791  -0.0264547   0.0143678
   17   0.0318980   0.0316733  -0.0033765  -0.0033143   0.0077754  -0.0033199
   18   0.0013836   0.0010355   0.0040828   0.0040470   0.0032884  -0.0022055
   19   0.0002793   0.0002067   0.0006651   0.0006231  -0.0018225   0.0046515
   20  -0.0000000   0.0000000  -0.0000000   0.0000000  -0.0000000   0.0000000
   21  -0.0198116  -0.0210820  -0.0139783  -0.0200459  -0.6664498   0.6563151
   22  -0.0081614  -0.0072919  -0.0008690  -0.0010261  -0.0319429   0.0315425
   23   0.0026779   0.0030756  -0.0000233   0.0000495  -0.0018152   0.0018667
   24  -0.0035615  -0.0034040  -0.0002091  -0.0002801  -0.0014439   0.0011640
   25   0.0000000   0.0000000  -0.0000000   0.0000000   0.0000000   0.0000000
   26   0.0183652  -0.0194609   0.0092817  -0.0095467   0.2125360  -0.2429439
   27   0.0081157  -0.0072103   0.0006584  -0.0003785   0.0160200  -0.0171169
   28   0.0010601  -0.0015058  -0.0001071  -0.0000552  -0.0045184   0.0043384
   29   0.0043196  -0.0043332   0.0001624  -0.0002670  -0.0005106   0.0004535
   30  -0.0000000  -0.0000000  -0.0000000  -0.0000000   0.0000000  -0.0000000
   31  -0.0003506   0.0002162  -0.0001061   0.0001360  -0.0060396  -0.0060068
   32   0.0003528   0.0002151  -0.0000351  -0.0000646   0.0020970   0.0022786
   33   0.0003506   0.0002162   0.0001061   0.0001360   0.0060396  -0.0060068
   34  -0.0003528   0.0002151   0.0000351  -0.0000646  -0.0020970   0.0022786
   35  -0.0338546  -0.0345071   0.6995008   0.6993305  -0.0149520   0.0148478
   36  -0.0065910  -0.0066880   0.0306123   0.0305865  -0.0008055   0.0006445
   37  -0.0037919  -0.0038414  -0.0013478  -0.0013605   0.0000462  -0.0000897
   38  -0.0008854  -0.0008962   0.0010476   0.0010456  -0.0000511  -0.0000385
   39  -0.0000000   0.0000000  -0.0000000  -0.0000000  -0.0000000   0.0000000
   40  -0.0000359  -0.0000214  -0.0055686  -0.0055587   0.0007575  -0.0002186
   41   0.0005524   0.0005589  -0.0077897  -0.0077869   0.0002859  -0.0001819
   42   0.0003083   0.0003182  -0.0032254  -0.0032222   0.0001392  -0.0001021
   43  -0.0000596  -0.0000629   0.0033558   0.0033554  -0.0000636   0.0001004
   44   0.0000000   0.0000000   0.0000000  -0.0000000  -0.0000000  -0.0000000
   45   0.0003781   0.0003923  -0.0063659  -0.0063625   0.0001929  -0.0001617
   46  -0.0000309  -0.0000297   0.0002028   0.0002031   0.0000026   0.0000023
   47  -0.0001490  -0.0001364   0.0001708   0.0001729  -0.0001013  -0.0001114
   48   0.0338546  -0.0345071  -0.6995008   0.6993305   0.0149520   0.0148478
   49   0.0065910  -0.0066880  -0.0306123   0.0305865   0.0008055   0.0006445
   50  -0.0037919   0.0038414  -0.0013478   0.0013605   0.0000462   0.0000897
   51  -0.0008854   0.0008962   0.0010476  -0.0010456  -0.0000511   0.0000385
   52  -0.0000000  -0.0000000  -0.0000000  -0.0000000   0.0000000   0.0000000
   53   0.0000359  -0.0000214   0.0055686  -0.0055587  -0.0007575  -0.0002186
   54  -0.0005524   0.0005589   0.0077897  -0.0077869  -0.0002859  -0.0001819
   55   0.0003083  -0.0003182  -0.0032254   0.0032222   0.0001392   0.0001021
   56  -0.0000596   0.0000629   0.0033558  -0.0033554  -0.0000636  -0.0001004
   57   0.0000000  -0.0000000  -0.0000000  -0.0000000  -0.0000000  -0.0000000
   58  -0.0003781   0.0003923   0.0063659  -0.0063625  -0.0001929  -0.0001617
   59   0.0000309  -0.0000297  -0.0002028   0.0002031  -0.0000026   0.0000023
   60   0.0001490  -0.0001364  -0.0001708   0.0001729   0.0001013  -0.0001114
            7           8           9          10          11          12
    1  -0.0122976   0.0276162  -0.0003672   0.0003755  -0.1081675   0.1018977
    2   0.0040463  -0.0072668  -0.0001975   0.0001964   0.2710747  -0.2673016
    3  -0.0005129   0.0022616  -0.0000462   0.0000445  -0.0491937  -0.0261285
    4  -0.0049568   0.0028143  -0.0000456   0.0000438  -0.0106750   0.0039790
    5   0.0000000  -0.0000000  -0.0000000   0.0000000   0.0000000   0.0000000
    6   0.2140788   0.2429907  -0.0002357   0.0006447  -0.0990818   0.0361434
    7   0.0030894   0.0045419   0.0000016  -0.0001003   0.2469457  -0.0940435
    8   0.0040539   0.0039072   0.0001040  -0.0000202  -0.0138218  -0.0623413
    9   0.0005758   0.0006764  -0.0000108   0.0000343  -0.0589845   0.0274701
   10  -0.0000000  -0.0000000  -0.0000000  -0.0000000  -0.0000000   0.0000000
   11   0.6670634   0.6566158   0.0013820   0.0014516  -0.0996184  -0.0487805
   12   0.0278461   0.0269392  -0.0000143  -0.0000335   0.2481199   0.1268788
   13  -0.0004794  -0.0008632   0.0001663   0.0001507   0.0348706  -0.0457863
   14  -0.0011259  -0.0008543   0.0000016  -0.0000037  -0.0489358  -0.0485814
   15  -0.0000000   0.0000000   0.0000000   0.0000000  -0.0000000  -0.0000000
   16   0.0122976   0.0276162   0.0003672   0.0003755  -0.1081675  -0.1018977
   17  -0.0040463  -0.0072668   0.0001975   0.0001964   0.2710747   0.2673016
   18  -0.0005129  -0.0022616  -0.0000462  -0.0000445   0.0491937  -0.0261285
   19  -0.0049568  -0.0028143  -0.0000456  -0.0000438   0.0106750   0.0039790
   20   0.0000000   0.0000000  -0.0000000  -0.0000000  -0.0000000   0.0000000
   21  -0.2140788   0.2429907   0.0002357   0.0006447  -0.0990818  -0.0361434
   22  -0.0030894   0.0045419  -0.0000016  -0.0001003   0.2469457   0.0940435
   23   0.0040539  -0.0039072   0.0001040   0.0000202   0.0138218  -0.0623413
   24   0.0005758  -0.0006764  -0.0000108  -0.0000343   0.0589845   0.0274701
   25  -0.0000000  -0.0000000  -0.0000000  -0.0000000   0.0000000   0.0000000
   26  -0.6670634   0.6566158  -0.0013820   0.0014516  -0.0996184   0.0487805
   27  -0.0278461   0.0269392   0.0000143  -0.0000335   0.2481199  -0.1268788
   28  -0.0004794   0.0008632   0.0001663  -0.0001507  -0.0348706  -0.0457863
   29  -0.0011259   0.0008543   0.0000016   0.0000037   0.0489358  -0.0485814
   30   0.0000000  -0.0000000   0.0000000  -0.0000000   0.0000000  -0.0000000
   31  -0.0017466  -0.0021685   0.0000114  -0.0000187   0.0432524  -0.0242082
   32  -0.0059628  -0.0060033   0.0001635   0.0001634   0.0443977   0.0352712
   33   0.0017466  -0.0021685  -0.0000114  -0.0000187   0.0432524   0.0242082
   34   0.0059628  -0.0060033  -0.0001635   0.0001634   0.0443977  -0.0352712
   35   0.0040238   0.0146519   0.0064183   0.0064240  -0.0436228  -0.1112736
   36   0.0002631   0.0006650  -0.0072555  -0.0072554   0.1119714   0.2899539
   37   0.0000099  -0.0001701   0.0032026   0.0032020   0.0245890   0.0018162
   38  -0.0000074   0.0000449  -0.0033177  -0.0033172   0.0139295   0.0417430
   39   0.0000000   0.0000000   0.0000000   0.0000000  -0.0000000   0.0000000
   40  -0.0012484  -0.0016683   0.7004869   0.7004864  -0.0229793  -0.0843662
   41  -0.0001741  -0.0003662   0.0310942   0.0310938   0.0574246   0.2166866
   42  -0.0001096  -0.0002033   0.0010084   0.0010080   0.0189146   0.0506731
   43  -0.0000591   0.0000129  -0.0010211  -0.0010209  -0.0117056  -0.0404949
   44  -0.0000000  -0.0000000   0.0000000   0.0000000   0.0000000  -0.0000000
   45  -0.0000675  -0.0002286   0.0000863   0.0000859   0.0218880   0.0645236
   46  -0.0000223  -0.0000204  -0.0063417  -0.0063417   0.0093350   0.0445167
   47   0.0002347   0.0002352  -0.0063633  -0.0063634   0.0136284   0.0515556
   48  -0.0040238   0.0146519  -0.0064183   0.0064240  -0.0436228   0.1112736
   49  -0.0002631   0.0006650   0.0072555  -0.0072554   0.1119714  -0.2899539
   50   0.0000099   0.0001701   0.0032026  -0.0032020  -0.0245890   0.0018162
   51  -0.0000074  -0.0000449  -0.0033177   0.0033172  -0.0139295   0.0417430
   52   0.0000000   0.0000000  -0.0000000  -0.0000000  -0.0000000   0.0000000
   53   0.0012484  -0.0016683  -0.7004868   0.7004865  -0.0229793   0.0843662
   54   0.0001741  -0.0003662  -0.0310942   0.0310938   0.0574246  -0.2166866
   55  -0.0001096   0.0002033   0.0010084  -0.0010080  -0.0189146   0.0506731
   56  -0.0000591  -0.0000129  -0.0010211   0.0010209   0.0117056  -0.0404949
   57  -0.0000000   0.0000000   0.0000000  -0.0000000  -0.0000000   0.0000000
   58   0.0000675  -0.0002286  -0.0000863   0.0000859   0.0218880  -0.0645236
   59   0.0000223  -0.0000204   0.0063417  -0.0063417   0.0093350  -0.0445167
   60  -0.0002347   0.0002352   0.0063633  -0.0063634   0.0136284  -0.0515556
           13          14          15          16          17          18
    1  -0.0035998   0.0191016   0.1021431  -0.0622003   0.0645516  -0.0102740
    2   0.0130305  -0.0512559  -0.2781734   0.1816432  -0.1899556   0.0260823
    3   0.0909012   0.0303740   0.0597605   0.0476397  -0.0759177  -0.1188434
    4   0.0068146  -0.1301256   0.0247521   0.1519698   0.1677964  -0.0498137
    5  -0.0000000   0.0000000  -0.0000000  -0.0000000   0.0000000  -0.0000000
    6   0.0432813   0.1356976   0.0398980  -0.0219789  -0.1087368  -0.0460600
    7  -0.1119312  -0.3627597  -0.1092864   0.0637494   0.3181220   0.1395247
    8   0.0321608   0.0505985  -0.0966904   0.1700649   0.0039922  -0.0026447
    9   0.0183502   0.0058217   0.0385937  -0.0213710   0.0858286  -0.0066330
   10  -0.0000000   0.0000000   0.0000000  -0.0000000   0.0000000  -0.0000000
   11   0.0350755   0.1168327  -0.0777117   0.0904960   0.0430921   0.0247098
   12  -0.0904938  -0.3119229   0.2124458  -0.2578546  -0.1263234  -0.0744418
   13  -0.0487463  -0.0680792  -0.0432691   0.0066886   0.1683080   0.0744325
   14   0.0016618  -0.0366033  -0.0610979  -0.0574633   0.1139600   0.0320786
   15  -0.0000000   0.0000000  -0.0000000  -0.0000000   0.0000000   0.0000000
   16  -0.0035998  -0.0191016  -0.1021431  -0.0622003   0.0645516   0.0102740
   17   0.0130305   0.0512559   0.2781734   0.1816432  -0.1899556  -0.0260823
   18  -0.0909012   0.0303740   0.0597605  -0.0476397   0.0759177  -0.1188434
   19  -0.0068146  -0.1301256   0.0247521  -0.1519698  -0.1677964  -0.0498137
   20   0.0000000  -0.0000000   0.0000000  -0.0000000  -0.0000000   0.0000000
   21   0.0432813  -0.1356976  -0.0398980  -0.0219789  -0.1087368   0.0460600
   22  -0.1119312   0.3627597   0.1092864   0.0637494   0.3181220  -0.1395247
   23  -0.0321608   0.0505985  -0.0966904  -0.1700649  -0.0039922  -0.0026447
   24  -0.0183502   0.0058217   0.0385937   0.0213710  -0.0858286  -0.0066330
   25   0.0000000  -0.0000000   0.0000000   0.0000000  -0.0000000   0.0000000
   26   0.0350755  -0.1168327   0.0777117   0.0904960   0.0430921  -0.0247098
   27  -0.0904938   0.3119229  -0.2124458  -0.2578546  -0.1263234   0.0744418
   28   0.0487463  -0.0680792  -0.0432691  -0.0066886  -0.1683080   0.0744325
   29  -0.0016618  -0.0366033  -0.0610979   0.0574633  -0.1139600   0.0320786
   30   0.0000000  -0.0000000  -0.0000000   0.0000000  -0.0000000   0.0000000
   31  -0.0211685  -0.0977676  -0.0303080   0.0417148   0.1619339   0.0429046
   32  -0.0095688  -0.0856304   0.0536817  -0.1237894  -0.0581269  -0.0557867
   33  -0.0211685   0.0977676   0.0303080   0.0417148   0.1619339  -0.0429046
   34  -0.0095688   0.0856304  -0.0536817  -0.1237894  -0.0581269   0.0557867
   35  -0.1203203  -0.0029857   0.0557426  -0.0546795   0.0147694  -0.1000437
   36   0.3162473   0.0095335  -0.1466932   0.1658786  -0.0471086   0.3068049
   37  -0.0589172   0.0179210   0.1207595   0.0992989  -0.0938735   0.0319637
   38   0.0548186  -0.0216208  -0.0438769  -0.0895347  -0.0237093  -0.1232675
   39   0.0000000  -0.0000000  -0.0000000   0.0000000   0.0000000   0.0000000
   40  -0.1208026   0.0125696   0.1077187   0.0700495  -0.0514772   0.0804880
   41   0.3159243  -0.0325168  -0.2906315  -0.2019632   0.1533108  -0.2478792
   42   0.0537055  -0.0058300  -0.0163686   0.0301706  -0.0587755   0.0838662
   43  -0.0540695  -0.0030465   0.0388131  -0.0471978  -0.0040784  -0.1353180
   44  -0.0000000  -0.0000000   0.0000000   0.0000000   0.0000000  -0.0000000
   45   0.0753954   0.0113549  -0.0391153   0.0916398   0.0129040   0.1795746
   46   0.0746198  -0.0073975  -0.0856409  -0.0809763   0.0853815  -0.1251925
   47   0.0757785  -0.0148043  -0.0723352  -0.0996064   0.0389098  -0.1655081
   48  -0.1203203   0.0029857  -0.0557426  -0.0546795   0.0147694   0.1000437
   49   0.3162473  -0.0095335   0.1466932   0.1658786  -0.0471086  -0.3068049
   50   0.0589172   0.0179210   0.1207595  -0.0992989   0.0938735   0.0319637
   51  -0.0548186  -0.0216208  -0.0438769   0.0895347   0.0237093  -0.1232675
   52  -0.0000000   0.0000000  -0.0000000  -0.0000000  -0.0000000  -0.0000000
   53  -0.1208026  -0.0125696  -0.1077187   0.0700495  -0.0514772  -0.0804880
   54   0.3159243   0.0325168   0.2906315  -0.2019632   0.1533108   0.2478792
   55  -0.0537055  -0.0058300  -0.0163686  -0.0301706   0.0587755   0.0838662
   56   0.0540695  -0.0030465   0.0388131   0.0471978   0.0040784  -0.1353180
   57  -0.0000000   0.0000000   0.0000000  -0.0000000  -0.0000000  -0.0000000
   58   0.0753954  -0.0113549   0.0391153   0.0916398   0.0129040  -0.1795746
   59   0.0746198   0.0073975   0.0856409  -0.0809763   0.0853815   0.1251925
   60   0.0757785   0.0148043   0.0723352  -0.0996064   0.0389098   0.1655081
           19          20          21          22          23          24
    1  -0.0513088  -0.0366660   0.0111731   0.0748114   0.0063891   0.0189279
    2   0.1482518   0.1208467  -0.0406964  -0.2518559  -0.0255194  -0.0621610
    3  -0.1436266   0.1257523  -0.1308324   0.0685619  -0.1033995  -0.0117778
    4   0.0173388   0.0636122   0.1452799  -0.0000544  -0.2471946  -0.0110905
    5  -0.0000000   0.0000000   0.0000000   0.0000000   0.0000000   0.0000000
    6   0.0093403  -0.0133826  -0.0138386  -0.0442403  -0.0147772  -0.0253717
    7  -0.0349402   0.0525102   0.0456765   0.1543343   0.0521517   0.0847442
    8   0.0902533   0.1560240   0.2013292   0.0020334  -0.0925385  -0.0647185
    9  -0.1836801   0.1308130  -0.0079226   0.2221444   0.1487619  -0.0006835
   10  -0.0000000   0.0000000   0.0000000   0.0000000   0.0000000   0.0000000
   11   0.0528463   0.0226013   0.0353006   0.0409267   0.0356131   0.0199769
   12  -0.1683147  -0.0630054  -0.1150804  -0.1438757  -0.1162468  -0.0730939
   13   0.0459325  -0.1502010  -0.1299989   0.1388148   0.0534208   0.1211383
   14  -0.1956785   0.0699166  -0.0995911  -0.1968171   0.2174863  -0.0281252
   15  -0.0000000   0.0000000   0.0000000   0.0000000   0.0000000  -0.0000000
   16  -0.0513088  -0.0366660  -0.0111731  -0.0748114  -0.0063891   0.0189279
   17   0.1482518   0.1208467   0.0406964   0.2518559   0.0255194  -0.0621610
   18   0.1436266  -0.1257523  -0.1308324   0.0685619  -0.1033995   0.0117778
   19  -0.0173388  -0.0636122   0.1452799  -0.0000544  -0.2471946   0.0110905
   20   0.0000000  -0.0000000   0.0000000   0.0000000  -0.0000000  -0.0000000
   21   0.0093403  -0.0133826   0.0138386   0.0442403   0.0147772  -0.0253717
   22  -0.0349402   0.0525102  -0.0456765  -0.1543343  -0.0521517   0.0847442
   23  -0.0902533  -0.1560240   0.2013292   0.0020334  -0.0925385   0.0647185
   24   0.1836801  -0.1308130  -0.0079226   0.2221444   0.1487619   0.0006835
   25   0.0000000  -0.0000000   0.0000000   0.0000000  -0.0000000   0.0000000
   26   0.0528463   0.0226013  -0.0353006  -0.0409267  -0.0356131   0.0199769
   27  -0.1683147  -0.0630054   0.1150804   0.1438757   0.1162468  -0.0730939
   28  -0.0459325   0.1502010  -0.1299989   0.1388148   0.0534208  -0.1211383
   29   0.1956785  -0.0699166  -0.0995911  -0.1968171   0.2174863   0.0281252
   30  -0.0000000  -0.0000000   0.0000000   0.0000000   0.0000000   0.0000000
   31  -0.1029381   0.1319794   0.0679161   0.2422535   0.1165420   0.0164502
   32  -0.1651124   0.0911801  -0.0319235  -0.2653105   0.0745848  -0.1063344
   33  -0.1029381   0.1319794  -0.0679161  -0.2422535  -0.1165420   0.0164502
   34  -0.1651124   0.0911801   0.0319235   0.2653105  -0.0745848  -0.1063344
   35   0.0592132   0.0425044  -0.0190221   0.0112104  -0.0024664  -0.0233290
   36  -0.1810211  -0.1324800   0.0559057  -0.0317698   0.0185015   0.0611711
   37  -0.0080521   0.1827997   0.0751750   0.0470615   0.1949430  -0.0770883
   38   0.0683216   0.1050465   0.2175310   0.0164561  -0.0348815   0.2820043
   39   0.0000000  -0.0000000  -0.0000000   0.0000000  -0.0000000  -0.0000000
   40  -0.0550274  -0.0143371   0.0122606  -0.0131247   0.0007455  -0.0073133
   41   0.1731524   0.0546237  -0.0486697   0.0473510   0.0093173   0.0059362
   42  -0.0820014   0.0229818   0.2363995  -0.0995199   0.0452789   0.3275113
   43   0.0773873   0.2066894   0.0416125  -0.0108137   0.2394096  -0.0674773
   44  -0.0000000  -0.0000000  -0.0000000   0.0000000   0.0000000  -0.0000000
   45  -0.1142577  -0.1483489  -0.1444793  -0.0525387  -0.0025986  -0.1758750
   46   0.1057705  -0.0201658  -0.1926980   0.0994953  -0.0726218  -0.2443641
   47   0.0892990   0.1740266   0.0465919  -0.0377758   0.2035738  -0.0054843
   48   0.0592132   0.0425044   0.0190221  -0.0112104   0.0024664  -0.0233290
   49  -0.1810211  -0.1324800  -0.0559057   0.0317698  -0.0185015   0.0611711
   50   0.0080521  -0.1827997   0.0751750   0.0470615   0.1949430   0.0770883
   51  -0.0683216  -0.1050465   0.2175310   0.0164561  -0.0348815  -0.2820043
   52  -0.0000000   0.0000000   0.0000000   0.0000000   0.0000000   0.0000000
   53  -0.0550274  -0.0143371  -0.0122606   0.0131247  -0.0007455  -0.0073133
   54   0.1731524   0.0546237   0.0486697  -0.0473510  -0.0093173   0.0059362
   55   0.0820014  -0.0229818   0.2363995  -0.0995199   0.0452789  -0.3275113
   56  -0.0773873  -0.2066894   0.0416125  -0.0108137   0.2394096   0.0674773
   57  -0.0000000  -0.0000000   0.0000000   0.0000000   0.0000000   0.0000000
   58  -0.1142577  -0.1483489   0.1444793   0.0525387   0.0025986  -0.1758750
   59   0.1057705  -0.0201658   0.1926980  -0.0994953   0.0726218  -0.2443641
   60   0.0892990   0.1740266  -0.0465919   0.0377758  -0.2035738  -0.0054843
           25          26          27          28          29          30
    1  -0.0017389  -0.0046181  -0.0269615  -0.0000000  -0.0119865  -0.0033491
    2   0.0089774   0.0178041   0.0952289   0.0000000   0.0556810   0.0081008
    3   0.1254324   0.1313365   0.0191091  -0.0000000   0.2775049  -0.1365244
    4  -0.0408824  -0.1659664  -0.0918766   0.0000000   0.0787873   0.2867303
    5  -0.0000000   0.0000000  -0.0000000   0.3360663   0.0000000   0.0000000
    6   0.0338410   0.0139749  -0.0007990   0.0000000   0.0109937  -0.0076998
    7  -0.1075639  -0.0502006   0.0122534  -0.0000000  -0.0362702   0.0188929
    8   0.1391565  -0.2382635   0.1233424   0.0000000  -0.0005148   0.1735972
    9   0.2870111   0.0432801   0.1396056  -0.0000000   0.0682519  -0.2426568
   10  -0.0000000   0.0000000   0.0000000   0.3013907   0.0000000  -0.0000000
   11   0.0076773  -0.0090274   0.0005653  -0.0000000  -0.0152119   0.0088767
   12  -0.0199581   0.0286962  -0.0000668   0.0000000   0.0505172  -0.0195762
   13  -0.2369777   0.2004274  -0.1452536  -0.0000000   0.0406078  -0.1244057
   14   0.1475430   0.0921305  -0.0652072   0.0000000  -0.1382878   0.2464693
   15  -0.0000000   0.0000000   0.0000000   0.3013352  -0.0000000  -0.0000000
   16   0.0017389   0.0046181  -0.0269615   0.0000000   0.0119865  -0.0033491
   17  -0.0089774  -0.0178041   0.0952289  -0.0000000  -0.0556810   0.0081008
   18   0.1254324   0.1313365  -0.0191091  -0.0000000   0.2775049   0.1365244
   19  -0.0408824  -0.1659664   0.0918766   0.0000000   0.0787873  -0.2867303
   20  -0.0000000   0.0000000   0.0000000   0.3360663  -0.0000000  -0.0000000
   21  -0.0338410  -0.0139749  -0.0007990  -0.0000000  -0.0109937  -0.0076998
   22   0.1075639   0.0502006   0.0122534   0.0000000   0.0362702   0.0188929
   23   0.1391565  -0.2382635  -0.1233424   0.0000000  -0.0005148  -0.1735972
   24   0.2870111   0.0432801  -0.1396056  -0.0000000   0.0682519   0.2426568
   25  -0.0000000   0.0000000   0.0000000   0.3013907  -0.0000000  -0.0000000
   26  -0.0076773   0.0090274   0.0005653   0.0000000   0.0152119   0.0088767
   27   0.0199581  -0.0286962  -0.0000668  -0.0000000  -0.0505172  -0.0195762
   28  -0.2369777   0.2004274   0.1452536  -0.0000000   0.0406078   0.1244057
   29   0.1475430   0.0921305   0.0652072  -0.0000000  -0.1382878  -0.2464693
   30  -0.0000000   0.0000000   0.0000000   0.3013352   0.0000000  -0.0000000
   31   0.2212691  -0.0468141   0.1531453  -0.0000000   0.0307294  -0.1918130
   32   0.2111413  -0.0450450  -0.0032500   0.0000000  -0.0620841   0.2843487
   33  -0.2212691   0.0468141   0.1531453  -0.0000000  -0.0307294  -0.1918130
   34  -0.2111413   0.0450450  -0.0032500  -0.0000000   0.0620841   0.2843487
   35  -0.0018603  -0.0010264   0.0187359  -0.0000000   0.0038653   0.0070641
   36  -0.0007000  -0.0162968  -0.0761603   0.0000000  -0.0178150  -0.0361031
   37  -0.1356712  -0.1505751  -0.0688549   0.0000000  -0.2107346  -0.1089062
   38   0.0040445   0.2401985   0.1757620  -0.0000000  -0.1703383   0.0589307
   39  -0.0000000   0.0000000   0.0000000   0.1567766  -0.0000000  -0.0000000
   40   0.0047618  -0.0215191  -0.0082297   0.0000000  -0.0027369  -0.0063519
   41  -0.0244694   0.0571012   0.0193236  -0.0000000   0.0066864   0.0155088
   42   0.0018876   0.2083062  -0.1139292  -0.0000000   0.1843640   0.0557209
   43  -0.1471005  -0.1621193  -0.2870782   0.0000000   0.1614349  -0.1173556
   44  -0.0000000   0.0000000   0.0000000   0.0865000  -0.0000000  -0.0000000
   45   0.0115973  -0.1842019  -0.1818592   0.0000000   0.2261679  -0.0691551
   46   0.0128651  -0.1251355   0.1740431   0.0000000  -0.2317633  -0.0250422
   47  -0.1035537  -0.0840874  -0.2747748   0.0000000   0.2213767  -0.0520483
   48   0.0018603   0.0010264   0.0187359  -0.0000000  -0.0038653   0.0070641
   49   0.0007000   0.0162968  -0.0761603  -0.0000000   0.0178150  -0.0361031
   50  -0.1356712  -0.1505751   0.0688549   0.0000000  -0.2107346   0.1089062
   51   0.0040445   0.2401985  -0.1757620  -0.0000000  -0.1703383  -0.0589307
   52  -0.0000000   0.0000000  -0.0000000   0.1567766   0.0000000   0.0000000
   53  -0.0047618   0.0215191  -0.0082297  -0.0000000   0.0027369  -0.0063519
   54   0.0244694  -0.0571012   0.0193236   0.0000000  -0.0066864   0.0155088
   55   0.0018876   0.2083062   0.1139292  -0.0000000   0.1843640  -0.0557209
   56  -0.1471005  -0.1621193   0.2870782   0.0000000   0.1614349   0.1173556
   57  -0.0000000   0.0000000  -0.0000000   0.0865000   0.0000000   0.0000000
   58  -0.0115973   0.1842019  -0.1818592  -0.0000000  -0.2261679  -0.0691551
   59  -0.0128651   0.1251355   0.1740431  -0.0000000   0.2317633  -0.0250422
   60   0.1035537   0.0840874  -0.2747748  -0.0000000  -0.2213767  -0.0520483
           31          32          33          34          35          36
    1   0.0090977   0.0000000   0.0000000  -0.0000000  -0.0000000  -0.0000000
    2  -0.0527269  -0.0000000  -0.0000000   0.0000000   0.0000000   0.0000000
    3  -0.2575322  -0.0000000  -0.0000000  -0.0000000  -0.0000000   0.0000000
    4  -0.1356728  -0.0000000  -0.0000000  -0.0000000  -0.0000000  -0.0000000
    5   0.0000000  -0.3435479  -0.0208193  -0.0175103  -0.3902898   0.4491965
    6   0.0053186   0.0000000   0.0000000   0.0000000   0.0000000  -0.0000000
    7  -0.0142429  -0.0000000  -0.0000000  -0.0000000  -0.0000000   0.0000000
    8   0.2231565   0.0000000   0.0000000   0.0000000  -0.0000000  -0.0000000
    9   0.0786840  -0.0000000   0.0000000   0.0000000   0.0000000   0.0000000
   10   0.0000000  -0.1313618  -0.1642500  -0.4693381  -0.2069403  -0.2284945
   11   0.0019193  -0.0000000  -0.0000000  -0.0000000  -0.0000000   0.0000000
   12  -0.0075727   0.0000000   0.0000000   0.0000000   0.0000000   0.0000000
   13  -0.2181494  -0.0000000   0.0000000  -0.0000000  -0.0000000   0.0000000
   14  -0.1642093  -0.0000000   0.0000000   0.0000000  -0.0000000  -0.0000000
   15  -0.0000000   0.1411523  -0.1575049  -0.4507992   0.2418231  -0.2872341
   16   0.0090977   0.0000000   0.0000000   0.0000000   0.0000000   0.0000000
   17  -0.0527269  -0.0000000   0.0000000  -0.0000000  -0.0000000  -0.0000000
   18   0.2575322   0.0000000  -0.0000000   0.0000000   0.0000000   0.0000000
   19   0.1356728  -0.0000000   0.0000000  -0.0000000  -0.0000000  -0.0000000
   20  -0.0000000   0.3435479  -0.0208193   0.0175103   0.3902898   0.4491965
   21   0.0053186  -0.0000000  -0.0000000  -0.0000000  -0.0000000  -0.0000000
   22  -0.0142429   0.0000000   0.0000000   0.0000000   0.0000000   0.0000000
   23  -0.2231565  -0.0000000   0.0000000  -0.0000000  -0.0000000  -0.0000000
   24  -0.0786840   0.0000000  -0.0000000   0.0000000  -0.0000000   0.0000000
   25  -0.0000000   0.1313618  -0.1642500   0.4693381   0.2069403  -0.2284945
   26   0.0019193   0.0000000  -0.0000000   0.0000000  -0.0000000   0.0000000
   27  -0.0075727  -0.0000000   0.0000000  -0.0000000   0.0000000  -0.0000000
   28   0.2181494   0.0000000  -0.0000000   0.0000000   0.0000000  -0.0000000
   29   0.1642093  -0.0000000   0.0000000  -0.0000000   0.0000000   0.0000000
   30   0.0000000  -0.1411523  -0.1575049   0.4507992  -0.2418231  -0.2872341
   31   0.1809868   0.0000000   0.0000000   0.0000000   0.0000000  -0.0000000
   32   0.0543677   0.0000000  -0.0000000   0.0000000   0.0000000  -0.0000000
   33   0.1809868   0.0000000   0.0000000   0.0000000   0.0000000   0.0000000
   34   0.0543677   0.0000000  -0.0000000   0.0000000   0.0000000   0.0000000
   35   0.0223151   0.0000000   0.0000000   0.0000000  -0.0000000  -0.0000000
   36  -0.0926333  -0.0000000  -0.0000000  -0.0000000  -0.0000000   0.0000000
   37  -0.2700151  -0.0000000   0.0000000  -0.0000000  -0.0000000  -0.0000000
   38  -0.1147400  -0.0000000  -0.0000000  -0.0000000  -0.0000000  -0.0000000
   39  -0.0000000   0.3718448   0.4184175  -0.0004444  -0.2311883   0.2733844
   40  -0.0036624  -0.0000000  -0.0000000  -0.0000000  -0.0000000  -0.0000000
   41   0.0063556   0.0000000   0.0000000  -0.0000000   0.0000000   0.0000000
   42   0.1288032   0.0000000   0.0000000   0.0000000  -0.0000000   0.0000000
   43   0.0365900   0.0000000  -0.0000000   0.0000000   0.0000000   0.0000000
   44  -0.0000000   0.2806696   0.4238461  -0.0133586  -0.3820382  -0.4419281
   45   0.1690166   0.0000000  -0.0000000   0.0000000   0.0000000   0.0000000
   46  -0.1558248  -0.0000000   0.0000000  -0.0000000  -0.0000000   0.0000000
   47   0.1150762   0.0000000   0.0000000   0.0000000   0.0000000  -0.0000000
   48   0.0223151   0.0000000  -0.0000000   0.0000000  -0.0000000   0.0000000
   49  -0.0926333  -0.0000000   0.0000000   0.0000000   0.0000000  -0.0000000
   50   0.2700151   0.0000000   0.0000000   0.0000000   0.0000000  -0.0000000
   51   0.1147400   0.0000000  -0.0000000  -0.0000000  -0.0000000   0.0000000
   52   0.0000000  -0.3718448   0.4184175   0.0004444   0.2311883   0.2733844
   53  -0.0036624  -0.0000000   0.0000000   0.0000000   0.0000000  -0.0000000
   54   0.0063556  -0.0000000  -0.0000000  -0.0000000  -0.0000000   0.0000000
   55  -0.1288032  -0.0000000   0.0000000   0.0000000   0.0000000  -0.0000000
   56  -0.0365900   0.0000000  -0.0000000   0.0000000  -0.0000000   0.0000000
   57   0.0000000  -0.2806696   0.4238461   0.0133586   0.3820382  -0.4419281
   58   0.1690166   0.0000000   0.0000000   0.0000000   0.0000000  -0.0000000
   59  -0.1558248  -0.0000000  -0.0000000  -0.0000000  -0.0000000   0.0000000
   60   0.1150762   0.0000000   0.0000000   0.0000000  -0.0000000   0.0000000
           37          38          39          40
    1   0.0000000   0.0000000   0.0000000   0.0000000
    2  -0.0000000   0.0000000  -0.0000000  -0.0000000
    3   0.0000000   0.0000000  -0.0000000  -0.0000000
    4   0.0000000  -0.0000000   0.0000000  -0.0000000
    5  -0.0363076  -0.0254357  -0.4936676   0.5474252
    6   0.0000000  -0.0000000  -0.0000000   0.0000000
    7  -0.0000000   0.0000000   0.0000000  -0.0000000
    8   0.0000000  -0.0000000   0.0000000   0.0000000
    9  -0.0000000  -0.0000000   0.0000000  -0.0000000
   10   0.5864503   0.2167876   0.1763924  -0.4777099
   11   0.0000000   0.0000000   0.0000000   0.0000000
   12  -0.0000000  -0.0000000  -0.0000000  -0.0000000
   13   0.0000000  -0.0000000   0.0000000   0.0000000
   14   0.0000000   0.0000000  -0.0000000  -0.0000000
   15  -0.5516418  -0.2090772   0.2066238   0.4798653
   16  -0.0000000  -0.0000000   0.0000000   0.0000000
   17   0.0000000   0.0000000  -0.0000000  -0.0000000
   18   0.0000000  -0.0000000   0.0000000   0.0000000
   19  -0.0000000  -0.0000000   0.0000000   0.0000000
   20  -0.0363076   0.0254357  -0.4936676  -0.5474252
   21   0.0000000   0.0000000  -0.0000000   0.0000000
   22  -0.0000000  -0.0000000   0.0000000  -0.0000000
   23   0.0000000   0.0000000   0.0000000   0.0000000
   24  -0.0000000  -0.0000000   0.0000000   0.0000000
   25   0.5864503  -0.2167876   0.1763924   0.4777099
   26   0.0000000  -0.0000000   0.0000000   0.0000000
   27   0.0000000   0.0000000  -0.0000000  -0.0000000
   28  -0.0000000  -0.0000000   0.0000000  -0.0000000
   29   0.0000000  -0.0000000   0.0000000   0.0000000
   30  -0.5516418   0.2090772   0.2066238  -0.4798653
   31   0.0000000   0.0000000  -0.0000000   0.0000000
   32  -0.0000000   0.0000000   0.0000000   0.0000000
   33  -0.0000000   0.0000000   0.0000000   0.0000000
   34   0.0000000  -0.0000000   0.0000000   0.0000000
   35  -0.0000000   0.0000000   0.0000000  -0.0000000
   36  -0.0000000  -0.0000000   0.0000000   0.0000000
   37   0.0000000  -0.0000000   0.0000000   0.0000000
   38  -0.0000000   0.0000000  -0.0000000   0.0000000
   39   0.0013339   0.5355452   0.5216123   0.2609530
   40  -0.0000000   0.0000000   0.0000000   0.0000000
   41   0.0000000  -0.0000000  -0.0000000  -0.0000000
   42   0.0000000  -0.0000000   0.0000000   0.0000000
   43   0.0000000   0.0000000  -0.0000000   0.0000000
   44   0.0186346  -0.5351143  -0.3859132  -0.1430015
   45   0.0000000   0.0000000   0.0000000   0.0000000
   46  -0.0000000  -0.0000000   0.0000000   0.0000000
   47  -0.0000000   0.0000000   0.0000000  -0.0000000
   48   0.0000000  -0.0000000   0.0000000  -0.0000000
   49  -0.0000000   0.0000000  -0.0000000   0.0000000
   50   0.0000000   0.0000000  -0.0000000  -0.0000000
   51   0.0000000  -0.0000000   0.0000000  -0.0000000
   52   0.0013339  -0.5355452   0.5216123  -0.2609530
   53  -0.0000000  -0.0000000   0.0000000   0.0000000
   54   0.0000000   0.0000000  -0.0000000  -0.0000000
   55   0.0000000   0.0000000  -0.0000000  -0.0000000
   56   0.0000000  -0.0000000   0.0000000  -0.0000000
   57   0.0186346   0.5351143  -0.3859132   0.1430015
   58   0.0000000   0.0000000  -0.0000000   0.0000000
   59  -0.0000000  -0.0000000   0.0000000   0.0000000
   60   0.0000000  -0.0000000   0.0000000   0.0000000
 Final Alpha density matrix.
            1           2           3           4           5           6
    1   1.0333429  -0.1026417  -0.0004201  -0.0001078   0.0000000   0.0129288
    2  -0.1026417   0.4186481   0.0150666   0.0034739   0.0000000  -0.0338215
    3  -0.0004201   0.0150666   0.3024822   0.0001526   0.0000000   0.0376953
    4  -0.0001078   0.0034739   0.0001526   0.3026798   0.0000000  -0.0435339
    5   0.0000000   0.0000000   0.0000000   0.0000000   0.3840319  -0.0000000
    6   0.0129288  -0.0338215   0.0376953  -0.0435339  -0.0000000   1.0334712
    7  -0.0341362   0.0455756  -0.0938919   0.1082668   0.0000000  -0.1009944
    8  -0.0389935   0.0958072  -0.0928992   0.1241046   0.0000000  -0.0010188
    9   0.0432898  -0.1107281   0.1194552  -0.1268591  -0.0000000  -0.0023078
   10   0.0000000  -0.0000000   0.0000000   0.0000000   0.2388208   0.0000000
   11  -0.0023847   0.0071312  -0.0103426   0.0044660   0.0000000   0.0127047
   12   0.0072468  -0.0163580   0.0398085  -0.0121790  -0.0000000  -0.0331551
   13   0.0118842  -0.0417073   0.0414113  -0.0228263   0.0000000  -0.0568697
   14  -0.0031078   0.0163423  -0.0022387   0.0122585  -0.0000000  -0.0110785
   15  -0.0000000   0.0000000   0.0000000   0.0000000  -0.0304323  -0.0000000
   16  -0.0022439   0.0077545  -0.0065902  -0.0014831   0.0000000  -0.0024338
   17   0.0077545  -0.0263131   0.0245519   0.0057067   0.0000000   0.0073177
   18   0.0065902  -0.0245519   0.0211795   0.0095067   0.0000000   0.0075809
   19   0.0014831  -0.0057067   0.0095067  -0.0272676   0.0000000   0.0081643
   20   0.0000000  -0.0000000   0.0000000  -0.0000000  -0.1572840   0.0000000
   21  -0.0024338   0.0073177  -0.0075809  -0.0081643  -0.0000000  -0.0021989
   22   0.0074489  -0.0171029   0.0310938   0.0268439   0.0000000   0.0075233
   23   0.0099355  -0.0328518   0.0270672   0.0295519  -0.0000000   0.0019247
   24   0.0073814  -0.0306683   0.0086511   0.0251801  -0.0000000   0.0060423
   25   0.0000000   0.0000000   0.0000000  -0.0000000  -0.0294072   0.0000000
   26   0.0130311  -0.0341220   0.0172589   0.0548124  -0.0000000  -0.0026131
   27  -0.0344905   0.0465242  -0.0425282  -0.1361933   0.0000000   0.0083753
   28  -0.0193398   0.0464530  -0.0083058  -0.0743077  -0.0000000  -0.0012223
   29  -0.0543244   0.1354456  -0.0738045  -0.2101982  -0.0000000   0.0120791
   30  -0.0000000   0.0000000  -0.0000000  -0.0000000   0.2395278  -0.0000000
   31   0.0135089  -0.0513433   0.0158537  -0.0623212  -0.0000000  -0.0569737
   32  -0.0093048   0.0351611  -0.0330586   0.0357467   0.0000000   0.0137036
   33  -0.0091498   0.0342653  -0.0172257  -0.0462163  -0.0000000  -0.0010888
   34   0.0131858  -0.0495864  -0.0089372   0.0631293  -0.0000000  -0.0091045
   35   0.0000495  -0.0001179   0.0005281  -0.0002077   0.0000000   0.0015302
   36   0.0002218  -0.0009760  -0.0004262   0.0011115   0.0000000  -0.0059270
   37  -0.0011107   0.0045716  -0.0046919  -0.0015131  -0.0000000  -0.0072933
   38  -0.0006832   0.0029508  -0.0018906  -0.0014968  -0.0000000  -0.0027449
   39   0.0000000  -0.0000000  -0.0000000  -0.0000000   0.0064679  -0.0000000
   40  -0.0002360   0.0009590  -0.0008798   0.0005205   0.0000000   0.0004914
   41   0.0008949  -0.0034784   0.0035547  -0.0022860  -0.0000000  -0.0018836
   42   0.0005432  -0.0026806   0.0015824  -0.0003253   0.0000000  -0.0008970
   43   0.0011981  -0.0048926   0.0039885  -0.0046590  -0.0000000  -0.0019096
   44  -0.0000000  -0.0000000  -0.0000000  -0.0000000   0.0731617  -0.0000000
   45   0.0006535  -0.0032820   0.0020024  -0.0027095  -0.0000000   0.0033324
   46  -0.0009752   0.0042534  -0.0032129   0.0008510   0.0000000  -0.0000958
   47   0.0007242  -0.0037415   0.0010763  -0.0001838   0.0000000   0.0000917
   48   0.0097454  -0.0272140  -0.0494956  -0.0105444   0.0000000  -0.0028223
   49  -0.0273470   0.0488187   0.1415312   0.0293154  -0.0000000   0.0110349
   50   0.0496981  -0.1437048  -0.2315782  -0.0470197  -0.0000000  -0.0111744
   51   0.0118279  -0.0395621  -0.0554247  -0.0088865   0.0000000   0.0044694
   52   0.0000000  -0.0000000  -0.0000000  -0.0000000   0.0814845   0.0000000
   53  -0.0024300   0.0086198   0.0114472  -0.0023065   0.0000000   0.0015492
   54   0.0069843  -0.0215989  -0.0371375   0.0118836   0.0000000  -0.0054306
   55  -0.0110863   0.0461844   0.0461468  -0.0008567  -0.0000000   0.0049341
   56   0.0015046  -0.0023667  -0.0169980   0.0055467   0.0000000  -0.0045082
   57   0.0000000  -0.0000000  -0.0000000   0.0000000  -0.0326705  -0.0000000
   58   0.0137150  -0.0558740  -0.0590966  -0.0355759  -0.0000000   0.0058514
   59  -0.0111965   0.0469335   0.0592296   0.0064705   0.0000000   0.0030400
   60   0.0081490  -0.0339690  -0.0413549  -0.0015129  -0.0000000  -0.0006041
            7           8           9          10          11          12
    1  -0.0341362  -0.0389935   0.0432898   0.0000000  -0.0023847   0.0072468
    2   0.0455756   0.0958072  -0.1107281  -0.0000000   0.0071312  -0.0163580
    3  -0.0938919  -0.0928992   0.1194552   0.0000000  -0.0103426   0.0398085
    4   0.1082668   0.1241046  -0.1268591   0.0000000   0.0044660  -0.0121790
    5   0.0000000   0.0000000  -0.0000000   0.2388208   0.0000000  -0.0000000
    6  -0.1009944  -0.0010188  -0.0023078   0.0000000   0.0127047  -0.0331551
    7   0.4086934   0.0056247   0.0147458  -0.0000000  -0.0331725   0.0430023
    8   0.0056247   0.3030822   0.0041841  -0.0000000   0.0567527  -0.1421858
    9   0.0147458   0.0041841   0.3098517   0.0000000   0.0120740  -0.0336950
   10  -0.0000000  -0.0000000   0.0000000   0.3981729  -0.0000000  -0.0000000
   11  -0.0331725   0.0567527   0.0120740  -0.0000000   1.0334348  -0.1007635
   12   0.0430023  -0.1421858  -0.0336950  -0.0000000  -0.1007635   0.4077509
   13   0.1438418  -0.2237439  -0.0446327   0.0000000   0.0018314  -0.0108533
   14   0.0245442  -0.0503541  -0.0006005  -0.0000000  -0.0018906   0.0121280
   15   0.0000000  -0.0000000  -0.0000000   0.2596821   0.0000000   0.0000000
   16   0.0074489  -0.0099355  -0.0073814  -0.0000000   0.0130311  -0.0344905
   17  -0.0171029   0.0328518   0.0306683   0.0000000  -0.0341220   0.0465242
   18  -0.0310938   0.0270672   0.0086511  -0.0000000  -0.0172589   0.0425282
   19  -0.0268439   0.0295519   0.0251801   0.0000000  -0.0548124   0.1361933
   20   0.0000000   0.0000000   0.0000000  -0.0294072  -0.0000000   0.0000000
   21   0.0075233  -0.0019247  -0.0060423  -0.0000000  -0.0026131   0.0083753
   22  -0.0252617   0.0068702   0.0222488  -0.0000000   0.0083777  -0.0219468
   23  -0.0068702  -0.0209526   0.0149081  -0.0000000  -0.0036244   0.0096622
   24  -0.0222488   0.0149081   0.0157182  -0.0000000   0.0115656  -0.0442057
   25   0.0000000   0.0000000   0.0000000  -0.1625441  -0.0000000   0.0000000
   26   0.0083777   0.0036244  -0.0115656  -0.0000000  -0.0021868   0.0074712
   27  -0.0219468  -0.0096622   0.0442057   0.0000000   0.0074712  -0.0250452
   28   0.0085717   0.0073828   0.0034916   0.0000000  -0.0041276   0.0149617
   29  -0.0446370  -0.0194819   0.0449658  -0.0000000   0.0048706  -0.0180551
   30   0.0000000   0.0000000   0.0000000  -0.0263025  -0.0000000   0.0000000
   31   0.1454623   0.0873735   0.2599128   0.0000000   0.0137510  -0.0509220
   32  -0.0507670   0.0597420  -0.0182622   0.0000000  -0.0571882   0.1458549
   33   0.0037763  -0.0020125  -0.0031124  -0.0000000  -0.0090817   0.0342424
   34   0.0343644   0.0303898  -0.0377192  -0.0000000  -0.0010656   0.0037101
   35  -0.0055850   0.0075997   0.0019283  -0.0000000  -0.0025176   0.0085091
   36   0.0203535  -0.0315983  -0.0082145   0.0000000   0.0090164  -0.0273581
   37   0.0286704  -0.0372623  -0.0080750  -0.0000000   0.0096091  -0.0350302
   38   0.0118343  -0.0117924  -0.0009094  -0.0000000   0.0068465  -0.0276788
   39   0.0000000   0.0000000   0.0000000  -0.0222695   0.0000000   0.0000000
   40  -0.0016718   0.0019526   0.0003038  -0.0000000  -0.0018222   0.0062151
   41   0.0061643  -0.0080827  -0.0009586  -0.0000000   0.0060332  -0.0205066
   42   0.0028270  -0.0026417  -0.0022014   0.0000000   0.0048488  -0.0185452
   43   0.0076456  -0.0103863   0.0004355  -0.0000000   0.0036868  -0.0149003
   44   0.0000000   0.0000000  -0.0000000   0.0049131  -0.0000000   0.0000000
   45  -0.0136343   0.0152538   0.0046506  -0.0000000  -0.0074503   0.0282230
   46   0.0008285  -0.0012854   0.0000804   0.0000000  -0.0022189   0.0084736
   47   0.0000511   0.0032308  -0.0013455  -0.0000000   0.0036853  -0.0127588
   48   0.0099997   0.0115940  -0.0014688   0.0000000   0.0016606  -0.0061593
   49  -0.0360755  -0.0496694   0.0048408  -0.0000000  -0.0067218   0.0236453
   50   0.0417679   0.0439009  -0.0246523   0.0000000   0.0074701  -0.0297609
   51  -0.0201393  -0.0055152  -0.0054466   0.0000000  -0.0000994   0.0012048
   52  -0.0000000  -0.0000000   0.0000000  -0.0206786   0.0000000  -0.0000000
   53  -0.0058501  -0.0050428   0.0028685   0.0000000  -0.0006684   0.0027058
   54   0.0187748   0.0198603  -0.0097279   0.0000000   0.0025009  -0.0095176
   55  -0.0202343  -0.0140685   0.0123312  -0.0000000  -0.0021921   0.0097954
   56   0.0175845   0.0168865  -0.0085749   0.0000000   0.0015794  -0.0060912
   57  -0.0000000  -0.0000000   0.0000000  -0.0920060   0.0000000  -0.0000000
   58  -0.0218330  -0.0173291   0.0066165  -0.0000000  -0.0006319   0.0015048
   59  -0.0120904  -0.0119115   0.0121024   0.0000000  -0.0020946   0.0088179
   60   0.0008983   0.0043415  -0.0071640  -0.0000000   0.0008800  -0.0034935
           13          14          15          16          17          18
    1   0.0118842  -0.0031078  -0.0000000  -0.0022439   0.0077545   0.0065902
    2  -0.0417073   0.0163423   0.0000000   0.0077545  -0.0263131  -0.0245519
    3   0.0414113  -0.0022387   0.0000000  -0.0065902   0.0245519   0.0211795
    4  -0.0228263   0.0122585   0.0000000  -0.0014831   0.0057067   0.0095067
    5   0.0000000  -0.0000000  -0.0304323   0.0000000   0.0000000   0.0000000
    6  -0.0568697  -0.0110785  -0.0000000  -0.0024338   0.0073177   0.0075809
    7   0.1438418   0.0245442   0.0000000   0.0074489  -0.0171029  -0.0310938
    8  -0.2237439  -0.0503541  -0.0000000  -0.0099355   0.0328518   0.0270672
    9  -0.0446327  -0.0006005  -0.0000000  -0.0073814   0.0306683   0.0086511
   10   0.0000000  -0.0000000   0.2596821  -0.0000000   0.0000000  -0.0000000
   11   0.0018314  -0.0018906   0.0000000   0.0130311  -0.0341220  -0.0172589
   12  -0.0108533   0.0121280   0.0000000  -0.0344905   0.0465242   0.0425282
   13   0.3066625  -0.0063628   0.0000000   0.0193398  -0.0464530  -0.0083058
   14  -0.0063628   0.3084577  -0.0000000   0.0543244  -0.1354456  -0.0738045
   15   0.0000000  -0.0000000   0.3972330  -0.0000000  -0.0000000   0.0000000
   16   0.0193398   0.0543244  -0.0000000   1.0333429  -0.1026417   0.0004201
   17  -0.0464530  -0.1354456  -0.0000000  -0.1026417   0.4186481  -0.0150666
   18  -0.0083058  -0.0738045   0.0000000   0.0004201  -0.0150666   0.3024822
   19  -0.0743077  -0.2101982  -0.0000000   0.0001078  -0.0034739   0.0001526
   20  -0.0000000  -0.0000000   0.2395278   0.0000000  -0.0000000   0.0000000
   21   0.0012223  -0.0120791   0.0000000   0.0129288  -0.0338215  -0.0376953
   22  -0.0085717   0.0446370  -0.0000000  -0.0341362   0.0455756   0.0938919
   23   0.0073828  -0.0194819  -0.0000000   0.0389935  -0.0958072  -0.0928992
   24   0.0034916   0.0449658  -0.0000000  -0.0432898   0.1107281   0.1194552
   25  -0.0000000  -0.0000000  -0.0263025   0.0000000  -0.0000000   0.0000000
   26   0.0041276  -0.0048706   0.0000000  -0.0023847   0.0071312   0.0103426
   27  -0.0149617   0.0180551   0.0000000   0.0072468  -0.0163580  -0.0398085
   28  -0.0043285  -0.0238684   0.0000000  -0.0118842   0.0417073   0.0414113
   29  -0.0238684  -0.0008211   0.0000000   0.0031078  -0.0163423  -0.0022387
   30   0.0000000  -0.0000000  -0.1660116  -0.0000000  -0.0000000   0.0000000
   31  -0.0475699  -0.0411903  -0.0000000  -0.0091498   0.0342653   0.0172257
   32  -0.1820707   0.2049124   0.0000000   0.0131858  -0.0495864   0.0089372
   33  -0.0130725  -0.0471369  -0.0000000   0.0135089  -0.0513433  -0.0158537
   34   0.0030221  -0.0022168   0.0000000  -0.0093048   0.0351611   0.0330586
   35  -0.0088992  -0.0072074  -0.0000000   0.0097454  -0.0272140   0.0494956
   36   0.0371498   0.0257558   0.0000000  -0.0273470   0.0488187  -0.1415312
   37   0.0303135   0.0345760  -0.0000000  -0.0496981   0.1437048  -0.2315782
   38   0.0116049   0.0210771  -0.0000000  -0.0118279   0.0395621  -0.0554247
   39   0.0000000  -0.0000000  -0.0218801   0.0000000  -0.0000000   0.0000000
   40  -0.0059532   0.0008359   0.0000000  -0.0024300   0.0086198  -0.0114472
   41   0.0227418  -0.0031694  -0.0000000   0.0069843  -0.0215989   0.0371375
   42   0.0140156   0.0004948   0.0000000   0.0110863  -0.0461844   0.0461468
   43   0.0189877  -0.0258216   0.0000000  -0.0015046   0.0023667  -0.0169980
   44   0.0000000   0.0000000  -0.0874388   0.0000000  -0.0000000   0.0000000
   45  -0.0140506  -0.0385198  -0.0000000   0.0137150  -0.0558740   0.0590966
   46  -0.0090775   0.0124414   0.0000000  -0.0111965   0.0469335  -0.0592296
   47   0.0069524  -0.0187671   0.0000000   0.0081490  -0.0339690   0.0413549
   48  -0.0082690  -0.0014446   0.0000000   0.0000495  -0.0001179  -0.0005281
   49   0.0356751   0.0059285  -0.0000000   0.0002218  -0.0009760   0.0004262
   50  -0.0374422  -0.0070027   0.0000000   0.0011107  -0.0045716  -0.0046919
   51  -0.0022215   0.0014813   0.0000000   0.0006832  -0.0029508  -0.0018906
   52   0.0000000  -0.0000000  -0.0154409  -0.0000000   0.0000000  -0.0000000
   53   0.0030012   0.0003101  -0.0000000  -0.0002360   0.0009590   0.0008798
   54  -0.0119293  -0.0006687   0.0000000   0.0008949  -0.0034784  -0.0035547
   55   0.0093634   0.0021231  -0.0000000  -0.0005432   0.0026806   0.0015824
   56  -0.0087667  -0.0012682   0.0000000  -0.0011981   0.0048926   0.0039885
   57   0.0000000  -0.0000000   0.0060541   0.0000000   0.0000000   0.0000000
   58   0.0015523  -0.0029780  -0.0000000   0.0006535  -0.0032820  -0.0020024
   59   0.0103362   0.0013249  -0.0000000  -0.0009752   0.0042534   0.0032129
   60  -0.0044628   0.0000797  -0.0000000   0.0007242  -0.0037415  -0.0010763
           19          20          21          22          23          24
    1   0.0014831   0.0000000  -0.0024338   0.0074489   0.0099355   0.0073814
    2  -0.0057067  -0.0000000   0.0073177  -0.0171029  -0.0328518  -0.0306683
    3   0.0095067   0.0000000  -0.0075809   0.0310938   0.0270672   0.0086511
    4  -0.0272676  -0.0000000  -0.0081643   0.0268439   0.0295519   0.0251801
    5   0.0000000  -0.1572840  -0.0000000   0.0000000  -0.0000000  -0.0000000
    6   0.0081643   0.0000000  -0.0021989   0.0075233   0.0019247   0.0060423
    7  -0.0268439   0.0000000   0.0075233  -0.0252617  -0.0068702  -0.0222488
    8   0.0295519   0.0000000  -0.0019247   0.0068702  -0.0209526   0.0149081
    9   0.0251801   0.0000000  -0.0060423   0.0222488   0.0149081   0.0157182
   10   0.0000000  -0.0294072  -0.0000000  -0.0000000  -0.0000000  -0.0000000
   11  -0.0548124  -0.0000000  -0.0026131   0.0083777  -0.0036244   0.0115656
   12   0.1361933   0.0000000   0.0083753  -0.0219468   0.0096622  -0.0442057
   13  -0.0743077  -0.0000000   0.0012223  -0.0085717   0.0073828   0.0034916
   14  -0.2101982  -0.0000000  -0.0120791   0.0446370  -0.0194819   0.0449658
   15  -0.0000000   0.2395278   0.0000000  -0.0000000  -0.0000000  -0.0000000
   16   0.0001078   0.0000000   0.0129288  -0.0341362   0.0389935  -0.0432898
   17  -0.0034739  -0.0000000  -0.0338215   0.0455756  -0.0958072   0.1107281
   18   0.0001526   0.0000000  -0.0376953   0.0938919  -0.0928992   0.1194552
   19   0.3026798  -0.0000000   0.0435339  -0.1082668   0.1241046  -0.1268591
   20  -0.0000000   0.3840319   0.0000000  -0.0000000   0.0000000  -0.0000000
   21   0.0435339   0.0000000   1.0334712  -0.1009944   0.0010188   0.0023078
   22  -0.1082668  -0.0000000  -0.1009944   0.4086934  -0.0056247  -0.0147458
   23   0.1241046   0.0000000   0.0010188  -0.0056247   0.3030822   0.0041841
   24  -0.1268591  -0.0000000   0.0023078  -0.0147458   0.0041841   0.3098517
   25  -0.0000000   0.2388208   0.0000000  -0.0000000   0.0000000   0.0000000
   26  -0.0044660   0.0000000   0.0127047  -0.0331725  -0.0567527  -0.0120740
   27   0.0121790  -0.0000000  -0.0331551   0.0430023   0.1421858   0.0336950
   28  -0.0228263  -0.0000000   0.0568697  -0.1438418  -0.2237439  -0.0446327
   29   0.0122585  -0.0000000   0.0110785  -0.0245442  -0.0503541  -0.0006005
   30  -0.0000000  -0.0304323  -0.0000000  -0.0000000  -0.0000000  -0.0000000
   31   0.0462163  -0.0000000  -0.0010888   0.0037763   0.0020125   0.0031124
   32  -0.0631293  -0.0000000  -0.0091045   0.0343644  -0.0303898   0.0377192
   33   0.0623212  -0.0000000  -0.0569737   0.1454623  -0.0873735  -0.2599128
   34  -0.0357467   0.0000000   0.0137036  -0.0507670  -0.0597420   0.0182622
   35   0.0105444  -0.0000000  -0.0028223   0.0099997  -0.0115940   0.0014688
   36  -0.0293154   0.0000000   0.0110349  -0.0360755   0.0496694  -0.0048408
   37  -0.0470197   0.0000000   0.0111744  -0.0417679   0.0439009  -0.0246523
   38  -0.0088865   0.0000000  -0.0044694   0.0201393  -0.0055152  -0.0054466
   39  -0.0000000   0.0814845   0.0000000  -0.0000000  -0.0000000   0.0000000
   40   0.0023065  -0.0000000   0.0015492  -0.0058501   0.0050428  -0.0028685
   41  -0.0118836  -0.0000000  -0.0054306   0.0187748  -0.0198603   0.0097279
   42  -0.0008567  -0.0000000  -0.0049341   0.0202343  -0.0140685   0.0123312
   43   0.0055467  -0.0000000   0.0045082  -0.0175845   0.0168865  -0.0085749
   44  -0.0000000  -0.0326705  -0.0000000   0.0000000  -0.0000000   0.0000000
   45   0.0355759   0.0000000   0.0058514  -0.0218330   0.0173291  -0.0066165
   46  -0.0064705   0.0000000   0.0030400  -0.0120904   0.0119115  -0.0121024
   47   0.0015129   0.0000000  -0.0006041   0.0008983  -0.0043415   0.0071640
   48   0.0002077   0.0000000   0.0015302  -0.0055850  -0.0075997  -0.0019283
   49  -0.0011115   0.0000000  -0.0059270   0.0203535   0.0315983   0.0082145
   50  -0.0015131   0.0000000   0.0072933  -0.0286704  -0.0372623  -0.0080750
   51  -0.0014968  -0.0000000   0.0027449  -0.0118343  -0.0117924  -0.0009094
   52   0.0000000   0.0064679   0.0000000  -0.0000000  -0.0000000  -0.0000000
   53  -0.0005205  -0.0000000   0.0004914  -0.0016718  -0.0019526  -0.0003038
   54   0.0022860   0.0000000  -0.0018836   0.0061643   0.0080827   0.0009586
   55  -0.0003253   0.0000000   0.0008970  -0.0028270  -0.0026417  -0.0022014
   56  -0.0046590  -0.0000000   0.0019096  -0.0076456  -0.0103863   0.0004355
   57  -0.0000000   0.0731617   0.0000000  -0.0000000  -0.0000000  -0.0000000
   58   0.0027095   0.0000000   0.0033324  -0.0136343  -0.0152538  -0.0046506
   59  -0.0008510  -0.0000000  -0.0000958   0.0008285   0.0012854  -0.0000804
   60   0.0001838  -0.0000000   0.0000917   0.0000511  -0.0032308   0.0013455
           25          26          27          28          29          30
    1   0.0000000   0.0130311  -0.0344905  -0.0193398  -0.0543244  -0.0000000
    2   0.0000000  -0.0341220   0.0465242   0.0464530   0.1354456   0.0000000
    3   0.0000000   0.0172589  -0.0425282  -0.0083058  -0.0738045  -0.0000000
    4  -0.0000000   0.0548124  -0.1361933  -0.0743077  -0.2101982  -0.0000000
    5  -0.0294072  -0.0000000   0.0000000  -0.0000000  -0.0000000   0.2395278
    6   0.0000000  -0.0026131   0.0083753  -0.0012223   0.0120791  -0.0000000
    7   0.0000000   0.0083777  -0.0219468   0.0085717  -0.0446370   0.0000000
    8   0.0000000   0.0036244  -0.0096622   0.0073828  -0.0194819   0.0000000
    9   0.0000000  -0.0115656   0.0442057   0.0034916   0.0449658   0.0000000
   10  -0.1625441  -0.0000000   0.0000000   0.0000000  -0.0000000  -0.0263025
   11  -0.0000000  -0.0021868   0.0074712  -0.0041276   0.0048706  -0.0000000
   12   0.0000000   0.0074712  -0.0250452   0.0149617  -0.0180551   0.0000000
   13  -0.0000000   0.0041276  -0.0149617  -0.0043285  -0.0238684   0.0000000
   14  -0.0000000  -0.0048706   0.0180551  -0.0238684  -0.0008211  -0.0000000
   15  -0.0263025   0.0000000   0.0000000   0.0000000   0.0000000  -0.1660116
   16   0.0000000  -0.0023847   0.0072468  -0.0118842   0.0031078  -0.0000000
   17  -0.0000000   0.0071312  -0.0163580   0.0417073  -0.0163423  -0.0000000
   18   0.0000000   0.0103426  -0.0398085   0.0414113  -0.0022387   0.0000000
   19  -0.0000000  -0.0044660   0.0121790  -0.0228263   0.0122585  -0.0000000
   20   0.2388208   0.0000000  -0.0000000  -0.0000000  -0.0000000  -0.0304323
   21   0.0000000   0.0127047  -0.0331551   0.0568697   0.0110785  -0.0000000
   22  -0.0000000  -0.0331725   0.0430023  -0.1438418  -0.0245442  -0.0000000
   23   0.0000000  -0.0567527   0.1421858  -0.2237439  -0.0503541  -0.0000000
   24   0.0000000  -0.0120740   0.0336950  -0.0446327  -0.0006005  -0.0000000
   25   0.3981729   0.0000000  -0.0000000  -0.0000000  -0.0000000   0.2596821
   26   0.0000000   1.0334348  -0.1007635  -0.0018314   0.0018906  -0.0000000
   27  -0.0000000  -0.1007635   0.4077509   0.0108533  -0.0121280  -0.0000000
   28  -0.0000000  -0.0018314   0.0108533   0.3066625  -0.0063628  -0.0000000
   29  -0.0000000   0.0018906  -0.0121280  -0.0063628   0.3084577  -0.0000000
   30   0.2596821  -0.0000000  -0.0000000  -0.0000000  -0.0000000   0.3972330
   31  -0.0000000  -0.0090817   0.0342424   0.0130725   0.0471369  -0.0000000
   32   0.0000000  -0.0010656   0.0037101  -0.0030221   0.0022168   0.0000000
   33  -0.0000000   0.0137510  -0.0509220   0.0475699   0.0411903  -0.0000000
   34   0.0000000  -0.0571882   0.1458549   0.1820707  -0.2049124  -0.0000000
   35  -0.0000000   0.0016606  -0.0061593   0.0082690   0.0014446  -0.0000000
   36   0.0000000  -0.0067218   0.0236453  -0.0356751  -0.0059285   0.0000000
   37   0.0000000  -0.0074701   0.0297609  -0.0374422  -0.0070027   0.0000000
   38   0.0000000   0.0000994  -0.0012048  -0.0022215   0.0014813   0.0000000
   39  -0.0206786  -0.0000000  -0.0000000  -0.0000000   0.0000000  -0.0154409
   40  -0.0000000  -0.0006684   0.0027058  -0.0030012  -0.0003101   0.0000000
   41  -0.0000000   0.0025009  -0.0095176   0.0119293   0.0006687  -0.0000000
   42  -0.0000000   0.0021921  -0.0097954   0.0093634   0.0021231   0.0000000
   43   0.0000000  -0.0015794   0.0060912  -0.0087667  -0.0012682  -0.0000000
   44  -0.0920060   0.0000000  -0.0000000  -0.0000000   0.0000000   0.0060541
   45   0.0000000  -0.0006319   0.0015048  -0.0015523   0.0029780  -0.0000000
   46   0.0000000  -0.0020946   0.0088179  -0.0103362  -0.0013249   0.0000000
   47   0.0000000   0.0008800  -0.0034935   0.0044628  -0.0000797   0.0000000
   48   0.0000000  -0.0025176   0.0085091   0.0088992   0.0072074  -0.0000000
   49   0.0000000   0.0090164  -0.0273581  -0.0371498  -0.0257558  -0.0000000
   50  -0.0000000  -0.0096091   0.0350302   0.0303135   0.0345760  -0.0000000
   51  -0.0000000  -0.0068465   0.0276788   0.0116049   0.0210771   0.0000000
   52  -0.0222695  -0.0000000   0.0000000   0.0000000   0.0000000  -0.0218801
   53   0.0000000  -0.0018222   0.0062151   0.0059532  -0.0008359  -0.0000000
   54  -0.0000000   0.0060332  -0.0205066  -0.0227418   0.0031694   0.0000000
   55   0.0000000  -0.0048488   0.0185452   0.0140156   0.0004948   0.0000000
   56  -0.0000000  -0.0036868   0.0149003   0.0189877  -0.0258216   0.0000000
   57   0.0049131   0.0000000   0.0000000  -0.0000000  -0.0000000  -0.0874388
   58   0.0000000  -0.0074503   0.0282230   0.0140506   0.0385198   0.0000000
   59  -0.0000000  -0.0022189   0.0084736   0.0090775  -0.0124414  -0.0000000
   60   0.0000000   0.0036853  -0.0127588  -0.0069524   0.0187671   0.0000000
           31          32          33          34          35          36
    1   0.0135089  -0.0093048  -0.0091498   0.0131858   0.0000495   0.0002218
    2  -0.0513433   0.0351611   0.0342653  -0.0495864  -0.0001179  -0.0009760
    3   0.0158537  -0.0330586  -0.0172257  -0.0089372   0.0005281  -0.0004262
    4  -0.0623212   0.0357467  -0.0462163   0.0631293  -0.0002077   0.0011115
    5  -0.0000000   0.0000000  -0.0000000  -0.0000000   0.0000000   0.0000000
    6  -0.0569737   0.0137036  -0.0010888  -0.0091045   0.0015302  -0.0059270
    7   0.1454623  -0.0507670   0.0037763   0.0343644  -0.0055850   0.0203535
    8   0.0873735   0.0597420  -0.0020125   0.0303898   0.0075997  -0.0315983
    9   0.2599128  -0.0182622  -0.0031124  -0.0377192   0.0019283  -0.0082145
   10   0.0000000   0.0000000  -0.0000000  -0.0000000  -0.0000000   0.0000000
   11   0.0137510  -0.0571882  -0.0090817  -0.0010656  -0.0025176   0.0090164
   12  -0.0509220   0.1458549   0.0342424   0.0037101   0.0085091  -0.0273581
   13  -0.0475699  -0.1820707  -0.0130725   0.0030221  -0.0088992   0.0371498
   14  -0.0411903   0.2049124  -0.0471369  -0.0022168  -0.0072074   0.0257558
   15  -0.0000000   0.0000000  -0.0000000   0.0000000  -0.0000000   0.0000000
   16  -0.0091498   0.0131858   0.0135089  -0.0093048   0.0097454  -0.0273470
   17   0.0342653  -0.0495864  -0.0513433   0.0351611  -0.0272140   0.0488187
   18   0.0172257   0.0089372  -0.0158537   0.0330586   0.0494956  -0.1415312
   19   0.0462163  -0.0631293   0.0623212  -0.0357467   0.0105444  -0.0293154
   20  -0.0000000  -0.0000000  -0.0000000   0.0000000  -0.0000000   0.0000000
   21  -0.0010888  -0.0091045  -0.0569737   0.0137036  -0.0028223   0.0110349
   22   0.0037763   0.0343644   0.1454623  -0.0507670   0.0099997  -0.0360755
   23   0.0020125  -0.0303898  -0.0873735  -0.0597420  -0.0115940   0.0496694
   24   0.0031124   0.0377192  -0.2599128   0.0182622   0.0014688  -0.0048408
   25  -0.0000000   0.0000000  -0.0000000   0.0000000  -0.0000000   0.0000000
   26  -0.0090817  -0.0010656   0.0137510  -0.0571882   0.0016606  -0.0067218
   27   0.0342424   0.0037101  -0.0509220   0.1458549  -0.0061593   0.0236453
   28   0.0130725  -0.0030221   0.0475699   0.1820707   0.0082690  -0.0356751
   29   0.0471369   0.0022168   0.0411903  -0.2049124   0.0014446  -0.0059285
   30  -0.0000000   0.0000000  -0.0000000  -0.0000000  -0.0000000   0.0000000
   31   0.2935307  -0.0377061   0.0096890  -0.0230398   0.0033377  -0.0139324
   32  -0.0377061   0.2935565  -0.0230398   0.0094637   0.0064356  -0.0254787
   33   0.0096890  -0.0230398   0.2935307  -0.0377061   0.0075047  -0.0298899
   34  -0.0230398   0.0094637  -0.0377061   0.2935565   0.0030834  -0.0137365
   35   0.0033377   0.0064356   0.0075047   0.0030834   1.0338223  -0.1037106
   36  -0.0139324  -0.0254787  -0.0298899  -0.0137365  -0.1037106   0.4189716
   37  -0.0178908  -0.0303065  -0.0292818  -0.0185112   0.0000974   0.0170557
   38  -0.0055590  -0.0146459   0.0019291  -0.0037291   0.0024318  -0.0180085
   39  -0.0000000  -0.0000000  -0.0000000   0.0000000  -0.0000000  -0.0000000
   40  -0.0001871   0.0038135  -0.0016375  -0.0014966   0.0150630  -0.0385679
   41   0.0002912  -0.0137308   0.0053398   0.0058824  -0.0386760   0.0478594
   42   0.0004523   0.0025693   0.0064687   0.0055014  -0.0448684   0.1065305
   43   0.0037848  -0.0170440  -0.0010260  -0.0052100   0.0435519  -0.1006452
   44   0.0000000  -0.0000000   0.0000000   0.0000000  -0.0000000  -0.0000000
   45   0.0120705   0.0065633   0.0090430  -0.0019351  -0.0570274   0.1429177
   46  -0.0040366  -0.0030468  -0.0060463  -0.0063854   0.0142089  -0.0441735
   47   0.0044018   0.0043331   0.0026925   0.0036707   0.0125023  -0.0404589
   48   0.0075047   0.0030834   0.0033377   0.0064356   0.0003260  -0.0015572
   49  -0.0298899  -0.0137365  -0.0139324  -0.0254787  -0.0015572   0.0071582
   50   0.0292818   0.0185112   0.0178908   0.0303065   0.0012880  -0.0063209
   51  -0.0019291   0.0037291   0.0055590   0.0146459   0.0001048  -0.0006173
   52   0.0000000   0.0000000  -0.0000000  -0.0000000  -0.0000000  -0.0000000
   53  -0.0016375  -0.0014966  -0.0001871   0.0038135   0.0000462  -0.0001855
   54   0.0053398   0.0058824   0.0002912  -0.0137308  -0.0001904   0.0007618
   55  -0.0064687  -0.0055014  -0.0004523  -0.0025693   0.0000377  -0.0001389
   56   0.0010260   0.0052100  -0.0037848   0.0170440   0.0006895  -0.0031579
   57   0.0000000   0.0000000  -0.0000000  -0.0000000  -0.0000000  -0.0000000
   58   0.0090430  -0.0019351   0.0120705   0.0065633   0.0002132  -0.0010018
   59  -0.0060463  -0.0063854  -0.0040366  -0.0030468   0.0000285  -0.0000228
   60   0.0026925   0.0036707   0.0044018   0.0043331   0.0000179   0.0000154
           37          38          39          40          41          42
    1  -0.0011107  -0.0006832   0.0000000  -0.0002360   0.0008949   0.0005432
    2   0.0045716   0.0029508  -0.0000000   0.0009590  -0.0034784  -0.0026806
    3  -0.0046919  -0.0018906  -0.0000000  -0.0008798   0.0035547   0.0015824
    4  -0.0015131  -0.0014968  -0.0000000   0.0005205  -0.0022860  -0.0003253
    5  -0.0000000  -0.0000000   0.0064679   0.0000000  -0.0000000   0.0000000
    6  -0.0072933  -0.0027449  -0.0000000   0.0004914  -0.0018836  -0.0008970
    7   0.0286704   0.0118343   0.0000000  -0.0016718   0.0061643   0.0028270
    8  -0.0372623  -0.0117924   0.0000000   0.0019526  -0.0080827  -0.0026417
    9  -0.0080750  -0.0009094   0.0000000   0.0003038  -0.0009586  -0.0022014
   10  -0.0000000  -0.0000000  -0.0222695  -0.0000000  -0.0000000   0.0000000
   11   0.0096091   0.0068465   0.0000000  -0.0018222   0.0060332   0.0048488
   12  -0.0350302  -0.0276788   0.0000000   0.0062151  -0.0205066  -0.0185452
   13   0.0303135   0.0116049   0.0000000  -0.0059532   0.0227418   0.0140156
   14   0.0345760   0.0210771  -0.0000000   0.0008359  -0.0031694   0.0004948
   15  -0.0000000  -0.0000000  -0.0218801   0.0000000  -0.0000000   0.0000000
   16  -0.0496981  -0.0118279   0.0000000  -0.0024300   0.0069843   0.0110863
   17   0.1437048   0.0395621  -0.0000000   0.0086198  -0.0215989  -0.0461844
   18  -0.2315782  -0.0554247   0.0000000  -0.0114472   0.0371375   0.0461468
   19  -0.0470197  -0.0088865  -0.0000000   0.0023065  -0.0118836  -0.0008567
   20   0.0000000   0.0000000   0.0814845  -0.0000000  -0.0000000  -0.0000000
   21   0.0111744  -0.0044694   0.0000000   0.0015492  -0.0054306  -0.0049341
   22  -0.0417679   0.0201393  -0.0000000  -0.0058501   0.0187748   0.0202343
   23   0.0439009  -0.0055152  -0.0000000   0.0050428  -0.0198603  -0.0140685
   24  -0.0246523  -0.0054466   0.0000000  -0.0028685   0.0097279   0.0123312
   25   0.0000000   0.0000000  -0.0206786  -0.0000000  -0.0000000  -0.0000000
   26  -0.0074701   0.0000994  -0.0000000  -0.0006684   0.0025009   0.0021921
   27   0.0297609  -0.0012048  -0.0000000   0.0027058  -0.0095176  -0.0097954
   28  -0.0374422  -0.0022215  -0.0000000  -0.0030012   0.0119293   0.0093634
   29  -0.0070027   0.0014813   0.0000000  -0.0003101   0.0006687   0.0021231
   30   0.0000000   0.0000000  -0.0154409   0.0000000  -0.0000000   0.0000000
   31  -0.0178908  -0.0055590  -0.0000000  -0.0001871   0.0002912   0.0004523
   32  -0.0303065  -0.0146459  -0.0000000   0.0038135  -0.0137308   0.0025693
   33  -0.0292818   0.0019291  -0.0000000  -0.0016375   0.0053398   0.0064687
   34  -0.0185112  -0.0037291   0.0000000  -0.0014966   0.0058824   0.0055014
   35   0.0000974   0.0024318  -0.0000000   0.0150630  -0.0386760  -0.0448684
   36   0.0170557  -0.0180085  -0.0000000  -0.0385679   0.0478594   0.1065305
   37   0.2990210  -0.0002382   0.0000000   0.0427489  -0.0975442  -0.0954289
   38  -0.0002382   0.3094269   0.0000000  -0.0460813   0.1105662   0.1190042
   39   0.0000000   0.0000000   0.3913689   0.0000000   0.0000000   0.0000000
   40   0.0427489  -0.0460813   0.0000000   1.0336904  -0.1010318   0.0014639
   41  -0.0975442   0.1105662   0.0000000  -0.1010318   0.4056329  -0.0160324
   42  -0.0954289   0.1190042   0.0000000   0.0014639  -0.0160324   0.3099484
   43   0.1234805  -0.1055503  -0.0000000  -0.0016730   0.0168931   0.0063018
   44   0.0000000  -0.0000000   0.3836000   0.0000000   0.0000000  -0.0000000
   45  -0.0682265  -0.2654045  -0.0000000   0.0146091  -0.0480946  -0.0132857
   46   0.0544359  -0.0143873  -0.0000000  -0.0561142   0.1411161  -0.2680683
   47   0.0145903  -0.0592133   0.0000000  -0.0562832   0.1407113   0.0742249
   48  -0.0012880  -0.0001048   0.0000000   0.0000462  -0.0001904  -0.0000377
   49   0.0063209   0.0006173   0.0000000  -0.0001855   0.0007618   0.0001389
   50  -0.0043953   0.0001342  -0.0000000   0.0002994  -0.0012600  -0.0002933
   51   0.0001342   0.0003269  -0.0000000   0.0000222   0.0000110  -0.0000846
   52  -0.0000000  -0.0000000   0.0079353  -0.0000000   0.0000000   0.0000000
   53  -0.0002994  -0.0000222   0.0000000  -0.0000869   0.0003631   0.0002172
   54   0.0012600  -0.0000110  -0.0000000   0.0003631  -0.0014687  -0.0009926
   55  -0.0002933  -0.0000846   0.0000000  -0.0002172   0.0009926   0.0003296
   56  -0.0037502  -0.0007526  -0.0000000  -0.0001058   0.0003942   0.0005746
   57  -0.0000000  -0.0000000  -0.0017884  -0.0000000   0.0000000   0.0000000
   58  -0.0002375   0.0004049   0.0000000  -0.0000943   0.0004051   0.0002552
   59  -0.0006859  -0.0002970  -0.0000000  -0.0002584   0.0010886   0.0005725
   60   0.0000864   0.0004740  -0.0000000   0.0000734  -0.0003995   0.0000468
           43          44          45          46          47          48
    1   0.0011981  -0.0000000   0.0006535  -0.0009752   0.0007242   0.0097454
    2  -0.0048926  -0.0000000  -0.0032820   0.0042534  -0.0037415  -0.0272140
    3   0.0039885  -0.0000000   0.0020024  -0.0032129   0.0010763  -0.0494956
    4  -0.0046590  -0.0000000  -0.0027095   0.0008510  -0.0001838  -0.0105444
    5  -0.0000000   0.0731617  -0.0000000   0.0000000   0.0000000   0.0000000
    6  -0.0019096  -0.0000000   0.0033324  -0.0000958   0.0000917  -0.0028223
    7   0.0076456   0.0000000  -0.0136343   0.0008285   0.0000511   0.0099997
    8  -0.0103863   0.0000000   0.0152538  -0.0012854   0.0032308   0.0115940
    9   0.0004355  -0.0000000   0.0046506   0.0000804  -0.0013455  -0.0014688
   10  -0.0000000   0.0049131  -0.0000000   0.0000000  -0.0000000   0.0000000
   11   0.0036868  -0.0000000  -0.0074503  -0.0022189   0.0036853   0.0016606
   12  -0.0149003   0.0000000   0.0282230   0.0084736  -0.0127588  -0.0061593
   13   0.0189877   0.0000000  -0.0140506  -0.0090775   0.0069524  -0.0082690
   14  -0.0258216   0.0000000  -0.0385198   0.0124414  -0.0187671  -0.0014446
   15   0.0000000  -0.0874388  -0.0000000   0.0000000   0.0000000   0.0000000
   16  -0.0015046   0.0000000   0.0137150  -0.0111965   0.0081490   0.0000495
   17   0.0023667  -0.0000000  -0.0558740   0.0469335  -0.0339690  -0.0001179
   18  -0.0169980   0.0000000   0.0590966  -0.0592296   0.0413549  -0.0005281
   19   0.0055467  -0.0000000   0.0355759  -0.0064705   0.0015129   0.0002077
   20  -0.0000000  -0.0326705   0.0000000   0.0000000   0.0000000   0.0000000
   21   0.0045082  -0.0000000   0.0058514   0.0030400  -0.0006041   0.0015302
   22  -0.0175845   0.0000000  -0.0218330  -0.0120904   0.0008983  -0.0055850
   23   0.0168865  -0.0000000   0.0173291   0.0119115  -0.0043415  -0.0075997
   24  -0.0085749   0.0000000  -0.0066165  -0.0121024   0.0071640  -0.0019283
   25   0.0000000  -0.0920060   0.0000000   0.0000000   0.0000000   0.0000000
   26  -0.0015794   0.0000000  -0.0006319  -0.0020946   0.0008800  -0.0025176
   27   0.0060912  -0.0000000   0.0015048   0.0088179  -0.0034935   0.0085091
   28  -0.0087667  -0.0000000  -0.0015523  -0.0103362   0.0044628   0.0088992
   29  -0.0012682   0.0000000   0.0029780  -0.0013249  -0.0000797   0.0072074
   30  -0.0000000   0.0060541  -0.0000000   0.0000000   0.0000000  -0.0000000
   31   0.0037848   0.0000000   0.0120705  -0.0040366   0.0044018   0.0075047
   32  -0.0170440  -0.0000000   0.0065633  -0.0030468   0.0043331   0.0030834
   33  -0.0010260   0.0000000   0.0090430  -0.0060463   0.0026925   0.0033377
   34  -0.0052100   0.0000000  -0.0019351  -0.0063854   0.0036707   0.0064356
   35   0.0435519  -0.0000000  -0.0570274   0.0142089   0.0125023   0.0003260
   36  -0.1006452  -0.0000000   0.1429177  -0.0441735  -0.0404589  -0.0015572
   37   0.1234805   0.0000000  -0.0682265   0.0544359   0.0145903  -0.0012880
   38  -0.1055503  -0.0000000  -0.2654045  -0.0143873  -0.0592133  -0.0001048
   39  -0.0000000   0.3836000  -0.0000000  -0.0000000   0.0000000   0.0000000
   40  -0.0016730   0.0000000   0.0146091  -0.0561142  -0.0562832   0.0000462
   41   0.0168931   0.0000000  -0.0480946   0.1411161   0.1407113  -0.0001904
   42   0.0063018  -0.0000000  -0.0132857  -0.2680683   0.0742249  -0.0000377
   43   0.3107315  -0.0000000   0.0602543  -0.0665409   0.2659844  -0.0006895
   44  -0.0000000   0.4120348   0.0000000   0.0000000   0.0000000  -0.0000000
   45   0.0602543   0.0000000   0.2941528  -0.0456237   0.0706941   0.0002132
   46  -0.0665409   0.0000000  -0.0456237   0.2929786  -0.0802421   0.0000285
   47   0.2659844   0.0000000   0.0706941  -0.0802421   0.2945314   0.0000179
   48  -0.0006895  -0.0000000   0.0002132   0.0000285   0.0000179   1.0338223
   49   0.0031579   0.0000000  -0.0010018  -0.0000228   0.0000154  -0.1037106
   50  -0.0037502  -0.0000000   0.0002375   0.0006859  -0.0000864  -0.0000974
   51  -0.0007526  -0.0000000  -0.0004049   0.0002970  -0.0004740  -0.0024318
   52   0.0000000  -0.0017884  -0.0000000   0.0000000  -0.0000000  -0.0000000
   53   0.0001058  -0.0000000  -0.0000943  -0.0002584   0.0000734   0.0150630
   54  -0.0003942  -0.0000000   0.0004051   0.0010886  -0.0003995  -0.0386760
   55   0.0005746   0.0000000  -0.0002552  -0.0005725  -0.0000468   0.0448684
   56  -0.0014778   0.0000000  -0.0000239  -0.0007738   0.0004973  -0.0435519
   57   0.0000000  -0.0377793  -0.0000000  -0.0000000  -0.0000000  -0.0000000
   58   0.0000239  -0.0000000   0.0002166  -0.0001021   0.0000028  -0.0570274
   59   0.0007738  -0.0000000  -0.0001021  -0.0008786   0.0003123   0.0142089
   60  -0.0004973   0.0000000   0.0000028   0.0003123  -0.0002384   0.0125023
           49          50          51          52          53          54
    1  -0.0273470   0.0496981   0.0118279   0.0000000  -0.0024300   0.0069843
    2   0.0488187  -0.1437048  -0.0395621  -0.0000000   0.0086198  -0.0215989
    3   0.1415312  -0.2315782  -0.0554247  -0.0000000   0.0114472  -0.0371375
    4   0.0293154  -0.0470197  -0.0088865  -0.0000000  -0.0023065   0.0118836
    5  -0.0000000  -0.0000000   0.0000000   0.0814845   0.0000000   0.0000000
    6   0.0110349  -0.0111744   0.0044694   0.0000000   0.0015492  -0.0054306
    7  -0.0360755   0.0417679  -0.0201393  -0.0000000  -0.0058501   0.0187748
    8  -0.0496694   0.0439009  -0.0055152  -0.0000000  -0.0050428   0.0198603
    9   0.0048408  -0.0246523  -0.0054466   0.0000000   0.0028685  -0.0097279
   10  -0.0000000   0.0000000   0.0000000  -0.0206786   0.0000000   0.0000000
   11  -0.0067218   0.0074701  -0.0000994   0.0000000  -0.0006684   0.0025009
   12   0.0236453  -0.0297609   0.0012048  -0.0000000   0.0027058  -0.0095176
   13   0.0356751  -0.0374422  -0.0022215   0.0000000   0.0030012  -0.0119293
   14   0.0059285  -0.0070027   0.0014813  -0.0000000   0.0003101  -0.0006687
   15  -0.0000000   0.0000000   0.0000000  -0.0154409  -0.0000000   0.0000000
   16   0.0002218   0.0011107   0.0006832  -0.0000000  -0.0002360   0.0008949
   17  -0.0009760  -0.0045716  -0.0029508   0.0000000   0.0009590  -0.0034784
   18   0.0004262  -0.0046919  -0.0018906  -0.0000000   0.0008798  -0.0035547
   19  -0.0011115  -0.0015131  -0.0014968   0.0000000  -0.0005205   0.0022860
   20   0.0000000   0.0000000  -0.0000000   0.0064679  -0.0000000   0.0000000
   21  -0.0059270   0.0072933   0.0027449   0.0000000   0.0004914  -0.0018836
   22   0.0203535  -0.0286704  -0.0118343  -0.0000000  -0.0016718   0.0061643
   23   0.0315983  -0.0372623  -0.0117924  -0.0000000  -0.0019526   0.0080827
   24   0.0082145  -0.0080750  -0.0009094  -0.0000000  -0.0003038   0.0009586
   25   0.0000000  -0.0000000  -0.0000000  -0.0222695   0.0000000  -0.0000000
   26   0.0090164  -0.0096091  -0.0068465  -0.0000000  -0.0018222   0.0060332
   27  -0.0273581   0.0350302   0.0276788   0.0000000   0.0062151  -0.0205066
   28  -0.0371498   0.0303135   0.0116049   0.0000000   0.0059532  -0.0227418
   29  -0.0257558   0.0345760   0.0210771   0.0000000  -0.0008359   0.0031694
   30  -0.0000000  -0.0000000   0.0000000  -0.0218801  -0.0000000   0.0000000
   31  -0.0298899   0.0292818  -0.0019291   0.0000000  -0.0016375   0.0053398
   32  -0.0137365   0.0185112   0.0037291   0.0000000  -0.0014966   0.0058824
   33  -0.0139324   0.0178908   0.0055590  -0.0000000  -0.0001871   0.0002912
   34  -0.0254787   0.0303065   0.0146459  -0.0000000   0.0038135  -0.0137308
   35  -0.0015572   0.0012880   0.0001048  -0.0000000   0.0000462  -0.0001904
   36   0.0071582  -0.0063209  -0.0006173  -0.0000000  -0.0001855   0.0007618
   37   0.0063209  -0.0043953   0.0001342  -0.0000000  -0.0002994   0.0012600
   38   0.0006173   0.0001342   0.0003269  -0.0000000  -0.0000222  -0.0000110
   39   0.0000000  -0.0000000  -0.0000000   0.0079353   0.0000000  -0.0000000
   40  -0.0001855   0.0002994   0.0000222  -0.0000000  -0.0000869   0.0003631
   41   0.0007618  -0.0012600   0.0000110   0.0000000   0.0003631  -0.0014687
   42   0.0001389  -0.0002933  -0.0000846   0.0000000   0.0002172  -0.0009926
   43   0.0031579  -0.0037502  -0.0007526   0.0000000   0.0001058  -0.0003942
   44   0.0000000  -0.0000000  -0.0000000  -0.0017884  -0.0000000  -0.0000000
   45  -0.0010018   0.0002375  -0.0004049  -0.0000000  -0.0000943   0.0004051
   46  -0.0000228   0.0006859   0.0002970   0.0000000  -0.0002584   0.0010886
   47   0.0000154  -0.0000864  -0.0004740  -0.0000000   0.0000734  -0.0003995
   48  -0.1037106  -0.0000974  -0.0024318  -0.0000000   0.0150630  -0.0386760
   49   0.4189716  -0.0170557   0.0180085   0.0000000  -0.0385679   0.0478594
   50  -0.0170557   0.2990210  -0.0002382   0.0000000  -0.0427489   0.0975442
   51   0.0180085  -0.0002382   0.3094269   0.0000000   0.0460813  -0.1105662
   52   0.0000000   0.0000000   0.0000000   0.3913689  -0.0000000  -0.0000000
   53  -0.0385679  -0.0427489   0.0460813  -0.0000000   1.0336904  -0.1010318
   54   0.0478594   0.0975442  -0.1105662  -0.0000000  -0.1010318   0.4056329
   55  -0.1065305  -0.0954289   0.1190042   0.0000000  -0.0014639   0.0160324
   56   0.1006452   0.1234805  -0.1055503  -0.0000000   0.0016730  -0.0168931
   57   0.0000000   0.0000000  -0.0000000   0.3836000   0.0000000  -0.0000000
   58   0.1429177   0.0682265   0.2654045   0.0000000   0.0146091  -0.0480946
   59  -0.0441735  -0.0544359   0.0143873  -0.0000000  -0.0561142   0.1411161
   60  -0.0404589  -0.0145903   0.0592133  -0.0000000  -0.0562832   0.1407113
           55          56          57          58          59          60
    1  -0.0110863   0.0015046   0.0000000   0.0137150  -0.0111965   0.0081490
    2   0.0461844  -0.0023667  -0.0000000  -0.0558740   0.0469335  -0.0339690
    3   0.0461468  -0.0169980  -0.0000000  -0.0590966   0.0592296  -0.0413549
    4  -0.0008567   0.0055467   0.0000000  -0.0355759   0.0064705  -0.0015129
    5  -0.0000000   0.0000000  -0.0326705  -0.0000000   0.0000000  -0.0000000
    6   0.0049341  -0.0045082  -0.0000000   0.0058514   0.0030400  -0.0006041
    7  -0.0202343   0.0175845  -0.0000000  -0.0218330  -0.0120904   0.0008983
    8  -0.0140685   0.0168865  -0.0000000  -0.0173291  -0.0119115   0.0043415
    9   0.0123312  -0.0085749   0.0000000   0.0066165   0.0121024  -0.0071640
   10  -0.0000000   0.0000000  -0.0920060  -0.0000000   0.0000000  -0.0000000
   11  -0.0021921   0.0015794   0.0000000  -0.0006319  -0.0020946   0.0008800
   12   0.0097954  -0.0060912  -0.0000000   0.0015048   0.0088179  -0.0034935
   13   0.0093634  -0.0087667   0.0000000   0.0015523   0.0103362  -0.0044628
   14   0.0021231  -0.0012682  -0.0000000  -0.0029780   0.0013249   0.0000797
   15  -0.0000000   0.0000000   0.0060541  -0.0000000  -0.0000000  -0.0000000
   16  -0.0005432  -0.0011981   0.0000000   0.0006535  -0.0009752   0.0007242
   17   0.0026806   0.0048926   0.0000000  -0.0032820   0.0042534  -0.0037415
   18   0.0015824   0.0039885   0.0000000  -0.0020024   0.0032129  -0.0010763
   19  -0.0003253  -0.0046590  -0.0000000   0.0027095  -0.0008510   0.0001838
   20   0.0000000  -0.0000000   0.0731617   0.0000000  -0.0000000  -0.0000000
   21   0.0008970   0.0019096   0.0000000   0.0033324  -0.0000958   0.0000917
   22  -0.0028270  -0.0076456  -0.0000000  -0.0136343   0.0008285   0.0000511
   23  -0.0026417  -0.0103863  -0.0000000  -0.0152538   0.0012854  -0.0032308
   24  -0.0022014   0.0004355  -0.0000000  -0.0046506  -0.0000804   0.0013455
   25   0.0000000  -0.0000000   0.0049131   0.0000000  -0.0000000   0.0000000
   26  -0.0048488  -0.0036868   0.0000000  -0.0074503  -0.0022189   0.0036853
   27   0.0185452   0.0149003   0.0000000   0.0282230   0.0084736  -0.0127588
   28   0.0140156   0.0189877  -0.0000000   0.0140506   0.0090775  -0.0069524
   29   0.0004948  -0.0258216  -0.0000000   0.0385198  -0.0124414   0.0187671
   30   0.0000000   0.0000000  -0.0874388   0.0000000  -0.0000000   0.0000000
   31  -0.0064687   0.0010260   0.0000000   0.0090430  -0.0060463   0.0026925
   32  -0.0055014   0.0052100   0.0000000  -0.0019351  -0.0063854   0.0036707
   33  -0.0004523  -0.0037848  -0.0000000   0.0120705  -0.0040366   0.0044018
   34  -0.0025693   0.0170440  -0.0000000   0.0065633  -0.0030468   0.0043331
   35   0.0000377   0.0006895  -0.0000000   0.0002132   0.0000285   0.0000179
   36  -0.0001389  -0.0031579  -0.0000000  -0.0010018  -0.0000228   0.0000154
   37  -0.0002933  -0.0037502  -0.0000000  -0.0002375  -0.0006859   0.0000864
   38  -0.0000846  -0.0007526  -0.0000000   0.0004049  -0.0002970   0.0004740
   39   0.0000000  -0.0000000  -0.0017884   0.0000000  -0.0000000  -0.0000000
   40  -0.0002172  -0.0001058  -0.0000000  -0.0000943  -0.0002584   0.0000734
   41   0.0009926   0.0003942   0.0000000   0.0004051   0.0010886  -0.0003995
   42   0.0003296   0.0005746   0.0000000   0.0002552   0.0005725   0.0000468
   43   0.0005746  -0.0014778   0.0000000   0.0000239   0.0007738  -0.0004973
   44   0.0000000   0.0000000  -0.0377793  -0.0000000  -0.0000000   0.0000000
   45  -0.0002552  -0.0000239  -0.0000000   0.0002166  -0.0001021   0.0000028
   46  -0.0005725  -0.0007738  -0.0000000  -0.0001021  -0.0008786   0.0003123
   47  -0.0000468   0.0004973  -0.0000000   0.0000028   0.0003123  -0.0002384
   48   0.0448684  -0.0435519  -0.0000000  -0.0570274   0.0142089   0.0125023
   49  -0.1065305   0.1006452   0.0000000   0.1429177  -0.0441735  -0.0404589
   50  -0.0954289   0.1234805   0.0000000   0.0682265  -0.0544359  -0.0145903
   51   0.1190042  -0.1055503  -0.0000000   0.2654045   0.0143873   0.0592133
   52   0.0000000  -0.0000000   0.3836000   0.0000000  -0.0000000  -0.0000000
   53  -0.0014639   0.0016730   0.0000000   0.0146091  -0.0561142  -0.0562832
   54   0.0160324  -0.0168931  -0.0000000  -0.0480946   0.1411161   0.1407113
   55   0.3099484   0.0063018   0.0000000   0.0132857   0.2680683  -0.0742249
   56   0.0063018   0.3107315  -0.0000000  -0.0602543   0.0665409  -0.2659844
   57   0.0000000  -0.0000000   0.4120348   0.0000000   0.0000000  -0.0000000
   58   0.0132857  -0.0602543   0.0000000   0.2941528  -0.0456237   0.0706941
   59   0.2680683   0.0665409   0.0000000  -0.0456237   0.2929786  -0.0802421
   60  -0.0742249  -0.2659844  -0.0000000   0.0706941  -0.0802421   0.2945314
 SCF   energy in the final basis set = -382.3003975802
 Total energy in the final basis set = -382.3003975802
 Analysis of SCF Wavefunction
 
 --------------------------------------------------------------
             Orbital Energies (a.u.) and Symmetries
 --------------------------------------------------------------
 
 Alpha MOs, Restricted
 -- Occupied --                  
-10.018 -10.018 -10.008 -10.008 -10.007 -10.007 -10.006 -10.005
  1 Bu    1 Ag    2 Ag    2 Bu    3 Bu    3 Ag    4 Bu    4 Ag                 
 -9.992  -9.992  -0.818  -0.755  -0.721  -0.704  -0.670  -0.585
  5 Ag    5 Bu    6 Ag    6 Bu    7 Ag    7 Bu    8 Bu    8 Ag                 
 -0.561  -0.532  -0.512  -0.462  -0.439  -0.410  -0.400  -0.397
  9 Ag    9 Bu   10 Ag   11 Ag   10 Bu   11 Bu   12 Bu   12 Ag                 
 -0.376  -0.358  -0.349  -0.330  -0.305  -0.295  -0.281  -0.263
 13 Bu   14 Bu   13 Ag    1 Au   15 Bu   14 Ag   15 Ag    1 Bg                 
 -0.216  -0.198  -0.160
  2 Au    2 Bg    3 Bg                                                         
 -- Virtual --                   
  0.050   0.091   0.116   0.181   0.280   0.319   0.330   0.365
  3 Au    4 Au    4 Bg    5 Au    5 Bg   16 Ag   16 Bu   17 Bu                 
  0.370   0.413   0.416   0.422   0.446   0.469   0.496   0.539
 17 Ag   18 Bu   18 Ag   19 Bu   19 Ag   20 Bu   20 Ag   21 Ag                 
  0.571   0.587   0.610   0.627   0.646   0.693   0.743   0.806
 21 Bu   22 Ag   22 Bu   23 Bu   23 Ag   24 Ag   24 Bu   25 Ag                 
  0.816
 25 Bu                                                                         
 
 Beta MOs, Restricted
 -- Occupied --                  
-10.018 -10.018 -10.008 -10.008 -10.007 -10.007 -10.006 -10.005
  1 Bu    1 Ag    2 Ag    2 Bu    3 Bu    3 Ag    4 Bu    4 Ag                 
 -9.992  -9.992  -0.818  -0.755  -0.721  -0.704  -0.670  -0.585
  5 Ag    5 Bu    6 Ag    6 Bu    7 Ag    7 Bu    8 Bu    8 Ag                 
 -0.561  -0.532  -0.512  -0.462  -0.439  -0.410  -0.400  -0.397
  9 Ag    9 Bu   10 Ag   11 Ag   10 Bu   11 Bu   12 Bu   12 Ag                 
 -0.376  -0.358  -0.349  -0.330  -0.305  -0.295  -0.281  -0.263
 13 Bu   14 Bu   13 Ag    1 Au   15 Bu   14 Ag   15 Ag    1 Bg                 
 -0.216  -0.198  -0.160
  2 Au    2 Bg    3 Bg                                                         
 -- Virtual --                   
  0.050   0.091   0.116   0.181   0.280   0.319   0.330   0.365
  3 Au    4 Au    4 Bg    5 Au    5 Bg   16 Ag   16 Bu   17 Bu                 
  0.370   0.413   0.416   0.422   0.446   0.469   0.496   0.539
 17 Ag   18 Bu   18 Ag   19 Bu   19 Ag   20 Bu   20 Ag   21 Ag                 
  0.571   0.587   0.610   0.627   0.646   0.693   0.743   0.806
 21 Bu   22 Ag   22 Bu   23 Bu   23 Ag   24 Ag   24 Bu   25 Ag                 
  0.816
 25 Bu                                                                         
 --------------------------------------------------------------
 
          Ground-State Mulliken Net Atomic Charges

     Atom                 Charge (a.u.)
  ----------------------------------------
      1 C                    -0.004106
      2 C                    -0.079219
      3 C                    -0.077211
      4 C                    -0.004106
      5 C                    -0.079219
      6 C                    -0.077211
      7 H                     0.078751
      8 H                     0.079710
      9 H                     0.078751
     10 H                     0.079710
     11 C                    -0.075268
     12 C                    -0.156370
     13 H                     0.078810
     14 H                     0.078360
     15 H                     0.076543
     16 C                    -0.075268
     17 C                    -0.156370
     18 H                     0.078810
     19 H                     0.078360
     20 H                     0.076543
  ----------------------------------------
  Sum of atomic charges =     0.000000

 -----------------------------------------------------------------
                    Cartesian Multipole Moments
 -----------------------------------------------------------------
    Charge (ESU x 10^10)
                 0.0000
    Dipole Moment (Debye)
         X       0.0000      Y       0.0000      Z       0.0000
       Tot       0.0000
    Quadrupole Moments (Debye-Ang)
        XX     -50.9653     XY      -0.1101     YY     -50.1438
        XZ       0.0000     YZ       0.0000     ZZ     -58.5742
    Octopole Moments (Debye-Ang^2)
       XXX       0.0000    XXY       0.0000    XYY       0.0000
       YYY       0.0000    XXZ       0.0000    XYZ       0.0000
       YYZ       0.0000    XZZ       0.0000    YZZ       0.0000
       ZZZ       0.0000
    Hexadecapole Moments (Debye-Ang^3)
      XXXX   -1811.1783   XXXY       0.5006   XXYY    -358.4279
      XYYY       3.4707   YYYY    -329.5839   XXXZ       0.0000
      XXYZ       0.0000   XYYZ       0.0000   YYYZ       0.0000
      XXZZ    -356.7122   XYZZ      -0.0669   YYZZ     -72.1348
      XZZZ       0.0000   YZZZ       0.0000   ZZZZ     -47.5456
 -----------------------------------------------------------------
Archival summary:
1\1\copper\SP\ProcedureUnspecified\STO-3G\1010\eric\ThuSep410:47:282014ThuSep410:47:282014\0\\#,ProcedureUnspecified,STO-3G,\\0,1\C\C,1,1.3949\H,2,1.09968,1,119.988\C,2,1.39471,1,119.999,3,180,0\H,4,1.09966,2,120.011,1,-180,0\C,4,1.39516,2,120.009,1,0,0\C,6,1.3949,4,119.992,2,0,0\H,7,1.09968,6,119.988,4,-180,0\C,7,1.39471,6,119.999,4,0,0\H,9,1.09966,7,120.011,6,180,0\C,1,1.54016,2,120.005,3,0,0\H,11,1.09826,1,114.585,2,-180,0\C,11,1.32592,1,122.697,2,0,0\H,13,1.09826,11,122.718,1,0,0\H,13,1.09827,11,122.716,1,-180,0\C,6,1.54016,4,120.002,2,180,0\H,16,1.09826,6,114.585,4,0,0\C,16,1.32592,6,122.697,4,-180,0\H,18,1.09826,16,122.718,6,0,0\H,18,1.09827,16,122.716,6,180,0\\\@

 Total job time:  1.13s(wall), 2.15s(cpu) 
 Thu Sep  4 10:47:28 2014

        *************************************************************
        *                                                           *
        *  Thank you very much for using Q-Chem.  Have a nice day.  *
        *                                                           *
        *************************************************************


