                  Welcome to Q-Chem
     A Quantum Leap Into The Future Of Chemistry


 Q-Chem 4.2, Q-Chem, Inc., Pleasanton, CA (2014).

 Y. Shao,  Z. Gan,  E. Epifanovsky,  A. T. B. Gilbert,  M. Wormit,  
 J. Kussmann,  A. W. Lange,  A. Behn,  J. Deng,  X. Feng,  D. Ghosh,  
 M. Goldey,  P. R. Horn,  L. D. Jacobson,  I. Kaliman,  R. Z. Khaliullin,  
 T. Kus,  A. Landau,  J. Liu,  E. I. Proynov,  Y. M. Rhee,  R. M. Richard,  
 M. A. Rohrdanz,  R. P. Steele,  E. J. Sundstrom,  H. L. Woodcock III,  
 P. M. Zimmerman,  D. Zuev,  B. Albrecht,  E. Alguire,  B. Austin,  
 G. J. O. Beran,  Y. A. Bernard,  E. Berquist,  K. Brandhorst,  
 K. B. Bravaya,  S. T. Brown,  D. Casanova,  C.-M. Chang,  Y. Chen,  
 S. H. Chien,  K. D. Closser,  D. L. Crittenden,  M. Diedenhofen,  
 R. A. DiStasio Jr.,  H. Do,  A. D. Dutoi,  R. G. Edgar,  S. Fatehi,  
 L. Fusti-Molnar,  A. Ghysels,  A. Golubeva-Zadorozhnaya,  J. Gomes,  
 M. W. D. Hanson-Heine,  P. H. P. Harbach,  A. W. Hauser,  E. G. Hohenstein,  
 Z. C. Holden,  T.-C. Jagau,  H. Ji,  B. Kaduk,  K. Khistyaev,  Jaehoon Kim,  
 Jihan Kim,  R. A. King,  P. Klunzinger,  D. Kosenkov,  T. Kowalczyk,  
 C. M. Krauter,  K. U. Lao,  A. Laurent,  K. V. Lawler,  S. V. Levchenko,  
 C. Y. Lin,  F. Liu,  E. Livshits,  R. C. Lochan,  A. Luenser,  P. Manohar,  
 S. F. Manzer,  S.-P. Mao,  N. Mardirossian,  A. V. Marenich,  S. A. Maurer,  
 N. J. Mayhall,  C. M. Oana,  R. Olivares-Amaya,  D. P. O'Neill,  
 J. A. Parkhill,  T. M. Perrine,  R. Peverati,  P. A. Pieniazek,  A. Prociuk,  
 D. R. Rehn,  E. Rosta,  N. J. Russ,  N. Sergueev,  S. M. Sharada,  
 S. Sharma,  D. W. Small,  A. Sodt,  T. Stein,  D. Stuck,  Y.-C. Su,  
 A. J. W. Thom,  T. Tsuchimochi,  L. Vogt,  O. Vydrov,  T. Wang,  
 M. A. Watson,  J. Wenzel,  A. White,  C. F. Williams,  V. Vanovschi,  
 S. Yeganeh,  S. R. Yost,  Z.-Q. You,  I. Y. Zhang,  X. Zhang,  Y. Zhao,  
 B. R. Brooks,  G. K. L. Chan,  D. M. Chipman,  C. J. Cramer,  
 W. A. Goddard III,  M. S. Gordon,  W. J. Hehre,  A. Klamt,  
 H. F. Schaefer III,  M. W. Schmidt,  C. D. Sherrill,  D. G. Truhlar,  
 A. Warshel,  X. Xu,  A. Aspuru-Guzik,  R. Baer,  A. T. Bell,  N. A. Besley,  
 J.-D. Chai,  A. Dreuw,  B. D. Dunietz,  T. R. Furlani,  S. R. Gwaltney,  
 C.-P. Hsu,  Y. Jung,  J. Kong,  D. S. Lambrecht,  W. Liang,  C. Ochsenfeld,  
 V. A. Rassolov,  L. V. Slipchenko,  J. E. Subotnik,  T. Van Voorhis,  
 J. M. Herbert,  A. I. Krylov,  P. M. W. Gill,  M. Head-Gordon

 Contributors to earlier versions of Q-Chem not listed above: 
 R. D. Adamson,  J. Baker,  E. F. C. Byrd,  A. K. Chakraborty,  C.-L. Cheng,  
 H. Dachsel,  R. J. Doerksen,  G. Hawkins,  A. Heyden,  S. Hirata,  
 G. Kedziora,  F. J. Keil,  C. Kelley,  P. P. Korambath,  W. Kurlancheek,  
 A. M. Lee,  M. S. Lee,  D. Liotard,  I. Lotan,  P. E. Maslen,  N. Nair,  
 D. Neuhauser,  R. Olson,  B. Peters,  J. Ritchie,  N. E. Schultz,  
 N. Shenvi,  A. C. Simmonett,  K. S. Thanthiriwatte,  Q. Wu,  W. Zhang

 Q-Chem 4.2.0 for Intel X86 EM64T Linux

 Parts of Q-Chem use Armadillo 4.100.2 (Dirt Cruiser).
 http://arma.sourceforge.net/

 Q-Chem begins on Tue Oct 31 20:40:36 2017  

Host: copper
0

     Scratch files written to /tmp/qchem/qchem32558//
 Apr3014 |home|eric|opt|apps|qchem|trunk_intel_release|libmdc|qstr_info.C -1
Checking the input file for consistency...	...done.

--------------------------------------------------------------
User input:
--------------------------------------------------------------
$comment
 MoOCl4, single point, with pseudopotentials, RB3LYP/{LanL2MB/6-31G(d)}
$end

$rem
 method = b3lyp
 basis = gen
 ecp = gen
 unrestricted = false
 scf_guess = gwh
 scf_algorithm = rca_diis
 scf_convergence = 9
 thresh = 14
 max_scf_cycles = 200
 print_general_basis = true
$end

$molecule
 -2 1
Mo     0.000325    -0.000325     0.051810
 O     0.000206    -0.000206     1.741504
Cl     1.711727    -1.711727    -0.659846
Cl    -1.710992    -1.711738    -0.660079
Cl    -1.711004     1.711004    -0.660311
Cl     1.711738     1.710992    -0.660079
$end

$basis
 O
 6-31g(d)
 ****
 Mo
 lanl2dz
 ****
 Cl
 6-31g(d)
 ****
$end

$ecp
 Mo
 lanl2dz
 ****
$end
--------------------------------------------------------------
 ----------------------------------------------------------------
             Standard Nuclear Orientation (Angstroms)
    I     Atom           X                Y                Z
 ----------------------------------------------------------------
    1      Mo     -0.0000056728     0.2956854500    -0.0000000000
    2      O      -0.0000013631     1.9853794584    -0.0000000000
    3      Cl     -2.4202245156    -0.4162054311    -0.0000000007
    4      Cl     -0.0000044669    -0.4162035532    -2.4202355932
    5      Cl      2.4202481073    -0.4162006722     0.0000000007
    6      Cl     -0.0000044682    -0.4162035532     2.4202355932
 ----------------------------------------------------------------
 Molecular Point Group                 Cs    NOp =  2
 Largest Abelian Subgroup              Cs    NOp =  2
 Nuclear Repulsion Energy =   561.1137731965 hartrees
 There are       46 alpha and       46 beta electrons

 Q-Chem warning in module /home/eric/opt/apps/qchem/trunk_intel_release/forms1/BasisType.C, line 1209:

 Setting pure/cartesian flag to 2111 for general basis


 Requested basis set is non-standard
Basis set in general basis input format:
-----------------------------------------------------------------------
$basis
Mo   0
S    3    1.000000
   2.36100000E+00   -9.12176000E-01 
   1.30900000E+00    1.14774530E+00 
   4.50000000E-01    6.09710900E-01 
S    4    1.000000
   2.36100000E+00    8.13925900E-01 
   1.30900000E+00   -1.13600840E+00 
   4.50000000E-01   -1.16115920E+00 
   1.68100000E-01    1.00647860E+00 
S    1    1.000000
   4.23000000E-02    1.00000000E+00 
P    3    1.000000
   4.89500000E+00   -9.08258000E-02 
   1.04400000E+00    7.04289900E-01 
   3.87700000E-01    3.97317900E-01 
P    2    1.000000
   4.99500000E-01   -1.08194500E-01 
   7.80000000E-02    1.03680930E+00 
P    1    1.000000
   2.47000000E-02    1.00000000E+00 
D    3    1.000000
   2.99300000E+00    5.27063000E-02 
   1.06300000E+00    5.00390700E-01 
   3.72100000E-01    5.79402400E-01 
D    1    1.000000
   1.17800000E-01    1.00000000E+00 
****
O    0
S    6    1.000000
   5.48467170E+03    1.83110000E-03 
   8.25234950E+02    1.39501000E-02 
   1.88046960E+02    6.84451000E-02 
   5.29645000E+01    2.32714300E-01 
   1.68975700E+01    4.70193000E-01 
   5.79963530E+00    3.58520900E-01 
SP   3    1.000000
   1.55396160E+01   -1.10777500E-01   7.08743000E-02 
   3.59993360E+00   -1.48026300E-01   3.39752800E-01 
   1.01376180E+00    1.13076700E+00   7.27158600E-01 
SP   1    1.000000
   2.70005800E-01    1.00000000E+00   1.00000000E+00 
D    1    1.000000
   8.00000000E-01    1.00000000E+00 
****
Cl   0
S    6    1.000000
   2.51801000E+04    1.83300000E-03 
   3.78035000E+03    1.40340000E-02 
   8.60474000E+02    6.90970000E-02 
   2.42145000E+02    2.37452000E-01 
   7.73349000E+01    4.83034000E-01 
   2.62470000E+01    3.39856000E-01 
SP   6    1.000000
   4.91765000E+02   -2.29740000E-03   3.98940000E-03 
   1.16984000E+02   -3.07140000E-02   3.03180000E-02 
   3.74153000E+01   -1.12528000E-01   1.29880000E-01 
   1.37834000E+01    4.50160000E-02   3.27951000E-01 
   5.45215000E+00    5.89353000E-01   4.53527000E-01 
   2.22588000E+00    4.65206000E-01   2.52154000E-01 
SP   3    1.000000
   3.18649000E+00   -2.51830000E-01  -1.42990000E-02 
   1.14427000E+00    6.15890000E-02   3.23572000E-01 
   4.20377000E-01    1.06018000E+00   7.43507000E-01 
SP   1    1.000000
   1.42657000E-01    1.00000000E+00   1.00000000E+00 
D    1    1.000000
   7.50000000E-01    1.00000000E+00 
****
Cl   0
S    6    1.000000
   2.51801000E+04    1.83300000E-03 
   3.78035000E+03    1.40340000E-02 
   8.60474000E+02    6.90970000E-02 
   2.42145000E+02    2.37452000E-01 
   7.73349000E+01    4.83034000E-01 
   2.62470000E+01    3.39856000E-01 
SP   6    1.000000
   4.91765000E+02   -2.29740000E-03   3.98940000E-03 
   1.16984000E+02   -3.07140000E-02   3.03180000E-02 
   3.74153000E+01   -1.12528000E-01   1.29880000E-01 
   1.37834000E+01    4.50160000E-02   3.27951000E-01 
   5.45215000E+00    5.89353000E-01   4.53527000E-01 
   2.22588000E+00    4.65206000E-01   2.52154000E-01 
SP   3    1.000000
   3.18649000E+00   -2.51830000E-01  -1.42990000E-02 
   1.14427000E+00    6.15890000E-02   3.23572000E-01 
   4.20377000E-01    1.06018000E+00   7.43507000E-01 
SP   1    1.000000
   1.42657000E-01    1.00000000E+00   1.00000000E+00 
D    1    1.000000
   7.50000000E-01    1.00000000E+00 
****
Cl   0
S    6    1.000000
   2.51801000E+04    1.83300000E-03 
   3.78035000E+03    1.40340000E-02 
   8.60474000E+02    6.90970000E-02 
   2.42145000E+02    2.37452000E-01 
   7.73349000E+01    4.83034000E-01 
   2.62470000E+01    3.39856000E-01 
SP   6    1.000000
   4.91765000E+02   -2.29740000E-03   3.98940000E-03 
   1.16984000E+02   -3.07140000E-02   3.03180000E-02 
   3.74153000E+01   -1.12528000E-01   1.29880000E-01 
   1.37834000E+01    4.50160000E-02   3.27951000E-01 
   5.45215000E+00    5.89353000E-01   4.53527000E-01 
   2.22588000E+00    4.65206000E-01   2.52154000E-01 
SP   3    1.000000
   3.18649000E+00   -2.51830000E-01  -1.42990000E-02 
   1.14427000E+00    6.15890000E-02   3.23572000E-01 
   4.20377000E-01    1.06018000E+00   7.43507000E-01 
SP   1    1.000000
   1.42657000E-01    1.00000000E+00   1.00000000E+00 
D    1    1.000000
   7.50000000E-01    1.00000000E+00 
****
Cl   0
S    6    1.000000
   2.51801000E+04    1.83300000E-03 
   3.78035000E+03    1.40340000E-02 
   8.60474000E+02    6.90970000E-02 
   2.42145000E+02    2.37452000E-01 
   7.73349000E+01    4.83034000E-01 
   2.62470000E+01    3.39856000E-01 
SP   6    1.000000
   4.91765000E+02   -2.29740000E-03   3.98940000E-03 
   1.16984000E+02   -3.07140000E-02   3.03180000E-02 
   3.74153000E+01   -1.12528000E-01   1.29880000E-01 
   1.37834000E+01    4.50160000E-02   3.27951000E-01 
   5.45215000E+00    5.89353000E-01   4.53527000E-01 
   2.22588000E+00    4.65206000E-01   2.52154000E-01 
SP   3    1.000000
   3.18649000E+00   -2.51830000E-01  -1.42990000E-02 
   1.14427000E+00    6.15890000E-02   3.23572000E-01 
   4.20377000E-01    1.06018000E+00   7.43507000E-01 
SP   1    1.000000
   1.42657000E-01    1.00000000E+00   1.00000000E+00 
D    1    1.000000
   7.50000000E-01    1.00000000E+00 
****
$end
-----------------------------------------------------------------------
 There are 32 shells and 108 basis functions

Total QAlloc Memory Limit   2000 MB
Mega-Array Size        61 MB
MEM_STATIC part        62 MB

                       Distance Matrix (Angstroms)
             Mo(  1)   O (  2)   Cl(  3)   Cl(  4)   Cl(  5)
   O (  2)  1.689694
   Cl(  3)  2.522746  3.409559
   Cl(  4)  2.522762  3.409566  3.422719
   Cl(  5)  2.522778  3.409574  4.840473  3.422742
   Cl(  6)  2.522762  3.409566  3.422719  4.840471  3.422742
 
 A cutoff of  1.0D-14 yielded    480 shell pairs
 There are      5747 function pairs (      6546 Cartesian)
JobNum = 11
 Requested basis set is non-standard
 Compound shells will be simplified
Basis set in general basis input format:
-----------------------------------------------------------------------
$basis
Mo   0
S    3    1.000000
   2.36100000E+00   -9.12176000E-01 
   1.30900000E+00    1.14774530E+00 
   4.50000000E-01    6.09710900E-01 
S    4    1.000000
   2.36100000E+00    8.13925900E-01 
   1.30900000E+00   -1.13600840E+00 
   4.50000000E-01   -1.16115920E+00 
   1.68100000E-01    1.00647860E+00 
S    1    1.000000
   4.23000000E-02    1.00000000E+00 
P    3    1.000000
   4.89500000E+00   -9.08258000E-02 
   1.04400000E+00    7.04289900E-01 
   3.87700000E-01    3.97317900E-01 
P    2    1.000000
   4.99500000E-01   -1.08194500E-01 
   7.80000000E-02    1.03680930E+00 
P    1    1.000000
   2.47000000E-02    1.00000000E+00 
D    3    1.000000
   2.99300000E+00    5.27063000E-02 
   1.06300000E+00    5.00390700E-01 
   3.72100000E-01    5.79402400E-01 
D    1    1.000000
   1.17800000E-01    1.00000000E+00 
****
O    0
S    6    1.000000
   5.48467170E+03    1.83110000E-03 
   8.25234950E+02    1.39501000E-02 
   1.88046960E+02    6.84451000E-02 
   5.29645000E+01    2.32714300E-01 
   1.68975700E+01    4.70193000E-01 
   5.79963530E+00    3.58520900E-01 
SP   3    1.000000
   1.55396160E+01   -1.10777500E-01   7.08743000E-02 
   3.59993360E+00   -1.48026300E-01   3.39752800E-01 
   1.01376180E+00    1.13076700E+00   7.27158600E-01 
SP   1    1.000000
   2.70005800E-01    1.00000000E+00   1.00000000E+00 
D    1    1.000000
   8.00000000E-01    1.00000000E+00 
****
Cl   0
S    6    1.000000
   2.51801000E+04    1.83300000E-03 
   3.78035000E+03    1.40340000E-02 
   8.60474000E+02    6.90970000E-02 
   2.42145000E+02    2.37452000E-01 
   7.73349000E+01    4.83034000E-01 
   2.62470000E+01    3.39856000E-01 
SP   6    1.000000
   4.91765000E+02   -2.29740000E-03   3.98940000E-03 
   1.16984000E+02   -3.07140000E-02   3.03180000E-02 
   3.74153000E+01   -1.12528000E-01   1.29880000E-01 
   1.37834000E+01    4.50160000E-02   3.27951000E-01 
   5.45215000E+00    5.89353000E-01   4.53527000E-01 
   2.22588000E+00    4.65206000E-01   2.52154000E-01 
SP   3    1.000000
   3.18649000E+00   -2.51830000E-01  -1.42990000E-02 
   1.14427000E+00    6.15890000E-02   3.23572000E-01 
   4.20377000E-01    1.06018000E+00   7.43507000E-01 
SP   1    1.000000
   1.42657000E-01    1.00000000E+00   1.00000000E+00 
D    1    1.000000
   7.50000000E-01    1.00000000E+00 
****
Cl   0
S    6    1.000000
   2.51801000E+04    1.83300000E-03 
   3.78035000E+03    1.40340000E-02 
   8.60474000E+02    6.90970000E-02 
   2.42145000E+02    2.37452000E-01 
   7.73349000E+01    4.83034000E-01 
   2.62470000E+01    3.39856000E-01 
SP   6    1.000000
   4.91765000E+02   -2.29740000E-03   3.98940000E-03 
   1.16984000E+02   -3.07140000E-02   3.03180000E-02 
   3.74153000E+01   -1.12528000E-01   1.29880000E-01 
   1.37834000E+01    4.50160000E-02   3.27951000E-01 
   5.45215000E+00    5.89353000E-01   4.53527000E-01 
   2.22588000E+00    4.65206000E-01   2.52154000E-01 
SP   3    1.000000
   3.18649000E+00   -2.51830000E-01  -1.42990000E-02 
   1.14427000E+00    6.15890000E-02   3.23572000E-01 
   4.20377000E-01    1.06018000E+00   7.43507000E-01 
SP   1    1.000000
   1.42657000E-01    1.00000000E+00   1.00000000E+00 
D    1    1.000000
   7.50000000E-01    1.00000000E+00 
****
Cl   0
S    6    1.000000
   2.51801000E+04    1.83300000E-03 
   3.78035000E+03    1.40340000E-02 
   8.60474000E+02    6.90970000E-02 
   2.42145000E+02    2.37452000E-01 
   7.73349000E+01    4.83034000E-01 
   2.62470000E+01    3.39856000E-01 
SP   6    1.000000
   4.91765000E+02   -2.29740000E-03   3.98940000E-03 
   1.16984000E+02   -3.07140000E-02   3.03180000E-02 
   3.74153000E+01   -1.12528000E-01   1.29880000E-01 
   1.37834000E+01    4.50160000E-02   3.27951000E-01 
   5.45215000E+00    5.89353000E-01   4.53527000E-01 
   2.22588000E+00    4.65206000E-01   2.52154000E-01 
SP   3    1.000000
   3.18649000E+00   -2.51830000E-01  -1.42990000E-02 
   1.14427000E+00    6.15890000E-02   3.23572000E-01 
   4.20377000E-01    1.06018000E+00   7.43507000E-01 
SP   1    1.000000
   1.42657000E-01    1.00000000E+00   1.00000000E+00 
D    1    1.000000
   7.50000000E-01    1.00000000E+00 
****
Cl   0
S    6    1.000000
   2.51801000E+04    1.83300000E-03 
   3.78035000E+03    1.40340000E-02 
   8.60474000E+02    6.90970000E-02 
   2.42145000E+02    2.37452000E-01 
   7.73349000E+01    4.83034000E-01 
   2.62470000E+01    3.39856000E-01 
SP   6    1.000000
   4.91765000E+02   -2.29740000E-03   3.98940000E-03 
   1.16984000E+02   -3.07140000E-02   3.03180000E-02 
   3.74153000E+01   -1.12528000E-01   1.29880000E-01 
   1.37834000E+01    4.50160000E-02   3.27951000E-01 
   5.45215000E+00    5.89353000E-01   4.53527000E-01 
   2.22588000E+00    4.65206000E-01   2.52154000E-01 
SP   3    1.000000
   3.18649000E+00   -2.51830000E-01  -1.42990000E-02 
   1.14427000E+00    6.15890000E-02   3.23572000E-01 
   4.20377000E-01    1.06018000E+00   7.43507000E-01 
SP   1    1.000000
   1.42657000E-01    1.00000000E+00   1.00000000E+00 
D    1    1.000000
   7.50000000E-01    1.00000000E+00 
****
$end
-----------------------------------------------------------------------
 There are 46 shells and 108 basis functions
 A cutoff of  1.0D-14 yielded    987 shell pairs
 There are      5705 function pairs (      6504 Cartesian)
 Smallest overlap matrix eigenvalue = 1.30E-02

  Scale SEOQF with 1.000000e-01/1.000000e-01/1.000000e-01

 Standard Electronic Orientation quadrupole field applied
 Nucleus-field energy     =    -0.0000000110 hartrees
 Constructing guess Fock matrix from core Hamiltonian
 Applying Wolfsberg-Helmholtz approximation
 A restricted hybrid HF-DFT SCF calculation will be
 performed using Relaxed Constraint Minimization + Pulay DIIS
 Exchange:     0.2000 Hartree-Fock + 0.0800 Slater + 0.7200 Becke88
 Correlation:  0.8100 LYP + 0.1900 VWN1RPA
 Using SG-1 standard quadrature grid
 SCF converges when DIIS error is below 1.0E-09
 ---------------------------------------
  Cycle       Energy         DIIS Error
 ---------------------------------------
    1   -1970.5423220670      1.89E-01
    2   -1975.1717651778      9.67E-02
    3   -1977.6008398640      5.83E-02
    4   -1979.5085229358      3.29E-02
    5   -1980.2867554886      2.37E-02
    6   -1981.8474067392      1.94E-02
    7   -1982.3884955940      8.34E-03
    8   -1982.6079100537      5.87E-03
    9   -1983.4369320792      1.61E-02
   10   -1983.5420468821      7.31E-03
   11   -1983.5789273335      2.31E-03
   12   -1983.7599872528      2.66E-03
   13   -1983.7630007581      1.38E-03
   14   -1983.7661103285      8.95E-04 Done RCA. Switching to DIIS
   15   -1983.7611286845      3.04E-03
   16   -1983.7720655699      3.38E-04
   17   -1983.7721688221      2.04E-04
   18   -1983.7722220791      4.81E-05
   19   -1983.7722237798      4.38E-05
   20   -1983.7722259768      1.19E-05
   21   -1983.7722261680      4.84E-06
   22   -1983.7722261842      2.74E-06
   23   -1983.7722261937      1.62E-07
   24   -1983.7722261932      6.38E-07
   25   -1983.7722261937      3.22E-08
   26   -1983.7722261937      1.37E-08
   27   -1983.7722261937      2.72E-09
   28   -1983.7722261937      8.73E-10 Convergence criterion met
 ---------------------------------------
 SCF time:  CPU 26.89 s  wall 26.89 s
 SCF   energy in the final basis set = -1983.7722261937
 Total energy in the final basis set = -1983.7722261937
 Analysis of SCF Wavefunction
 
 --------------------------------------------------------------
             Orbital Energies (a.u.) and Symmetries
 --------------------------------------------------------------
 
 Alpha MOs, Restricted
 -- Occupied --                  
-101.18 -101.18 -101.18 -101.18  -18.89   -9.11   -9.11   -9.11
  1 A'    1 A"    2 A'    3 A'    4 A'    2 A"    5 A'    6 A'                 
 -9.106  -6.866  -6.866  -6.866  -6.866  -6.862  -6.862  -6.862
  7 A'    8 A'    3 A"    9 A'   10 A'   11 A'   12 A'    4 A"                 
 -6.862  -6.861  -6.861  -6.861  -6.861  -2.227  -1.292  -1.229
 13 A'    5 A"   14 A'    6 A"    7 A"   15 A'   16 A'    8 A"                 
 -1.229  -0.626  -0.462  -0.452  -0.452  -0.450  -0.110  -0.089
 17 A'   18 A'   19 A'    9 A"   20 A'   21 A'   22 A'   10 A"                 
 -0.089  -0.051  -0.037  -0.028  -0.021  -0.021  -0.004   0.012
 23 A'   24 A'   25 A'   11 A"   12 A"   26 A'   27 A'   13 A"                 
  0.012   0.021   0.024   0.024   0.042   0.114
 28 A'   29 A'   30 A'   14 A"   15 A"   16 A"                                 
 -- Virtual --                   
  0.230   0.230   0.256   0.260   0.272   0.273   0.273   0.327
 17 A"   31 A'   32 A'   33 A'   34 A'   18 A"   35 A'   36 A'                 
  0.488   0.509   0.509   0.623   0.643   0.649   0.649   0.649
 37 A'   19 A"   38 A'   39 A'   40 A'   20 A"   21 A"   41 A'                 
  0.728   0.759   0.759   0.771   0.807   0.807   0.810   0.813
 22 A"   23 A"   42 A'   43 A'   24 A"   44 A'   45 A'   46 A'                 
  0.834   0.837   0.837   0.897   0.925   1.012   1.012   1.014
 47 A'   25 A"   48 A'   26 A"   49 A'   27 A"   50 A'   51 A'                 
  1.205   1.205   1.206   1.210   1.214   1.214   1.215   1.216
 52 A'   28 A"   53 A'   54 A'   55 A'   29 A"   30 A"   31 A"                 
  1.223   1.223   1.230   1.237   1.237   1.237   1.249   1.280
 32 A"   56 A'   33 A"   57 A'   34 A"   58 A'   59 A'   60 A'                 
  1.346   1.355   1.407   1.450   1.450   1.487   1.487   1.737
 61 A'   35 A"   62 A'   36 A"   63 A'   37 A"   64 A'   65 A'                 
  2.086   2.097   2.097   2.168   2.254   6.010
 38 A"   39 A"   66 A'   67 A'   68 A'   69 A'                                 
 
 Beta MOs, Restricted
 -- Occupied --                  
-101.18 -101.18 -101.18 -101.18  -18.89   -9.11   -9.11   -9.11
  1 A'    1 A"    2 A'    3 A'    4 A'    2 A"    5 A'    6 A'                 
 -9.106  -6.866  -6.866  -6.866  -6.866  -6.862  -6.862  -6.862
  7 A'    8 A'    3 A"    9 A'   10 A'   11 A'   12 A'    4 A"                 
 -6.862  -6.861  -6.861  -6.861  -6.861  -2.227  -1.292  -1.229
 13 A'    5 A"   14 A'    6 A"    7 A"   15 A'   16 A'    8 A"                 
 -1.229  -0.626  -0.462  -0.452  -0.452  -0.450  -0.110  -0.089
 17 A'   18 A'   19 A'    9 A"   20 A'   21 A'   22 A'   10 A"                 
 -0.089  -0.051  -0.037  -0.028  -0.021  -0.021  -0.004   0.012
 23 A'   24 A'   25 A'   11 A"   12 A"   26 A'   27 A'   13 A"                 
  0.012   0.021   0.024   0.024   0.042   0.114
 28 A'   29 A'   30 A'   14 A"   15 A"   16 A"                                 
 -- Virtual --                   
  0.230   0.230   0.256   0.260   0.272   0.273   0.273   0.327
 17 A"   31 A'   32 A'   33 A'   34 A'   18 A"   35 A'   36 A'                 
  0.488   0.509   0.509   0.623   0.643   0.649   0.649   0.649
 37 A'   19 A"   38 A'   39 A'   40 A'   20 A"   21 A"   41 A'                 
  0.728   0.759   0.759   0.771   0.807   0.807   0.810   0.813
 22 A"   23 A"   42 A'   43 A'   24 A"   44 A'   45 A'   46 A'                 
  0.834   0.837   0.837   0.897   0.925   1.012   1.012   1.014
 47 A'   25 A"   48 A'   26 A"   49 A'   27 A"   50 A'   51 A'                 
  1.205   1.205   1.206   1.210   1.214   1.214   1.215   1.216
 52 A'   28 A"   53 A'   54 A'   55 A'   29 A"   30 A"   31 A"                 
  1.223   1.223   1.230   1.237   1.237   1.237   1.249   1.280
 32 A"   56 A'   33 A"   57 A'   34 A"   58 A'   59 A'   60 A'                 
  1.346   1.355   1.407   1.450   1.450   1.487   1.487   1.737
 61 A'   35 A"   62 A'   36 A"   63 A'   37 A"   64 A'   65 A'                 
  2.086   2.097   2.097   2.168   2.254   6.010
 38 A"   39 A"   66 A'   67 A'   68 A'   69 A'                                 
 --------------------------------------------------------------
 
          Ground-State Mulliken Net Atomic Charges

     Atom                 Charge (a.u.)
  ----------------------------------------
      1 Mo                    0.582891
      2 O                    -0.507978
      3 Cl                   -0.518725
      4 Cl                   -0.518728
      5 Cl                   -0.518732
      6 Cl                   -0.518728
  ----------------------------------------
  Sum of atomic charges =    -2.000000

 -----------------------------------------------------------------
                    Cartesian Multipole Moments
 -----------------------------------------------------------------
    Charge (ESU x 10^10)
                -9.6064
    Dipole Moment (Debye)
         X      -0.0002      Y       1.3896      Z       0.0000
       Tot       1.3896
    Quadrupole Moments (Debye-Ang)
        XX    -118.1076     XY       0.0000     YY     -92.4022
        XZ       0.0000     YZ       0.0000     ZZ    -118.1076
    Octopole Moments (Debye-Ang^2)
       XXX      -0.0022    XXY      19.6096    XYY      -0.0002
       YYY       4.9185    XXZ      -0.0000    XYZ      -0.0000
       YYZ       0.0000    XZZ       0.0000    YZZ      19.6096
       ZZZ       0.0000
    Hexadecapole Moments (Debye-Ang^3)
      XXXX   -1304.6092   XXXY       0.0005   XXYY    -245.5495
      XYYY       0.0001   YYYY    -346.1423   XXXZ      -0.0000
      XXYZ       0.0000   XYYZ       0.0000   YYYZ       0.0000
      XXZZ    -380.1532   XYZZ      -0.0001   YYZZ    -245.5494
      XZZZ       0.0000   YZZZ      -0.0000   ZZZZ   -1304.6083
 -----------------------------------------------------------------
Archival summary:
1\1\copper\SP\ProcedureUnspecified\BasisUnspecified\o1l41(\eric\TueOct3120:41:032017TueOct3120:41:032017\0\\#,ProcedureUnspecified,BasisUnspecified,\\26,1\Mo\O,1,1.68969\Cl,1,2.52275,2,106.391\Cl,1,2.52276,2,106.391,3,90.0001,0\Cl,1,2.52276,2,106.391,3,-90.0001,0\Cl,1,2.52278,2,106.39,3,-180,0\\\@

 Total job time:  27.14s(wall), 27.14s(cpu) 
 Tue Oct 31 20:41:03 2017

        *************************************************************
        *                                                           *
        *  Thank you very much for using Q-Chem.  Have a nice day.  *
        *                                                           *
        *************************************************************


