
 Distributed Data Interface kickoff program.
 Initiating 1 compute processes on 1 nodes to run the following command:
 D:\Tools\WinGAMESS/gamess.07.exe dvb_td_un 

          ******************************************************
          *         GAMESS VERSION = 24 MAR 2007 (R1)          *
          *             FROM IOWA STATE UNIVERSITY             *
          * M.W.SCHMIDT, K.K.BALDRIDGE, J.A.BOATZ, S.T.ELBERT, *
          *   M.S.GORDON, J.H.JENSEN, S.KOSEKI, N.MATSUNAGA,   *
          *          K.A.NGUYEN, S.J.SU, T.L.WINDUS,           *
          *       TOGETHER WITH M.DUPUIS, J.A.MONTGOMERY       *
          *         J.COMPUT.CHEM.  14, 1347-1363(1993)        *
          ******************* WINDOWS VERSION ******************

     SINCE 1993, STUDENTS AND POSTDOCS WORKING AT IOWA STATE UNIVERSITY
     AND ALSO IN THEIR VARIOUS JOBS AFTER LEAVING ISU HAVE MADE IMPORTANT
     CONTRIBUTIONS TO THE CODE:
     IVANA ADAMOVIC, CHRISTINE AIKENS, YURI ALEXEEV, POOJA ARORA, ROB BELL,
     PRADIPTA BANDYOPADHYAY, JONATHAN BENTZ, BRETT BODE, GALINA CHABAN,
     WEI CHEN, CHEOL HO CHOI, PAUL DAY, TIM DUDLEY, DMITRI FEDOROV,
     GRAHAM FLETCHER, MARK FREITAG, KURT GLAESEMANN, GRANT MERRILL,
     TAKESHI NAGATA, HEATHER NETZLOFF, BOSILJKA NJEGIC, RYAN OLSON,
     MIKE PAK, JIM SHOEMAKER, LYUDMILA SLIPCHENKO, JIE SONG,
     TETSUYA TAKETSUGU, SIMON WEBB.

     ADDITIONAL CODE HAS BEEN PROVIDED BY COLLABORATORS IN OTHER GROUPS:
     IOWA STATE UNIVERSITY: JOE IVANIC, KLAUS RUEDENBERG
     UNIVERSITY OF TOKYO: KIMIHIKO HIRAO, HARUYUKI NAKANO, TAKAHITO
          NAKAJIMA, TAKAO TSUNEDA, MUNEAKI KAMIYA, SUSUMU YANAGISAWA,
          KIYOSHI YAGI, MAHITO CHIBA, SEIKEN TOKURA, NAOAKI KAWAKAMI
     UNIVERSITY OF SOUTHERN DENMARK: FRANK JENSEN
     UNIVERSITY OF IOWA: VISVALDAS KAIRYS, HUI LI
     NATIONAL INST. OF STANDARDS AND TECHNOLOGY: WALT STEVENS, DAVID GARMER
     UNIVERSITY OF PISA: BENEDETTA MENNUCCI, JACOPO TOMASI
     UNIVERSITY OF MEMPHIS: HENRY KURTZ, PRAKASHAN KORAMBATH
     UNIVERSITY OF ALBERTA: MARIUSZ KLOBUKOWSKI
     UNIVERSITY OF NEW ENGLAND: MARK SPACKMAN
     MIE UNIVERSITY: HIROAKI UMEDA
     MICHIGAN STATE UNIVERSITY:
          KAROL KOWALSKI, MARTA WLOCH, PIOTR PIECUCH
     UNIVERSITY OF SILESIA: MONIKA MUSIAL, STANISLAW KUCHARSKI
     FACULTES UNIVERSITAIRES NOTRE-DAME DE LA PAIX:
          OLIVIER QUINET, BENOIT CHAMPAGNE
     UNIVERSITY OF CALIFORNIA - SANTA BARBARA: BERNARD KIRTMAN
     INSTITUTE FOR MOLECULAR SCIENCE: KAZUYA ISHIMURA AND SHIGERU NAGASE
     UNIVERSITY OF NOTRE DAME: DAN CHIPMAN
     KYUSHU UNIVERSITY:
          FENG LONG GU, JACEK KORCHOWIEC, MARCIN MAKOWSKI, AND YURIKO AOKI
     PENNSYLVANIA STATE UNIVERSITY:
          TZVETELIN IORDANOV, CHET SWALINA, SHARON HAMMES-SCHIFFER

 EXECUTION OF GAMESS BEGUN Wed Nov 14 14:47:31 2007

            ECHO OF THE FIRST FEW INPUT CARDS -
 INPUT CARD> $CONTRL SCFTYP=RHF DFTTYP=B3LYP TDDFT=EXCITE $END                              
 INPUT CARD> $SYSTEM TIMLIM=3000 MWORDS=50 $END                                             
 INPUT CARD> $BASIS  GBASIS=STO ngauss=3 $END                                               
 INPUT CARD> $TDDFT NSTATE=5 MULT=3 $END                                                    
 INPUT CARD> $DATA                                                                          
 INPUT CARD>divinylbenzene                                                                  
 INPUT CARD>cn  1                                                                           
 INPUT CARD>                                                                                
 INPUT CARD> C           6.0  -1.3939882447   0.2213755683   0.0000000000                   
 INPUT CARD> C           6.0   1.3939882447  -0.2213755683   0.0000000000                   
 INPUT CARD> C           6.0  -0.4919705715   1.2868407086   0.0000000000                   
 INPUT CARD> C           6.0   0.4919705715  -1.2868407086   0.0000000000                   
 INPUT CARD> C           6.0   0.8733456137   1.0731470812   0.0000000000                   
 INPUT CARD> C           6.0  -0.8733456137  -1.0731470812   0.0000000000                   
 INPUT CARD> H           1.0  -0.8715846529   2.3007508400   0.0000000000                   
 INPUT CARD> H           1.0   0.8715846529  -2.3007508400   0.0000000000                   
 INPUT CARD> H           1.0   1.5389282156   1.9253173698   0.0000000000                   
 INPUT CARD> H           1.0  -1.5389282156  -1.9253173698   0.0000000000                   
 INPUT CARD> C           6.0   2.8621079750  -0.5097799325   0.0000000000                   
 INPUT CARD> C           6.0  -2.8621079750   0.5097799325   0.0000000000                   
 INPUT CARD> H           1.0   3.1070578958  -1.5662206184   0.0000000000                   
 INPUT CARD> H           1.0  -3.1070578958   1.5662206184   0.0000000000                   
 INPUT CARD> C           6.0   3.8375160019   0.3700444858   0.0000000000                   
 INPUT CARD> C           6.0  -3.8375160019  -0.3700444858   0.0000000000                   
 INPUT CARD> H           1.0   3.6688910549   1.4371664215   0.0000000000                   
 INPUT CARD> H           1.0  -3.6688910549  -1.4371664215   0.0000000000                   
 INPUT CARD> H           1.0   4.8733853301   0.0604752833   0.0000000000                   
 INPUT CARD> H           1.0  -4.8733853301  -0.0604752833   0.0000000000                   
 INPUT CARD> $END                                                                           
 INPUT CARD>                                                                                
   50000000 WORDS OF MEMORY AVAILABLE

     BASIS OPTIONS
     -------------
     GBASIS=STO          IGAUSS=       3      POLAR=NONE    
     NDFUNC=       0     NFFUNC=       0     DIFFSP=       F
     NPFUNC=       0      DIFFS=       F

     GRID-BASED DFT OPTIONS
     ----------------------
     DFTTYP=B3LYP        QOP   =   0.000     PFTYP =NONE    
     NRAD  =      96     NTHE  =      12     NPHI  =      24
     NRAD0 =      24     NTHE0 =       8     NPHI0 =      16
      SWOFF=    5.00E-03 (PURE SCF -> DFT)
     SWITCH=    3.00E-04 (COARSE -> TIGHT GRID)
     THRESH=    0.00E+00 GTHRE=    1.00E+00


     RUN TITLE
     ---------
 divinylbenzene                                                                  

 THE POINT GROUP OF THE MOLECULE IS CN      
 THE ORDER OF THE PRINCIPAL AXIS IS     1

 ATOM      ATOMIC                      COORDINATES (BOHR)
           CHARGE         X                   Y                   Z
 C           6.0    -2.6342558126        0.4183391645        0.0000000000
 C           6.0     2.6342558126       -0.4183391645        0.0000000000
 C           6.0    -0.9296895742        2.4317763291        0.0000000000
 C           6.0     0.9296895742       -2.4317763291        0.0000000000
 C           6.0     1.6503839025        2.0279539280        0.0000000000
 C           6.0    -1.6503839025       -2.0279539280        0.0000000000
 H           1.0    -1.6470561691        4.3477886536        0.0000000000
 H           1.0     1.6470561691       -4.3477886536        0.0000000000
 H           1.0     2.9081526423        3.6383222683        0.0000000000
 H           1.0    -2.9081526423       -3.6383222683        0.0000000000
 C           6.0     5.4085998200       -0.9633443865        0.0000000000
 C           6.0    -5.4085998200        0.9633443865        0.0000000000
 H           1.0     5.8714880510       -2.9597278051        0.0000000000
 H           1.0    -5.8714880510        2.9597278051        0.0000000000
 C           6.0     7.2518537171        0.6992826814        0.0000000000
 C           6.0    -7.2518537171       -0.6992826814        0.0000000000
 H           1.0     6.9331987726        2.7158507354        0.0000000000
 H           1.0    -6.9331987726       -2.7158507354        0.0000000000
 H           1.0     9.2093629065        0.1142817145        0.0000000000
 H           1.0    -9.2093629065       -0.1142817145        0.0000000000

          INTERNUCLEAR DISTANCES (ANGS.)
          ------------------------------

                1 C          2 C          3 C          4 C          5 C     

   1 C       0.0000000    2.8229136 *  1.3960128 *  2.4148617 *  2.4220482 *
   2 C       2.8229136 *  0.0000000    2.4148617 *  1.3960128 *  1.3952984 *
   3 C       1.3960128 *  2.4148617 *  0.0000000    2.7553541 *  1.3819382 *
   4 C       2.4148617 *  1.3960128 *  2.7553541 *  0.0000000    2.3906044 *
   5 C       2.4220482 *  1.3952984 *  1.3819382 *  2.3906044 *  0.0000000  
   6 C       1.3952984 *  2.4220482 *  2.3906044 *  1.3819382 *  2.7672204 *
   7 H       2.1439932 *  3.3902717    1.0826452 *  3.8379807    2.1334931 *
   8 H       3.3902717    2.1439932 *  3.8379807    1.0826452 *  3.3738984  
   9 H       3.3919635    2.1515804 *  2.1288970 *  3.3784730    1.0812929 *
  10 H       2.1515804 *  3.3919635    3.3784730    2.1288970 *  3.8483573  
  11 C       4.3184422    1.4961793 *  3.8049558    2.4942684 *  2.5418170 *
  12 C       1.4961793 *  4.3184422    2.4942684 *  3.8049558    3.7776972  
  13 H       4.8430276    2.1778925 *  4.5927078    2.6299686 *  3.4577062  
  14 H       2.1778925 *  4.8430276    2.6299686 *  4.5927078    4.0108270  
  15 C       5.2336163    2.5140815 *  4.4254909    3.7333554    3.0464175  
  16 C       2.5140815 *  5.2336163    3.7333554    4.4254909    4.9269685  
  17 H       5.2068123    2.8153054 *  4.1635763    4.1848583    2.8191460 *
  18 H       2.8153054 *  5.2068123    4.1848583    4.1635763    5.1897580  
  19 H       6.2694386    3.4907942    5.5037275    4.5838909    4.1262358  
  20 H       3.4907942    6.2694386    4.5838909    5.5037275    5.8574752  

                6 C          7 H          8 H          9 H         10 H     

   1 C       1.3952984 *  2.1439932 *  3.3902717    3.3919635    2.1515804 *
   2 C       2.4220482 *  3.3902717    2.1439932 *  2.1515804 *  3.3919635  
   3 C       2.3906044 *  1.0826452 *  3.8379807    2.1288970 *  3.3784730  
   4 C       1.3819382 *  3.8379807    1.0826452 *  3.3784730    2.1288970 *
   5 C       2.7672204 *  2.1334931 *  3.3738984    1.0812929 *  3.8483573  
   6 C       0.0000000    3.3738984    2.1334931 *  3.8483573    1.0812929 *
   7 H       3.3738984    0.0000000    4.9206155    2.4395743 *  4.2784343  
   8 H       2.1334931 *  4.9206155    0.0000000    4.2784343    2.4395743 *
   9 H       3.8483573    2.4395743 *  4.2784343    0.0000000    4.9295627  
  10 H       1.0812929 *  4.2784343    2.4395743 *  4.9295627    0.0000000  
  11 C       3.7776972    4.6732798    2.6776407 *  2.7713721 *  4.6230797  
  12 C       2.5418170 *  2.6776407 *  4.6732798    4.6230797    2.7713721 *
  13 H       4.0108270    5.5482488    2.3530566 *  3.8275146    4.6598431  
  14 H       3.4577062    2.3530566 *  5.5482488    4.6598431    3.8275146  
  15 C       4.9269685    5.0895241    3.9912274    2.7753161 *  5.8459249  
  16 C       3.0464175    3.9912274    5.0895241    5.8459249    2.7753161 *
  17 H       5.1897580    4.6218717    4.6687202    2.1851849 *  6.1990063  
  18 H       2.8191460 *  4.6687202    4.6218717    6.1990063    2.1851849 *
  19 H       5.8574752    6.1663210    4.6464823    3.8205026    6.7127593  
  20 H       4.1262358    4.6464823    6.1663210    6.7127593    3.8205026  

               11 C         12 C         13 H         14 H         15 C     

   1 C       4.3184422    1.4961793 *  4.8430276    2.1778925 *  5.2336163  
   2 C       1.4961793 *  4.3184422    2.1778925 *  4.8430276    2.5140815 *
   3 C       3.8049558    2.4942684 *  4.5927078    2.6299686 *  4.4254909  
   4 C       2.4942684 *  3.8049558    2.6299686 *  4.5927078    3.7333554  
   5 C       2.5418170 *  3.7776972    3.4577062    4.0108270    3.0464175  
   6 C       3.7776972    2.5418170 *  4.0108270    3.4577062    4.9269685  
   7 H       4.6732798    2.6776407 *  5.5482488    2.3530566 *  5.0895241  
   8 H       2.6776407 *  4.6732798    2.3530566 *  5.5482488    3.9912274  
   9 H       2.7713721 *  4.6230797    3.8275146    4.6598431    2.7753161 *
  10 H       4.6230797    2.7713721 *  4.6598431    3.8275146    5.8459249  
  11 C       0.0000000    5.8143057    1.0844664 *  6.3198670    1.3135874 *
  12 C       5.8143057    0.0000000    6.3198670    1.0844664 *  6.7010811  
  13 H       1.0844664 *  6.3198670    0.0000000    6.9589815    2.0694665 *
  14 H       6.3198670    1.0844664 *  6.9589815    0.0000000    7.0468393  
  15 C       1.3135874 *  6.7010811    2.0694665 *  7.0468393    0.0000000  
  16 C       6.7010811    1.3135874 *  7.0468393    2.0694665 *  7.7106321  
  17 H       2.1074864 *  6.5965138    3.0554853    6.7771778    1.0803627 *
  18 H       6.5965138    2.1074864 *  6.7771778    3.0554853    7.7208910  
  19 H       2.0905568 *  7.7485309    2.4012605 *  8.1212526    1.0811375 *
  20 H       7.7485309    2.0905568 *  8.1212526    2.4012605 *  8.7215337  

               16 C         17 H         18 H         19 H         20 H     

   1 C       2.5140815 *  5.2068123    2.8153054 *  6.2694386    3.4907942  
   2 C       5.2336163    2.8153054 *  5.2068123    3.4907942    6.2694386  
   3 C       3.7333554    4.1635763    4.1848583    5.5037275    4.5838909  
   4 C       4.4254909    4.1848583    4.1635763    4.5838909    5.5037275  
   5 C       4.9269685    2.8191460 *  5.1897580    4.1262358    5.8574752  
   6 C       3.0464175    5.1897580    2.8191460 *  5.8574752    4.1262358  
   7 H       3.9912274    4.6218717    4.6687202    6.1663210    4.6464823  
   8 H       5.0895241    4.6687202    4.6218717    4.6464823    6.1663210  
   9 H       5.8459249    2.1851849 *  6.1990063    3.8205026    6.7127593  
  10 H       2.7753161 *  6.1990063    2.1851849 *  6.7127593    3.8205026  
  11 C       6.7010811    2.1074864 *  6.5965138    2.0905568 *  7.7485309  
  12 C       1.3135874 *  6.5965138    2.1074864 *  7.7485309    2.0905568 *
  13 H       7.0468393    3.0554853    6.7771778    2.4012605 *  8.1212526  
  14 H       2.0694665 *  6.7771778    3.0554853    8.1212526    2.4012605 *
  15 C       7.7106321    1.0803627 *  7.7208910    1.0811375 *  8.7215337  
  16 C       0.0000000    7.7208910    1.0803627 *  8.7215337    1.0811375 *
  17 H       7.7208910    0.0000000    7.8806621    1.8292307 *  8.6725669  
  18 H       1.0803627 *  7.8806621    0.0000000    8.6725669    1.8292307 *
  19 H       8.7215337    1.8292307 *  8.6725669    0.0000000    9.7475211  
  20 H       1.0811375 *  8.6725669    1.8292307 *  9.7475211    0.0000000  

  * ... LESS THAN  3.000


     ATOMIC BASIS SET
     ----------------
 THE CONTRACTED PRIMITIVE FUNCTIONS HAVE BEEN UNNORMALIZED
 THE CONTRACTED BASIS FUNCTIONS ARE NOW NORMALIZED TO UNITY

  SHELL TYPE  PRIMITIVE        EXPONENT          CONTRACTION COEFFICIENT(S)

 C         

      1   S       1            71.6168373    0.154328967295
      1   S       2            13.0450963    0.535328142282
      1   S       3             3.5305122    0.444634542185

      2   L       4             2.9412494   -0.099967229187    0.155916274999
      2   L       5             0.6834831    0.399512826089    0.607683718598
      2   L       6             0.2222899    0.700115468880    0.391957393099

 C         

      3   S       7            71.6168373    0.154328967295
      3   S       8            13.0450963    0.535328142282
      3   S       9             3.5305122    0.444634542185

      4   L      10             2.9412494   -0.099967229187    0.155916274999
      4   L      11             0.6834831    0.399512826089    0.607683718598
      4   L      12             0.2222899    0.700115468880    0.391957393099

 C         

      5   S      13            71.6168373    0.154328967295
      5   S      14            13.0450963    0.535328142282
      5   S      15             3.5305122    0.444634542185

      6   L      16             2.9412494   -0.099967229187    0.155916274999
      6   L      17             0.6834831    0.399512826089    0.607683718598
      6   L      18             0.2222899    0.700115468880    0.391957393099

 C         

      7   S      19            71.6168373    0.154328967295
      7   S      20            13.0450963    0.535328142282
      7   S      21             3.5305122    0.444634542185

      8   L      22             2.9412494   -0.099967229187    0.155916274999
      8   L      23             0.6834831    0.399512826089    0.607683718598
      8   L      24             0.2222899    0.700115468880    0.391957393099

 C         

      9   S      25            71.6168373    0.154328967295
      9   S      26            13.0450963    0.535328142282
      9   S      27             3.5305122    0.444634542185

     10   L      28             2.9412494   -0.099967229187    0.155916274999
     10   L      29             0.6834831    0.399512826089    0.607683718598
     10   L      30             0.2222899    0.700115468880    0.391957393099

 C         

     11   S      31            71.6168373    0.154328967295
     11   S      32            13.0450963    0.535328142282
     11   S      33             3.5305122    0.444634542185

     12   L      34             2.9412494   -0.099967229187    0.155916274999
     12   L      35             0.6834831    0.399512826089    0.607683718598
     12   L      36             0.2222899    0.700115468880    0.391957393099

 H         

     13   S      37             3.4252509    0.154328967295
     13   S      38             0.6239137    0.535328142282
     13   S      39             0.1688554    0.444634542185

 H         

     14   S      40             3.4252509    0.154328967295
     14   S      41             0.6239137    0.535328142282
     14   S      42             0.1688554    0.444634542185

 H         

     15   S      43             3.4252509    0.154328967295
     15   S      44             0.6239137    0.535328142282
     15   S      45             0.1688554    0.444634542185

 H         

     16   S      46             3.4252509    0.154328967295
     16   S      47             0.6239137    0.535328142282
     16   S      48             0.1688554    0.444634542185

 C         

     17   S      49            71.6168373    0.154328967295
     17   S      50            13.0450963    0.535328142282
     17   S      51             3.5305122    0.444634542185

     18   L      52             2.9412494   -0.099967229187    0.155916274999
     18   L      53             0.6834831    0.399512826089    0.607683718598
     18   L      54             0.2222899    0.700115468880    0.391957393099

 C         

     19   S      55            71.6168373    0.154328967295
     19   S      56            13.0450963    0.535328142282
     19   S      57             3.5305122    0.444634542185

     20   L      58             2.9412494   -0.099967229187    0.155916274999
     20   L      59             0.6834831    0.399512826089    0.607683718598
     20   L      60             0.2222899    0.700115468880    0.391957393099

 H         

     21   S      61             3.4252509    0.154328967295
     21   S      62             0.6239137    0.535328142282
     21   S      63             0.1688554    0.444634542185

 H         

     22   S      64             3.4252509    0.154328967295
     22   S      65             0.6239137    0.535328142282
     22   S      66             0.1688554    0.444634542185

 C         

     23   S      67            71.6168373    0.154328967295
     23   S      68            13.0450963    0.535328142282
     23   S      69             3.5305122    0.444634542185

     24   L      70             2.9412494   -0.099967229187    0.155916274999
     24   L      71             0.6834831    0.399512826089    0.607683718598
     24   L      72             0.2222899    0.700115468880    0.391957393099

 C         

     25   S      73            71.6168373    0.154328967295
     25   S      74            13.0450963    0.535328142282
     25   S      75             3.5305122    0.444634542185

     26   L      76             2.9412494   -0.099967229187    0.155916274999
     26   L      77             0.6834831    0.399512826089    0.607683718598
     26   L      78             0.2222899    0.700115468880    0.391957393099

 H         

     27   S      79             3.4252509    0.154328967295
     27   S      80             0.6239137    0.535328142282
     27   S      81             0.1688554    0.444634542185

 H         

     28   S      82             3.4252509    0.154328967295
     28   S      83             0.6239137    0.535328142282
     28   S      84             0.1688554    0.444634542185

 H         

     29   S      85             3.4252509    0.154328967295
     29   S      86             0.6239137    0.535328142282
     29   S      87             0.1688554    0.444634542185

 H         

     30   S      88             3.4252509    0.154328967295
     30   S      89             0.6239137    0.535328142282
     30   S      90             0.1688554    0.444634542185

 TOTAL NUMBER OF BASIS SET SHELLS             =   30
 NUMBER OF CARTESIAN GAUSSIAN BASIS FUNCTIONS =   60
 NUMBER OF ELECTRONS                          =   70
 CHARGE OF MOLECULE                           =    0
 SPIN MULTIPLICITY                            =    1
 NUMBER OF OCCUPIED ORBITALS (ALPHA)          =   35
 NUMBER OF OCCUPIED ORBITALS (BETA )          =   35
 TOTAL NUMBER OF ATOMS                        =   20
 THE NUCLEAR REPULSION ENERGY IS      452.1260015068

     $NEO OPTIONS
     ------------
     NUNIQN=       0     BASNUC=DZSNB        NEOSCF=NONE    
     NEOCI =NONE         NUMULT=       2     NUCST =       1
     NAUXNB=       0     VNUCEX=       F     NEOOPT=       F
     NTAUXB=       0     NEOHSS=       F     HSSINI=READH   
     HSSUPD=POWELLUP     DIRNUC=       F     SYMNUC=       F
     QMTOLN= 0.0E+00     USRDEX=       F
     POSNEO=       F     POSPRP=       F

     $CONTRL OPTIONS
     ---------------
 SCFTYP=RHF          RUNTYP=ENERGY       EXETYP=RUN     
 MPLEVL=       0     CITYP =NONE         CCTYP =NONE         VBTYP =NONE    
 DFTTYP=B3LYP        TDDFT =EXCITE  
 MULT  =       1     ICHARG=       0     NZVAR =       0     COORD =UNIQUE  
 PP    =NONE         RELWFN=NONE         LOCAL =NONE         NUMGRD=       F
 ISPHER=      -1     NOSYM =       0     MAXIT =      30     UNITS =ANGS    
 PLTORB=       F     MOLPLT=       F     AIMPAC=       F     FRIEND=        
 NPRINT=       7     IREST =       0     GEOM  =INPUT   
 NORMF =       0     NORMP =       0     ITOL  =      20     ICUT  =       9
 INTTYP=BEST         GRDTYP=BEST         QMTTOL= 1.0E-06

     $SYSTEM OPTIONS
     ---------------
  REPLICATED MEMORY=    50000000 WORDS (ON EVERY NODE).
 DISTRIBUTED MEMDDI=           0 MILLION WORDS IN AGGREGATE,
 MEMDDI DISTRIBUTED OVER   1 PROCESSORS IS           0 WORDS/PROCESSOR.
 TOTAL MEMORY REQUESTED ON EACH PROCESSOR=    50000000 WORDS.
 TIMLIM=        3000.00 MINUTES, OR     2.08 DAYS.
 PARALL= F  BALTYP=  NXTVAL  KDIAG=    0  COREFL= F

          ----------------
          PROPERTIES INPUT
          ----------------

     MOMENTS            FIELD           POTENTIAL          DENSITY
 IEMOM =       1   IEFLD =       0   IEPOT =       0   IEDEN =       0
 WHERE =COMASS     WHERE =NUCLEI     WHERE =NUCLEI     WHERE =NUCLEI  
 OUTPUT=BOTH       OUTPUT=BOTH       OUTPUT=BOTH       OUTPUT=BOTH    
 IEMINT=       0   IEFINT=       0                     IEDINT=       0
                                                       MORB  =       0
          EXTRAPOLATION IN EFFECT
          DIIS IN EFFECT
 ORBITAL PRINTING OPTION: NPREO=   1  60   2   1

     -------------------------------
     INTEGRAL TRANSFORMATION OPTIONS
     -------------------------------
     NWORD  =         0     CUTOFF = 1.0E-09
     MPTRAN =         0     DIRTRF =       F
     AOINTS =DUP     

          ----------------------
          INTEGRAL INPUT OPTIONS
          ----------------------
 NOPK  =       1 NORDER=       0 SCHWRZ=       T

          ----------------------
          TDDFT INPUT PARAMETERS
          ----------------------
 NSTATE=       5  IROOT=       1   MULT=       3
 MAXVEC=     200 NTRIAL=       5 CNVTOL=  1.00E-07
 MAXGRD= 1000000  ILENG=     200 RHOMIN=  1.00E-12

     ------------------------------------------
     THE POINT GROUP IS CN , NAXIS= 1, ORDER= 1
     ------------------------------------------

     DIMENSIONS OF THE SYMMETRY SUBSPACES ARE
 A   =   60

 ..... DONE SETTING UP THE RUN .....
 STEP CPU TIME =     0.08 TOTAL CPU TIME =        0.1 (    0.0 MIN)
 TOTAL WALL CLOCK TIME=        0.1 SECONDS, CPU UTILIZATION IS  71.56%

          ********************
          1 ELECTRON INTEGRALS
          ********************
 ...... END OF ONE-ELECTRON INTEGRALS ......
 STEP CPU TIME =     0.06 TOTAL CPU TIME =        0.1 (    0.0 MIN)
 TOTAL WALL CLOCK TIME=        0.2 SECONDS, CPU UTILIZATION IS  82.46%

          -------------
          GUESS OPTIONS
          -------------
          GUESS =HUCKEL            NORB  =       0          NORDER=       0
          MIX   =       F          PRTMO =       F          PUNMO =       F
          TOLZ  = 1.0E-08          TOLE  = 1.0E-05
          SYMDEN=       F          PURIFY=       F

 INITIAL GUESS ORBITALS GENERATED BY HUCKEL   ROUTINE.
 HUCKEL GUESS REQUIRES     53480 WORDS.

 SYMMETRIES FOR INITIAL GUESS ORBITALS FOLLOW.   BOTH SET(S).
    35 ORBITALS ARE OCCUPIED (   10 CORE ORBITALS).
    11=A       12=A       13=A       14=A       15=A       16=A       17=A   
    18=A       19=A       20=A       21=A       22=A       23=A       24=A   
    25=A       26=A       27=A       28=A       29=A       30=A       31=A   
    32=A       33=A       34=A       35=A       36=A       37=A       38=A   
    39=A       40=A       41=A       42=A       43=A       44=A       45=A   
 ...... END OF INITIAL ORBITAL SELECTION ......
 STEP CPU TIME =     0.05 TOTAL CPU TIME =        0.2 (    0.0 MIN)
 TOTAL WALL CLOCK TIME=        0.4 SECONDS, CPU UTILIZATION IS  50.13%

                    ----------------------
                    AO INTEGRAL TECHNOLOGY
                    ----------------------
     S,P,L SHELL ROTATED AXIS INTEGRALS, REPROGRAMMED BY
        KAZUYA ISHIMURA (IMS) AND JOSE SIERRA (SYNSTAR).
     S,P,D,L SHELL ROTATED AXIS INTEGRALS PROGRAMMED BY
        KAZUYA ISHIMURA (INSTITUTE FOR MOLECULAR SCIENCE).
     S,P,D,F,G SHELL TO TOTAL QUARTET ANGULAR MOMENTUM SUM 5,
        ERIC PROGRAM BY GRAHAM FLETCHER (ELORET AND NASA ADVANCED
        SUPERCOMPUTING DIVISION, AMES RESEARCH CENTER).
     S,P,D,F,G,L SHELL GENERAL RYS QUADRATURE PROGRAMMED BY
        MICHEL DUPUIS (PACIFIC NORTHWEST NATIONAL LABORATORY).

          --------------------
          2 ELECTRON INTEGRALS
          --------------------

 THE -PK- OPTION IS OFF, THE INTEGRALS ARE NOT IN SUPERMATRIX FORM.
 STORING   15000 INTEGRALS/RECORD ON DISK, USING 12 BYTES/INTEGRAL.
 TWO ELECTRON INTEGRAL EVALUATION REQUIRES   89821 WORDS OF MEMORY.
 SCHWARZ INEQUALITY OVERHEAD:      1789 INTEGRALS, T=        0.01
 II,JST,KST,LST =  1  1  1  1 NREC =         1 INTLOC =    1
 II,JST,KST,LST =  2  1  1  1 NREC =         1 INTLOC =    2
 II,JST,KST,LST =  3  1  1  1 NREC =         1 INTLOC =   34
 II,JST,KST,LST =  4  1  1  1 NREC =         1 INTLOC =   92
 II,JST,KST,LST =  5  1  1  1 NREC =         1 INTLOC =  789
 II,JST,KST,LST =  6  1  1  1 NREC =         1 INTLOC = 1153
 II,JST,KST,LST =  7  1  1  1 NREC =         1 INTLOC = 3921
 II,JST,KST,LST =  8  1  1  1 NREC =         1 INTLOC = 4971
 II,JST,KST,LST =  9  1  1  1 NREC =         1 INTLOC =11985
 II,JST,KST,LST = 10  1  1  1 NREC =         1 INTLOC =14421
 II,JST,KST,LST = 11  1  1  1 NREC =         2 INTLOC =13728
 II,JST,KST,LST = 12  1  1  1 NREC =         3 INTLOC = 3198
 II,JST,KST,LST = 13  1  1  1 NREC =         4 INTLOC =13557
 II,JST,KST,LST = 14  1  1  1 NREC =         5 INTLOC = 7526
 II,JST,KST,LST = 15  1  1  1 NREC =         6 INTLOC = 2506
 II,JST,KST,LST = 16  1  1  1 NREC =         6 INTLOC =13588
 II,JST,KST,LST = 17  1  1  1 NREC =         7 INTLOC =10838
 II,JST,KST,LST = 18  1  1  1 NREC =         8 INTLOC = 5036
 II,JST,KST,LST = 19  1  1  1 NREC =        12 INTLOC = 1393
 II,JST,KST,LST = 20  1  1  1 NREC =        12 INTLOC =12598
 II,JST,KST,LST = 21  1  1  1 NREC =        17 INTLOC =12105
 II,JST,KST,LST = 22  1  1  1 NREC =        19 INTLOC = 6366
 II,JST,KST,LST = 23  1  1  1 NREC =        21 INTLOC = 2033
 II,JST,KST,LST = 24  1  1  1 NREC =        21 INTLOC =14726
 II,JST,KST,LST = 25  1  1  1 NREC =        28 INTLOC = 6689
 II,JST,KST,LST = 26  1  1  1 NREC =        29 INTLOC = 6133
 II,JST,KST,LST = 27  1  1  1 NREC =        36 INTLOC =11311
 II,JST,KST,LST = 28  1  1  1 NREC =        39 INTLOC = 4316
 II,JST,KST,LST = 29  1  1  1 NREC =        41 INTLOC =13582
 II,JST,KST,LST = 30  1  1  1 NREC =        44 INTLOC = 3174
 SCHWARZ INEQUALITY TEST SKIPPED     44844 INTEGRAL BLOCKS.
 TOTAL NUMBER OF NONZERO TWO-ELECTRON INTEGRALS =              683632
         46 INTEGRAL RECORDS WERE STORED ON DISK FILE  8.
  ...... END OF TWO-ELECTRON INTEGRALS .....
 STEP CPU TIME =     1.39 TOTAL CPU TIME =        1.6 (    0.0 MIN)
 TOTAL WALL CLOCK TIME=        2.6 SECONDS, CPU UTILIZATION IS  60.11%

          --------------------------
             R-B3LYP SCF CALCULATION
          --------------------------

     NUCLEAR ENERGY =       452.1260015068
     MAXIT =   30     NPUNCH=    2
     EXTRAP=T  DAMP=F  SHIFT=F  RSTRCT=F  DIIS=T  DEM=F  SOSCF=F
           DENSITY MATRIX CONV=  1.00E-05
     DFT GRID SWITCH THRESHOLD=  3.00E-04
      DFT SWITCH OFF THRESHOLD=  5.00E-03
     MEMORY REQUIRED FOR RHF STEP=    678436 WORDS.

 DFT CODE IS SWITCHING FROM 96 12 24 TO THE COARSER GRID 24  8 16

     EXCHANGE FUNCTIONAL   =B88&HFX   
     CORRELATION FUNCTIONAL=LYP88&VWN5
     DFT THRESHOLD         =.163E-07
     GRID CHANGE THRESHOLD =.300E-03
 DFT IS SWITCHED OFF, PERFORMING PURE SCF UNTIL SWOFF THRESHOLD IS REACHED.

 ITER EX DEM     TOTAL ENERGY        E CHANGE  DENSITY CHANGE    DIIS ERROR
   1  0  0     -379.4532437431  -379.4532437431   0.186948681   0.659294139
          * * *   INITIATING DIIS PROCEDURE   * * *
   2  1  0     -379.7713460235    -0.3181022804   0.046313822   0.033930455
   3  2  0     -379.7774092281    -0.0060632046   0.014234289   0.009647954
   4  3  0     -379.7778719501    -0.0004627220   0.005030812   0.004733051
   5  4  0     -379.7779517218    -0.0000797717   0.001210163   0.001009455
 CONVERGED TO SWOFF, SO DFT CALCULATION IS NOW SWITCHED ON.
          * * *   INITIATING DIIS PROCEDURE   * * *
   6  5  0     -382.0304994493    -2.2525477275   0.043256613   0.095605400
   7  6  0     -382.0380969815    -0.0075975322   0.014191625   0.006119449
   8  7  0     -382.0383314840    -0.0002345025   0.006403138   0.002975045
   9  8  0     -382.0384130832    -0.0000815991   0.003099542   0.001842813
  10  9  0     -382.0384235477    -0.0000104645   0.000352885   0.000267471
  11 10  0     -382.0384236728    -0.0000001251   0.000134727   0.000080669
 DFT CODE IS SWITCHING BACK TO THE FINER GRID
          * * *   INITIATING DIIS PROCEDURE   * * *
  12 11  0     -382.0432969632    -0.0048732903   0.000747991   0.000730067
  13 12  0     -382.0432998533    -0.0000028901   0.000308751   0.000132436
  14 13  0     -382.0432999023    -0.0000000490   0.000165253   0.000135864
  15 14  0     -382.0432999944    -0.0000000920   0.000045656   0.000021643
  16 15  0     -382.0432999967    -0.0000000023   0.000019674   0.000010150
  17 16  0     -382.0432999970    -0.0000000003   0.000005721   0.000003790
  18 17  0     -382.0432999970    -0.0000000001   0.000000445   0.000000345

          -----------------
          DENSITY CONVERGED
          -----------------
     TIME TO FORM FOCK OPERATORS=     181.7 SECONDS (      10.1 SEC/ITER)
     TIME TO SOLVE SCF EQUATIONS=       0.2 SECONDS (       0.0 SEC/ITER)

 FINAL R-B3LYP ENERGY IS     -382.0432999970 AFTER  18 ITERATIONS
 DFT EXCHANGE + CORRELATION ENERGY =       -46.6320938199
 TOTAL ELECTRON NUMBER             =        70.0035207653

          ------------
          EIGENVECTORS
          ------------

                      1          2          3          4          5
                  -10.0164   -10.0164   -10.0045   -10.0045   -10.0027
                     A          A          A          A          A   
    1  C  1  S    0.705485   0.693169  -0.026096   0.030981   0.023499
    2  C  1  S    0.032489   0.031720   0.003797  -0.004388  -0.008484
    3  C  1  X    0.001185   0.000878  -0.003805   0.004453  -0.002928
    4  C  1  Y   -0.000061  -0.000004   0.000573  -0.000667   0.002131
    5  C  1  Z    0.000000   0.000000   0.000000   0.000000   0.000000
    6  C  2  S   -0.693187   0.705467   0.030765   0.026356  -0.023465
    7  C  2  S   -0.031926   0.032287  -0.004456  -0.003716   0.008473
    8  C  2  X    0.001169  -0.000899  -0.004475  -0.003779  -0.002929
    9  C  2  Y   -0.000061   0.000006   0.000674   0.000566   0.002100
   10  C  2  Z    0.000000   0.000000   0.000000   0.000000   0.000000
   11  C  3  S   -0.016030  -0.016601   0.005565  -0.010395   0.318818
   12  C  3  S   -0.008082  -0.007116   0.000377  -0.000554   0.020680
   13  C  3  X    0.002684   0.003006  -0.000009   0.000051   0.004221
   14  C  3  Y    0.003650   0.003419  -0.000113   0.000214  -0.001139
   15  C  3  Z    0.000000   0.000000   0.000000   0.000000   0.000000
   16  C  4  S    0.015737  -0.016882  -0.007173  -0.009359  -0.320940
   17  C  4  S    0.007956  -0.007257  -0.000461  -0.000486  -0.020810
   18  C  4  X    0.002631  -0.003053  -0.000017  -0.000049   0.004244
   19  C  4  Y    0.003590  -0.003483  -0.000147  -0.000193  -0.001145
   20  C  4  Z    0.000000   0.000000   0.000000   0.000000   0.000000
   21  C  5  S    0.016278  -0.017185  -0.005809  -0.007994  -0.620468
   22  C  5  S    0.007935  -0.007208  -0.000340  -0.000335  -0.031340
   23  C  5  X    0.001367  -0.001815   0.000060   0.000016   0.002842
   24  C  5  Y   -0.004211   0.004205   0.000154   0.000203   0.000411
   25  C  5  Z    0.000000   0.000000   0.000000   0.000000   0.000000
   26  C  6  S   -0.016576  -0.016895   0.004440  -0.008828   0.623945
   27  C  6  S   -0.008060  -0.007067   0.000281  -0.000385   0.031518
   28  C  6  X    0.001399   0.001791   0.000057  -0.000025   0.002859
   29  C  6  Y   -0.004285  -0.004130   0.000119  -0.000226   0.000412
   30  C  6  Z    0.000000   0.000000   0.000000   0.000000   0.000000
   31  H  7  S    0.000338   0.000204  -0.000050   0.000071  -0.003139
   32  H  8  S   -0.000334   0.000210   0.000061   0.000062   0.003159
   33  H  9  S   -0.000334   0.000213  -0.000098  -0.000079   0.005849
   34  H 10  S    0.000338   0.000208   0.000084  -0.000094  -0.005882
   35  C 11  S    0.027493  -0.028400   0.754314   0.640685  -0.006619
   36  C 11  S    0.006728  -0.006926   0.033786   0.028681  -0.000482
   37  C 11  X   -0.003934   0.004046   0.001443   0.001237  -0.000003
   38  C 11  Y    0.000884  -0.000909   0.000891   0.000754  -0.000051
   39  C 11  Z    0.000000   0.000000   0.000000   0.000000   0.000000
   40  C 12  S   -0.027985  -0.027910  -0.640773   0.754239   0.006629
   41  C 12  S   -0.006849  -0.006806  -0.028703   0.033767   0.000482
   42  C 12  X   -0.004004  -0.003977   0.001224  -0.001454  -0.000003
   43  C 12  Y    0.000900   0.000893   0.000757  -0.000888  -0.000052
   44  C 12  Z    0.000000   0.000000   0.000000   0.000000   0.000000
   45  H 13  S   -0.000338   0.000356  -0.007100  -0.006029   0.000119
   46  H 14  S    0.000344   0.000350   0.006031  -0.007097  -0.000119
   47  C 15  S   -0.000099   0.000114  -0.003887  -0.003295   0.000889
   48  C 15  S   -0.000504   0.000517  -0.008522  -0.007237   0.000208
   49  C 15  X    0.000294  -0.000307   0.003768   0.003199  -0.000114
   50  C 15  Y   -0.000009   0.000008   0.003366   0.002860   0.000010
   51  C 15  Z    0.000000   0.000000   0.000000   0.000000   0.000000
   52  C 16  S    0.000101   0.000112   0.003302  -0.003880  -0.000892
   53  C 16  S    0.000513   0.000508   0.007239  -0.008520  -0.000208
   54  C 16  X    0.000299   0.000301   0.003201  -0.003766  -0.000114
   55  C 16  Y   -0.000009  -0.000008   0.002860  -0.003367   0.000010
   56  C 16  Z    0.000000   0.000000   0.000000   0.000000   0.000000
   57  H 17  S    0.000156  -0.000151   0.000182   0.000155  -0.000157
   58  H 18  S   -0.000159  -0.000148  -0.000155   0.000182   0.000158
   59  H 19  S    0.000029  -0.000028   0.000220   0.000187   0.000013
   60  H 20  S   -0.000029  -0.000028  -0.000187   0.000221  -0.000013

                      6          7          8          9         10
                  -10.0027   -10.0021   -10.0019    -9.9886    -9.9886
                     A          A          A          A          A   
    1  C  1  S    0.006655  -0.007136   0.024927  -0.000036   0.000095
    2  C  1  S   -0.002027   0.002720  -0.007838  -0.000110   0.000293
    3  C  1  X    0.000061   0.001817  -0.003233   0.000043  -0.000113
    4  C  1  Y    0.005298   0.004792  -0.000864  -0.000006   0.000013
    5  C  1  Z    0.000000   0.000000   0.000000   0.000000   0.000000
    6  C  2  S    0.006791   0.007173   0.024916   0.000095   0.000035
    7  C  2  S   -0.002075  -0.002732  -0.007833   0.000293   0.000108
    8  C  2  X   -0.000044   0.001822   0.003230   0.000114   0.000041
    9  C  2  Y   -0.005311   0.004793   0.000858  -0.000014  -0.000004
   10  C  2  Z    0.000000   0.000000   0.000000   0.000000   0.000000
   11  C  3  S   -0.353541  -0.622431   0.605314  -0.000012   0.000661
   12  C  3  S   -0.021864  -0.025001   0.023785  -0.000024  -0.000071
   13  C  3  X   -0.004087   0.001527  -0.001838  -0.000067   0.000061
   14  C  3  Y    0.001073   0.000567  -0.000108   0.000000   0.000024
   15  C  3  Z    0.000000   0.000000   0.000000   0.000000   0.000000
   16  C  4  S   -0.351784   0.623218   0.604406   0.000507   0.000424
   17  C  4  S   -0.021747   0.025031   0.023748  -0.000039  -0.000065
   18  C  4  X    0.004062   0.001530   0.001836  -0.000090   0.000011
   19  C  4  Y   -0.001066   0.000566   0.000107  -0.000018  -0.000015
   20  C  4  Z    0.000000   0.000000   0.000000   0.000000   0.000000
   21  C  5  S    0.606461  -0.320775   0.353271   0.001133   0.000456
   22  C  5  S    0.030783  -0.008306   0.010007  -0.000017  -0.000021
   23  C  5  X   -0.002872  -0.003562   0.003525  -0.000141  -0.000041
   24  C  5  Y   -0.000139   0.000929  -0.000700   0.000004  -0.000002
   25  C  5  Z    0.000000   0.000000   0.000000   0.000000   0.000000
   26  C  6  S    0.602786   0.321370   0.352893  -0.000397   0.001154
   27  C  6  S    0.030599   0.008325   0.009999  -0.000005  -0.000027
   28  C  6  X    0.002856  -0.003566  -0.003520  -0.000061   0.000133
   29  C  6  Y    0.000136   0.000930   0.000698   0.000004  -0.000002
   30  C  6  Z    0.000000   0.000000   0.000000   0.000000   0.000000
   31  H  7  S    0.003372   0.005648  -0.005668   0.000003  -0.000018
   32  H  8  S    0.003355  -0.005655  -0.005659  -0.000015  -0.000009
   33  H  9  S   -0.005744   0.002779  -0.003289   0.000123   0.000046
   34  H 10  S   -0.005709  -0.002784  -0.003286  -0.000046   0.000123
   35  C 11  S    0.002054   0.003084   0.011905   0.005864   0.002190
   36  C 11  S    0.000098   0.000210   0.000576  -0.010024  -0.003739
   37  C 11  X    0.000046   0.000027   0.000154  -0.004562  -0.001702
   38  C 11  Y    0.000089   0.000027   0.000019  -0.004180  -0.001559
   39  C 11  Z    0.000000   0.000000   0.000000   0.000000   0.000000
   40  C 12  S    0.002017  -0.003066   0.011910  -0.002185   0.005866
   41  C 12  S    0.000096  -0.000209   0.000576   0.003740  -0.010024
   42  C 12  X   -0.000046   0.000027  -0.000154  -0.001702   0.004562
   43  C 12  Y   -0.000088   0.000027  -0.000019  -0.001560   0.004180
   44  C 12  Z    0.000000   0.000000   0.000000   0.000000   0.000000
   45  H 13  S   -0.000052  -0.000056  -0.000204   0.000141   0.000052
   46  H 14  S   -0.000052   0.000056  -0.000204  -0.000053   0.000141
   47  C 15  S   -0.000466   0.000112  -0.000996   0.928121   0.346229
   48  C 15  S   -0.000095  -0.000060  -0.000272   0.041909   0.015634
   49  C 15  X    0.000039   0.000026   0.000162  -0.001434  -0.000535
   50  C 15  Y   -0.000027   0.000048   0.000037  -0.001399  -0.000522
   51  C 15  Z    0.000000   0.000000   0.000000   0.000000   0.000000
   52  C 16  S   -0.000461  -0.000113  -0.000996  -0.346229   0.928121
   53  C 16  S   -0.000094   0.000059  -0.000272  -0.015634   0.041909
   54  C 16  X   -0.000038   0.000026  -0.000162  -0.000535   0.001434
   55  C 16  Y    0.000027   0.000048  -0.000037  -0.000522   0.001399
   56  C 16  Z    0.000000   0.000000   0.000000   0.000000   0.000000
   57  H 17  S    0.000159  -0.000058   0.000069  -0.008615  -0.003214
   58  H 18  S    0.000158   0.000058   0.000069   0.003214  -0.008615
   59  H 19  S   -0.000008   0.000009  -0.000012  -0.008650  -0.003227
   60  H 20  S   -0.000008  -0.000009  -0.000012   0.003227  -0.008650

                     11         12         13         14         15
                   -0.8194    -0.7594    -0.7251    -0.7048    -0.6740
                     A          A          A          A          A   
    1  C  1  S   -0.108161   0.102698  -0.004882  -0.013309   0.101954
    2  C  1  S    0.270056  -0.267410   0.016207   0.035433  -0.275114
    3  C  1  X    0.046650   0.029798  -0.094446   0.022863  -0.059305
    4  C  1  Y   -0.006208  -0.003379   0.009604   0.128441   0.018879
    5  C  1  Z    0.000000   0.000000   0.000000   0.000000   0.000000
    6  C  2  S   -0.108161  -0.102698  -0.004881   0.013309  -0.101954
    7  C  2  S    0.270056   0.267411   0.016207  -0.035433   0.275115
    8  C  2  X   -0.046650   0.029797   0.094446   0.022863  -0.059306
    9  C  2  Y    0.006208  -0.003379  -0.009604   0.128441   0.018879
   10  C  2  Z    0.000000   0.000000   0.000000   0.000000   0.000000
   11  C  3  S   -0.099327   0.039069   0.043596  -0.133385   0.041602
   12  C  3  S    0.245410  -0.100364  -0.111758   0.353945  -0.112693
   13  C  3  X    0.015871   0.060011  -0.036230   0.056557   0.094054
   14  C  3  Y   -0.055924   0.028599   0.016371   0.003471   0.040718
   15  C  3  Z    0.000000   0.000000   0.000000   0.000000   0.000000
   16  C  4  S   -0.099327  -0.039069   0.043596   0.133384  -0.041602
   17  C  4  S    0.245410   0.100364  -0.111759  -0.353944   0.112693
   18  C  4  X   -0.015871   0.060011   0.036230   0.056557   0.094055
   19  C  4  Y    0.055924   0.028599  -0.016370   0.003471   0.040717
   20  C  4  Z    0.000000   0.000000   0.000000   0.000000   0.000000
   21  C  5  S   -0.099023  -0.043441   0.039067  -0.120378  -0.074787
   22  C  5  S    0.245128   0.112200  -0.099569   0.319370   0.202367
   23  C  5  X   -0.033058   0.047427   0.046594  -0.067851   0.048587
   24  C  5  Y   -0.048495  -0.045500   0.003131   0.034708  -0.056705
   25  C  5  Z    0.000000   0.000000   0.000000   0.000000   0.000000
   26  C  6  S   -0.099023   0.043441   0.039067   0.120378   0.074787
   27  C  6  S    0.245129  -0.112200  -0.099569  -0.319368  -0.202367
   28  C  6  X    0.033058   0.047427  -0.046595  -0.067851   0.048587
   29  C  6  Y    0.048495  -0.045500  -0.003131   0.034708  -0.056705
   30  C  6  Z    0.000000   0.000000   0.000000   0.000000   0.000000
   31  H  7  S    0.044379  -0.026570  -0.021073   0.098396  -0.032029
   32  H  8  S    0.044379   0.026570  -0.021073  -0.098396   0.032029
   33  H  9  S    0.044494   0.030491  -0.014827   0.089578   0.053621
   34  H 10  S    0.044494  -0.030491  -0.014828  -0.089577  -0.053622
   35  C 11  S   -0.046896  -0.114374  -0.121051   0.000319   0.052709
   36  C 11  S    0.118804   0.293666   0.313451  -0.001729  -0.136395
   37  C 11  X   -0.026937  -0.003210   0.061772   0.018846  -0.130327
   38  C 11  Y    0.012338   0.035842   0.047802   0.023189  -0.040528
   39  C 11  Z    0.000000   0.000000   0.000000   0.000000   0.000000
   40  C 12  S   -0.046896   0.114374  -0.121051  -0.000319  -0.052710
   41  C 12  S    0.118804  -0.293665   0.313451   0.001729   0.136395
   42  C 12  X    0.026937  -0.003210  -0.061772   0.018846  -0.130327
   43  C 12  Y   -0.012338   0.035842  -0.047802   0.023189  -0.040528
   44  C 12  Z    0.000000   0.000000   0.000000   0.000000   0.000000
   45  H 13  S    0.023849   0.066919   0.076567  -0.010052  -0.037440
   46  H 14  S    0.023849  -0.066919   0.076567   0.010052   0.037440
   47  C 15  S   -0.023446  -0.083343  -0.119625  -0.014399   0.108901
   48  C 15  S    0.058491   0.212017   0.308983   0.036810  -0.289495
   49  C 15  X   -0.019747  -0.051954  -0.055637  -0.006469   0.018223
   50  C 15  Y   -0.012180  -0.039760  -0.052377   0.001418   0.037230
   51  C 15  Z    0.000000   0.000000   0.000000   0.000000   0.000000
   52  C 16  S   -0.023446   0.083343  -0.119625   0.014399  -0.108901
   53  C 16  S    0.058491  -0.212017   0.308983  -0.036810   0.289496
   54  C 16  X    0.019747  -0.051954   0.055637  -0.006469   0.018223
   55  C 16  Y    0.012180  -0.039759   0.052377   0.001418   0.037230
   56  C 16  Z    0.000000   0.000000   0.000000   0.000000   0.000000
   57  H 17  S    0.013075   0.049174   0.073904   0.014320  -0.074424
   58  H 18  S    0.013075  -0.049174   0.073904  -0.014320   0.074424
   59  H 19  S    0.009802   0.044624   0.074710   0.008753  -0.087070
   60  H 20  S    0.009802  -0.044624   0.074710  -0.008753   0.087070

                     16         17         18         19         20
                   -0.5901    -0.5620    -0.5321    -0.5149    -0.4626
                     A          A          A          A          A   
    1  C  1  S    0.069806   0.058340  -0.013136  -0.049863  -0.034201
    2  C  1  S   -0.200146  -0.169814   0.036096   0.143179   0.111531
    3  C  1  X    0.068885   0.063858   0.133269   0.148538  -0.126393
    4  C  1  Y   -0.130665   0.184361  -0.054469   0.022544   0.052283
    5  C  1  Z    0.000000   0.000000   0.000000   0.000000   0.000000
    6  C  2  S    0.069806   0.058340   0.013136  -0.049863  -0.034201
    7  C  2  S   -0.200146  -0.169814  -0.036097   0.143179   0.111530
    8  C  2  X   -0.068886  -0.063858   0.133270  -0.148538   0.126393
    9  C  2  Y    0.130665  -0.184361  -0.054469  -0.022544  -0.052283
   10  C  2  Z    0.000000   0.000000   0.000000   0.000000   0.000000
   11  C  3  S    0.007729  -0.110219  -0.048795   0.006203  -0.013875
   12  C  3  S   -0.023253   0.319796   0.146750  -0.024294   0.053418
   13  C  3  X    0.167615  -0.027636  -0.000026  -0.081835  -0.145132
   14  C  3  Y    0.030517   0.085438  -0.006992  -0.188531   0.128141
   15  C  3  Z    0.000000   0.000000   0.000000   0.000000   0.000000
   16  C  4  S    0.007729  -0.110219   0.048795   0.006203  -0.013875
   17  C  4  S   -0.023253   0.319796  -0.146749  -0.024295   0.053418
   18  C  4  X   -0.167614   0.027636  -0.000027   0.081834   0.145133
   19  C  4  Y   -0.030517  -0.085439  -0.006994   0.188532  -0.128141
   20  C  4  Z    0.000000   0.000000   0.000000   0.000000   0.000000
   21  C  5  S   -0.084400   0.052803   0.027863   0.052842   0.020414
   22  C  5  S    0.236765  -0.154060  -0.082990  -0.166571  -0.056148
   23  C  5  X   -0.019975  -0.174871  -0.078456  -0.043269   0.132840
   24  C  5  Y    0.064689   0.094943   0.038198  -0.203282   0.079090
   25  C  5  Z    0.000000   0.000000   0.000000   0.000000   0.000000
   26  C  6  S   -0.084400   0.052803  -0.027863   0.052842   0.020414
   27  C  6  S    0.236765  -0.154061   0.082991  -0.166570  -0.056149
   28  C  6  X    0.019975   0.174871  -0.078456   0.043268  -0.132840
   29  C  6  Y   -0.064689  -0.094943   0.038197   0.203283  -0.079090
   30  C  6  Z    0.000000   0.000000   0.000000   0.000000   0.000000
   31  H  7  S   -0.025469   0.167969   0.045961  -0.099902   0.129673
   32  H  8  S   -0.025469   0.167970  -0.045960  -0.099903   0.129674
   33  H  9  S    0.109322  -0.074112  -0.050524  -0.171702   0.082317
   34  H 10  S    0.109322  -0.074112   0.050524  -0.171702   0.082317
   35  C 11  S    0.052349   0.009042  -0.098427   0.057342   0.042534
   36  C 11  S   -0.156263  -0.029112   0.297870  -0.172409  -0.131879
   37  C 11  X    0.126182   0.083182  -0.039619   0.009571  -0.184433
   38  C 11  Y    0.084873  -0.044362  -0.121208   0.061378   0.115539
   39  C 11  Z    0.000000   0.000000   0.000000   0.000000   0.000000
   40  C 12  S    0.052349   0.009042   0.098427   0.057343   0.042534
   41  C 12  S   -0.156264  -0.029112  -0.297869  -0.172410  -0.131879
   42  C 12  X   -0.126182  -0.083182  -0.039619  -0.009571   0.184433
   43  C 12  Y   -0.084873   0.044362  -0.121208  -0.061378  -0.115539
   44  C 12  Z    0.000000   0.000000   0.000000   0.000000   0.000000
   45  H 13  S   -0.082139   0.029655   0.173397  -0.105831  -0.153603
   46  H 14  S   -0.082139   0.029655  -0.173396  -0.105832  -0.153603
   47  C 15  S   -0.080129  -0.039302   0.081094  -0.052724  -0.019329
   48  C 15  S    0.227110   0.115948  -0.247513   0.164528   0.071892
   49  C 15  X    0.036874   0.051704  -0.092881   0.082458  -0.003374
   50  C 15  Y    0.035846  -0.014095  -0.128386   0.074424   0.219007
   51  C 15  Z    0.000000   0.000000   0.000000   0.000000   0.000000
   52  C 16  S   -0.080129  -0.039302  -0.081094  -0.052724  -0.019329
   53  C 16  S    0.227111   0.115948   0.247512   0.164529   0.071892
   54  C 16  X   -0.036874  -0.051704  -0.092881  -0.082459   0.003375
   55  C 16  Y   -0.035846   0.014095  -0.128385  -0.074425  -0.219007
   56  C 16  Z    0.000000   0.000000   0.000000   0.000000   0.000000
   57  H 17  S    0.099804   0.024849  -0.163295   0.092491   0.182238
   58  H 18  S    0.099804   0.024849   0.163294   0.092492   0.182238
   59  H 19  S    0.093021   0.069998  -0.125014   0.098475  -0.014316
   60  H 20  S    0.093021   0.069998   0.125014   0.098475  -0.014317

                     21         22         23         24         25
                   -0.4430    -0.4105    -0.4019    -0.3999    -0.3761
                     A          A          A          A          A   
    1  C  1  S   -0.017574   0.067903  -0.027992   0.021676   0.002918
    2  C  1  S    0.060851  -0.228260   0.093041  -0.070483  -0.009868
    3  C  1  X   -0.135797  -0.008543   0.150302   0.010542  -0.082226
    4  C  1  Y   -0.134465  -0.110382  -0.212131  -0.009656  -0.093125
    5  C  1  Z    0.000000   0.000000   0.000000   0.000000   0.000000
    6  C  2  S    0.017574  -0.067903   0.027992   0.021676  -0.002918
    7  C  2  S   -0.060851   0.228261  -0.093042  -0.070480   0.009868
    8  C  2  X   -0.135798  -0.008543   0.150302  -0.010543  -0.082227
    9  C  2  Y   -0.134464  -0.110382  -0.212131   0.009656  -0.093125
   10  C  2  Z    0.000000   0.000000   0.000000   0.000000   0.000000
   11  C  3  S    0.019079  -0.048812   0.002347  -0.025758   0.030185
   12  C  3  S   -0.063117   0.166919  -0.011295   0.084748  -0.094660
   13  C  3  X    0.189276   0.057036   0.117169   0.078117  -0.140042
   14  C  3  Y   -0.000200   0.227586  -0.021368  -0.004796   0.311902
   15  C  3  Z    0.000000   0.000000   0.000000   0.000000   0.000000
   16  C  4  S   -0.019079   0.048812  -0.002347  -0.025757  -0.030186
   17  C  4  S    0.063116  -0.166921   0.011296   0.084746   0.094660
   18  C  4  X    0.189276   0.057037   0.117168  -0.078117  -0.140042
   19  C  4  Y   -0.000200   0.227585  -0.021368   0.004799   0.311901
   20  C  4  Z    0.000000   0.000000   0.000000   0.000000   0.000000
   21  C  5  S   -0.039046   0.047742   0.008827   0.019055   0.020441
   22  C  5  S    0.125406  -0.164052  -0.024936  -0.070345  -0.063627
   23  C  5  X   -0.113240  -0.177609  -0.045528  -0.134826   0.218096
   24  C  5  Y    0.092287  -0.104590   0.261532  -0.034290   0.196205
   25  C  5  Z    0.000000   0.000000   0.000000   0.000000   0.000000
   26  C  6  S    0.039046  -0.047742  -0.008827   0.019054  -0.020441
   27  C  6  S   -0.125406   0.164053   0.024936  -0.070343   0.063626
   28  C  6  X   -0.113240  -0.177610  -0.045527   0.134825   0.218096
   29  C  6  Y    0.092288  -0.104590   0.261533   0.034287   0.196204
   30  C  6  Z    0.000000   0.000000   0.000000   0.000000   0.000000
   31  H  7  S   -0.083001   0.232522  -0.054986   0.008761   0.248659
   32  H  8  S    0.083001  -0.232521   0.054986   0.008759  -0.248659
   33  H  9  S    0.049045  -0.225841   0.148753  -0.110179   0.215090
   34  H 10  S   -0.049045   0.225842  -0.148754  -0.110175  -0.215089
   35  C 11  S    0.020093   0.011424  -0.003824  -0.027925  -0.001973
   36  C 11  S   -0.060086  -0.027014   0.019616   0.077514   0.003247
   37  C 11  X    0.091765  -0.142117  -0.173329   0.079907   0.071990
   38  C 11  Y   -0.219066  -0.027519  -0.032698   0.256326  -0.005838
   39  C 11  Z    0.000000   0.000000   0.000000   0.000000   0.000000
   40  C 12  S   -0.020093  -0.011424   0.003824  -0.027925   0.001973
   41  C 12  S    0.060086   0.027013  -0.019615   0.077514  -0.003247
   42  C 12  X    0.091765  -0.142117  -0.173330  -0.079908   0.071989
   43  C 12  Y   -0.219065  -0.027517  -0.032700  -0.256326  -0.005838
   44  C 12  Z    0.000000   0.000000   0.000000   0.000000   0.000000
   45  H 13  S    0.146396  -0.032423   0.010064  -0.146980   0.006151
   46  H 14  S   -0.146396   0.032425  -0.010065  -0.146980  -0.006151
   47  C 15  S   -0.010125  -0.010739   0.001558  -0.004611   0.003511
   48  C 15  S    0.039238   0.047136   0.006633  -0.002444  -0.016364
   49  C 15  X    0.222994   0.107855  -0.049912  -0.340835  -0.004893
   50  C 15  Y   -0.080755   0.101623   0.242136  -0.015641  -0.082135
   51  C 15  Z    0.000000   0.000000   0.000000   0.000000   0.000000
   52  C 16  S    0.010125   0.010739  -0.001558  -0.004610  -0.003511
   53  C 16  S   -0.039238  -0.047136  -0.006633  -0.002444   0.016364
   54  C 16  X    0.222993   0.107851  -0.049910   0.340837  -0.004893
   55  C 16  Y   -0.080755   0.101623   0.242136   0.015640  -0.082135
   56  C 16  Z    0.000000   0.000000   0.000000   0.000000   0.000000
   57  H 17  S   -0.062633   0.064901   0.206152   0.019162  -0.056694
   58  H 18  S    0.062632  -0.064902  -0.206152   0.019162   0.056694
   59  H 19  S    0.185138   0.077669  -0.092657  -0.258656   0.008742
   60  H 20  S   -0.185137  -0.077666   0.092655  -0.258658  -0.008742

                     26         27         28         29         30
                   -0.3553    -0.3474    -0.3315    -0.3088    -0.2916
                     A          A          A          A          A   
    1  C  1  S    0.003645  -0.026121   0.000000  -0.012501   0.001186
    2  C  1  S   -0.013982   0.092447   0.000000   0.054622  -0.012769
    3  C  1  X    0.170959   0.008870   0.000000  -0.248571   0.214391
    4  C  1  Y    0.164732  -0.083985   0.000000   0.084172   0.233836
    5  C  1  Z    0.000000   0.000000   0.334542   0.000000   0.000000
    6  C  2  S   -0.003645  -0.026121   0.000000   0.012501   0.001186
    7  C  2  S    0.013981   0.092448   0.000000  -0.054622  -0.012769
    8  C  2  X    0.170960  -0.008867   0.000000  -0.248573  -0.214389
    9  C  2  Y    0.164731   0.083987   0.000000   0.084171  -0.233837
   10  C  2  Z    0.000000   0.000000   0.334541   0.000000   0.000000
   11  C  3  S   -0.016969  -0.005612   0.000000   0.008394  -0.006069
   12  C  3  S    0.060795   0.028967   0.000000  -0.026065   0.016339
   13  C  3  X   -0.229090  -0.145973   0.000000  -0.037117  -0.237049
   14  C  3  Y   -0.084011   0.124521   0.000000   0.066180  -0.210436
   15  C  3  Z    0.000000   0.000000   0.297651   0.000000   0.000000
   16  C  4  S    0.016969  -0.005611   0.000000  -0.008394  -0.006069
   17  C  4  S   -0.060795   0.028966   0.000000   0.026065   0.016340
   18  C  4  X   -0.229093   0.145970   0.000000  -0.037115   0.237048
   19  C  4  Y   -0.084009  -0.124523   0.000000   0.066181   0.210435
   20  C  4  Z    0.000000   0.000000   0.297651   0.000000   0.000000
   21  C  5  S    0.008288   0.007743   0.000000  -0.014519   0.010048
   22  C  5  S   -0.023650  -0.025516   0.000000   0.049172  -0.025429
   23  C  5  X    0.201870   0.149565   0.000000   0.007510   0.180189
   24  C  5  Y   -0.062783  -0.061835   0.000000  -0.133621   0.184043
   25  C  5  Z    0.000000   0.000000   0.296918   0.000000   0.000000
   26  C  6  S   -0.008288   0.007743   0.000000   0.014519   0.010048
   27  C  6  S    0.023650  -0.025516   0.000000  -0.049172  -0.025430
   28  C  6  X    0.201872  -0.149562   0.000000   0.007509  -0.180190
   29  C  6  Y   -0.062784   0.061834   0.000000  -0.133622  -0.184042
   30  C  6  Z    0.000000   0.000000   0.296918   0.000000   0.000000
   31  H  7  S    0.022828   0.155927   0.000000   0.042442  -0.117814
   32  H  8  S   -0.022831   0.155928   0.000000  -0.042442  -0.117813
   33  H  9  S    0.051254  -0.001896   0.000000  -0.044808   0.281880
   34  H 10  S   -0.051254  -0.001897   0.000000   0.044810   0.281880
   35  C 11  S    0.000870   0.018961   0.000000   0.002293   0.014571
   36  C 11  S    0.016809  -0.080219   0.000000  -0.005732  -0.065054
   37  C 11  X   -0.183591   0.093743   0.000000   0.175672   0.188758
   38  C 11  Y   -0.210459   0.205630   0.000000  -0.213719   0.003510
   39  C 11  Z    0.000000   0.000000   0.166955   0.000000   0.000000
   40  C 12  S   -0.000871   0.018961   0.000000  -0.002293   0.014571
   41  C 12  S   -0.016808  -0.080219   0.000000   0.005731  -0.065055
   42  C 12  X   -0.183589  -0.093746   0.000000   0.175670  -0.188760
   43  C 12  Y   -0.210456  -0.205632   0.000000  -0.213719  -0.003508
   44  C 12  Z    0.000000   0.000000   0.166955   0.000000   0.000000
   45  H 13  S    0.152156  -0.199115   0.000000   0.256744   0.000751
   46  H 14  S   -0.152154  -0.199117   0.000000  -0.256744   0.000753
   47  C 15  S    0.021047  -0.011168   0.000000   0.003163  -0.009366
   48  C 15  S   -0.054634   0.027109   0.000000  -0.013702   0.024867
   49  C 15  X    0.242934   0.050452   0.000000  -0.145696  -0.119214
   50  C 15  Y    0.123746  -0.294935   0.000000   0.198959  -0.056587
   51  C 15  Z    0.000000   0.000000   0.090012   0.000000   0.000000
   52  C 16  S   -0.021047  -0.011169   0.000000  -0.003164  -0.009366
   53  C 16  S    0.054634   0.027110   0.000000   0.013703   0.024867
   54  C 16  X    0.242935  -0.050449   0.000000  -0.145695   0.119215
   55  C 16  Y    0.123742   0.294936   0.000000   0.198960   0.056586
   56  C 16  Z    0.000000   0.000000   0.090012   0.000000   0.000000
   57  H 17  S    0.056013  -0.263335   0.000000   0.231789   0.014811
   58  H 18  S   -0.056009  -0.263335   0.000000  -0.231789   0.014812
   59  H 19  S    0.151021   0.143166   0.000000  -0.219404  -0.094835
   60  H 20  S   -0.151022   0.143164   0.000000   0.219403  -0.094836

                     31         32         33         34         35
                   -0.2859    -0.2672    -0.2173    -0.1969    -0.1571
                     A          A          A          A          A   
    1  C  1  S    0.009112   0.000000   0.000000   0.000000   0.000000
    2  C  1  S   -0.047315   0.000000   0.000000   0.000000   0.000000
    3  C  1  X    0.189657   0.000000   0.000000   0.000000   0.000000
    4  C  1  Y   -0.225812   0.000000   0.000000   0.000000   0.000000
    5  C  1  Z    0.000000  -0.342988  -0.019745   0.005872   0.391173
    6  C  2  S    0.009112   0.000000   0.000000   0.000000   0.000000
    7  C  2  S   -0.047315   0.000000   0.000000   0.000000   0.000000
    8  C  2  X   -0.189656   0.000000   0.000000   0.000000   0.000000
    9  C  2  Y    0.225813   0.000000   0.000000   0.000000   0.000000
   10  C  2  Z    0.000000   0.342989  -0.019745  -0.005871  -0.391173
   11  C  3  S    0.009504   0.000000   0.000000   0.000000   0.000000
   12  C  3  S   -0.026274   0.000000   0.000000   0.000000   0.000000
   13  C  3  X   -0.146374   0.000000   0.000000   0.000000   0.000000
   14  C  3  Y    0.158441   0.000000   0.000000   0.000000   0.000000
   15  C  3  Z    0.000000  -0.130405  -0.172342   0.462832   0.216911
   16  C  4  S    0.009504   0.000000   0.000000   0.000000   0.000000
   17  C  4  S   -0.026275   0.000000   0.000000   0.000000   0.000000
   18  C  4  X    0.146374   0.000000   0.000000   0.000000   0.000000
   19  C  4  Y   -0.158442   0.000000   0.000000   0.000000   0.000000
   20  C  4  Z    0.000000   0.130405  -0.172343  -0.462832  -0.216911
   21  C  5  S   -0.003901   0.000000   0.000000   0.000000   0.000000
   22  C  5  S    0.010340   0.000000   0.000000   0.000000   0.000000
   23  C  5  X    0.175046   0.000000   0.000000   0.000000   0.000000
   24  C  5  Y   -0.228457   0.000000   0.000000   0.000000   0.000000
   25  C  5  Z    0.000000   0.132547  -0.169679   0.456860  -0.230967
   26  C  6  S   -0.003901   0.000000   0.000000   0.000000   0.000000
   27  C  6  S    0.010341   0.000000   0.000000   0.000000   0.000000
   28  C  6  X   -0.175045   0.000000   0.000000   0.000000   0.000000
   29  C  6  Y    0.228457   0.000000   0.000000   0.000000   0.000000
   30  C  6  Z    0.000000  -0.132547  -0.169680  -0.456859   0.230967
   31  H  7  S    0.232922   0.000000   0.000000   0.000000   0.000000
   32  H  8  S    0.232923   0.000000   0.000000   0.000000   0.000000
   33  H  9  S   -0.053029   0.000000   0.000000   0.000000   0.000000
   34  H 10  S   -0.053029   0.000000   0.000000   0.000000   0.000000
   35  C 11  S    0.017659   0.000000   0.000000   0.000000   0.000000
   36  C 11  S   -0.066836   0.000000   0.000000   0.000000   0.000000
   37  C 11  X    0.197750   0.000000   0.000000   0.000000   0.000000
   38  C 11  Y   -0.144340   0.000000   0.000000   0.000000   0.000000
   39  C 11  Z    0.000000   0.374694   0.413832  -0.001719   0.223219
   40  C 12  S    0.017659   0.000000   0.000000   0.000000   0.000000
   41  C 12  S   -0.066836   0.000000   0.000000   0.000000   0.000000
   42  C 12  X   -0.197751   0.000000   0.000000   0.000000   0.000000
   43  C 12  Y    0.144340   0.000000   0.000000   0.000000   0.000000
   44  C 12  Z    0.000000  -0.374693   0.413832   0.001719  -0.223220
   45  H 13  S    0.194502   0.000000   0.000000   0.000000   0.000000
   46  H 14  S    0.194502   0.000000   0.000000   0.000000   0.000000
   47  C 15  S    0.001120   0.000000   0.000000   0.000000   0.000000
   48  C 15  S   -0.009224   0.000000   0.000000   0.000000   0.000000
   49  C 15  X   -0.091706   0.000000   0.000000   0.000000   0.000000
   50  C 15  Y    0.096041   0.000000   0.000000   0.000000   0.000000
   51  C 15  Z    0.000000   0.275795   0.418697   0.008461   0.389097
   52  C 16  S    0.001120   0.000000   0.000000   0.000000   0.000000
   53  C 16  S   -0.009224   0.000000   0.000000   0.000000   0.000000
   54  C 16  X    0.091706   0.000000   0.000000   0.000000   0.000000
   55  C 16  Y   -0.096041   0.000000   0.000000   0.000000   0.000000
   56  C 16  Z    0.000000  -0.275795   0.418697  -0.008462  -0.389098
   57  H 17  S    0.132055   0.000000   0.000000   0.000000   0.000000
   58  H 18  S    0.132056   0.000000   0.000000   0.000000   0.000000
   59  H 19  S   -0.138208   0.000000   0.000000   0.000000   0.000000
   60  H 20  S   -0.138209   0.000000   0.000000   0.000000   0.000000

                     36         37         38         39         40
                    0.0464     0.0972     0.1215     0.1927     0.2887
                     A          A          A          A          A   
    1  C  1  S    0.000000   0.000000   0.000000   0.000000   0.000000
    2  C  1  S    0.000000   0.000000   0.000000   0.000000   0.000000
    3  C  1  X    0.000000   0.000000   0.000000   0.000000   0.000000
    4  C  1  Y    0.000000   0.000000   0.000000   0.000000   0.000000
    5  C  1  Z    0.451003  -0.035069   0.026276  -0.496168  -0.549817
    6  C  2  S    0.000000   0.000000   0.000000   0.000000   0.000000
    7  C  2  S    0.000000   0.000000   0.000000   0.000000   0.000000
    8  C  2  X    0.000000   0.000000   0.000000   0.000000   0.000000
    9  C  2  Y    0.000000   0.000000   0.000000   0.000000   0.000000
   10  C  2  Z    0.451003  -0.035069  -0.026275  -0.496168   0.549817
   11  C  3  S    0.000000   0.000000   0.000000   0.000000   0.000000
   12  C  3  S    0.000000   0.000000   0.000000   0.000000   0.000000
   13  C  3  X    0.000000   0.000000   0.000000   0.000000   0.000000
   14  C  3  Y    0.000000   0.000000   0.000000   0.000000   0.000000
   15  C  3  Z   -0.232853   0.587746  -0.235986   0.167483   0.472347
   16  C  4  S    0.000000   0.000000   0.000000   0.000000   0.000000
   17  C  4  S    0.000000   0.000000   0.000000   0.000000   0.000000
   18  C  4  X    0.000000   0.000000   0.000000   0.000000   0.000000
   19  C  4  Y    0.000000   0.000000   0.000000   0.000000   0.000000
   20  C  4  Z   -0.232853   0.587746   0.235984   0.167483  -0.472347
   21  C  5  S    0.000000   0.000000   0.000000   0.000000   0.000000
   22  C  5  S    0.000000   0.000000   0.000000   0.000000   0.000000
   23  C  5  X    0.000000   0.000000   0.000000   0.000000   0.000000
   24  C  5  Y    0.000000   0.000000   0.000000   0.000000   0.000000
   25  C  5  Z   -0.283628  -0.554973   0.227014   0.202117  -0.475315
   26  C  6  S    0.000000   0.000000   0.000000   0.000000   0.000000
   27  C  6  S    0.000000   0.000000   0.000000   0.000000   0.000000
   28  C  6  X    0.000000   0.000000   0.000000   0.000000   0.000000
   29  C  6  Y    0.000000   0.000000   0.000000   0.000000   0.000000
   30  C  6  Z   -0.283628  -0.554974  -0.227013   0.202117   0.475314
   31  H  7  S    0.000000   0.000000   0.000000   0.000000   0.000000
   32  H  8  S    0.000000   0.000000   0.000000   0.000000   0.000000
   33  H  9  S    0.000000   0.000000   0.000000   0.000000   0.000000
   34  H 10  S    0.000000   0.000000   0.000000   0.000000   0.000000
   35  C 11  S    0.000000   0.000000   0.000000   0.000000   0.000000
   36  C 11  S    0.000000   0.000000   0.000000   0.000000   0.000000
   37  C 11  X    0.000000   0.000000   0.000000   0.000000   0.000000
   38  C 11  Y    0.000000   0.000000   0.000000   0.000000   0.000000
   39  C 11  Z    0.260068   0.003357  -0.529765   0.533065  -0.283230
   40  C 12  S    0.000000   0.000000   0.000000   0.000000   0.000000
   41  C 12  S    0.000000   0.000000   0.000000   0.000000   0.000000
   42  C 12  X    0.000000   0.000000   0.000000   0.000000   0.000000
   43  C 12  Y    0.000000   0.000000   0.000000   0.000000   0.000000
   44  C 12  Z    0.260068   0.003358   0.529764   0.533066   0.283229
   45  H 13  S    0.000000   0.000000   0.000000   0.000000   0.000000
   46  H 14  S    0.000000   0.000000   0.000000   0.000000   0.000000
   47  C 15  S    0.000000   0.000000   0.000000   0.000000   0.000000
   48  C 15  S    0.000000   0.000000   0.000000   0.000000   0.000000
   49  C 15  X    0.000000   0.000000   0.000000   0.000000   0.000000
   50  C 15  Y    0.000000   0.000000   0.000000   0.000000   0.000000
   51  C 15  Z   -0.445038   0.011932   0.530526  -0.389478   0.155932
   52  C 16  S    0.000000   0.000000   0.000000   0.000000   0.000000
   53  C 16  S    0.000000   0.000000   0.000000   0.000000   0.000000
   54  C 16  X    0.000000   0.000000   0.000000   0.000000   0.000000
   55  C 16  Y    0.000000   0.000000   0.000000   0.000000   0.000000
   56  C 16  Z   -0.445037   0.011931  -0.530526  -0.389479  -0.155931
   57  H 17  S    0.000000   0.000000   0.000000   0.000000   0.000000
   58  H 18  S    0.000000   0.000000   0.000000   0.000000   0.000000
   59  H 19  S    0.000000   0.000000   0.000000   0.000000   0.000000
   60  H 20  S    0.000000   0.000000   0.000000   0.000000   0.000000

                     41         42         43         44         45
                    0.3396     0.3509     0.3896     0.3975     0.4358
                     A          A          A          A          A   
    1  C  1  S   -0.070211   0.041779   0.050942   0.017463   0.051016
    2  C  1  S    0.416146  -0.245431  -0.294581  -0.107609  -0.312425
    3  C  1  X   -0.293781   0.215198   0.452988  -0.072679   0.163546
    4  C  1  Y    0.081164  -0.261389   0.147768  -0.085615   0.238341
    5  C  1  Z    0.000000   0.000000   0.000000   0.000000   0.000000
    6  C  2  S   -0.070213  -0.041777  -0.050944   0.017462   0.051017
    7  C  2  S    0.416155   0.245420   0.294594  -0.107606  -0.312430
    8  C  2  X    0.293789   0.215190   0.452985   0.072694  -0.163544
    9  C  2  Y   -0.081172  -0.261386   0.147769   0.085618  -0.238341
   10  C  2  Z    0.000000   0.000000   0.000000   0.000000   0.000000
   11  C  3  S   -0.029423  -0.007350  -0.021686  -0.061229   0.063888
   12  C  3  S    0.182980   0.038163   0.134132   0.381396  -0.399527
   13  C  3  X   -0.043820   0.050385   0.242344  -0.126381  -0.159509
   14  C  3  Y    0.294038  -0.332579   0.193875   0.027075  -0.022447
   15  C  3  Z    0.000000   0.000000   0.000000   0.000000   0.000000
   16  C  4  S   -0.029423   0.007350   0.021688  -0.061229   0.063888
   17  C  4  S    0.182977  -0.038167  -0.134143   0.381399  -0.399526
   18  C  4  X    0.043821   0.050384   0.242336   0.126389   0.159505
   19  C  4  Y   -0.294047  -0.332572   0.193876  -0.027071   0.022454
   20  C  4  Z    0.000000   0.000000   0.000000   0.000000   0.000000
   21  C  5  S   -0.041985   0.015778   0.001403  -0.025639  -0.096697
   22  C  5  S    0.257617  -0.095225  -0.001681   0.165021   0.604497
   23  C  5  X    0.111336   0.051897   0.323121   0.208242   0.010805
   24  C  5  Y    0.191211  -0.241750   0.312603   0.196864  -0.026317
   25  C  5  Z    0.000000   0.000000   0.000000   0.000000   0.000000
   26  C  6  S   -0.041986  -0.015776  -0.001400  -0.025638  -0.096695
   27  C  6  S    0.257620   0.095217   0.001664   0.165015   0.604486
   28  C  6  X   -0.111333   0.051900   0.323130  -0.208231  -0.010801
   29  C  6  Y   -0.191217  -0.241744   0.312607  -0.196856   0.026322
   30  C  6  Z    0.000000   0.000000   0.000000   0.000000   0.000000
   31  H  7  S   -0.409491   0.312994  -0.157395  -0.309303   0.182213
   32  H  8  S   -0.409498  -0.312983   0.157405  -0.309304   0.182220
   33  H  9  S   -0.403927   0.206202  -0.464122  -0.334899  -0.231829
   34  H 10  S   -0.403932  -0.206191   0.464139  -0.334882  -0.231818
   35  C 11  S    0.047869   0.005157   0.092049   0.065584  -0.029907
   36  C 11  S   -0.270308  -0.026034  -0.542697  -0.399797   0.194821
   37  C 11  X    0.364937   0.275060   0.322206  -0.051029  -0.221982
   38  C 11  Y   -0.250540  -0.346369   0.007072   0.325753  -0.165883
   39  C 11  Z    0.000000   0.000000   0.000000   0.000000   0.000000
   40  C 12  S    0.047869  -0.005158  -0.092050   0.065581  -0.029906
   41  C 12  S   -0.270304   0.026041   0.542704  -0.399781   0.194814
   42  C 12  X   -0.364928   0.275070   0.322202   0.051037   0.221981
   43  C 12  Y    0.250531  -0.346377   0.007079  -0.325753   0.165876
   44  C 12  Z    0.000000   0.000000   0.000000   0.000000   0.000000
   45  H 13  S   -0.167070  -0.412361   0.223767   0.575832  -0.209372
   46  H 14  S   -0.167060   0.412366  -0.223779   0.575825  -0.209362
   47  C 15  S   -0.033174  -0.006602  -0.039031  -0.021284  -0.107033
   48  C 15  S    0.191792   0.042190   0.225061   0.119319   0.686517
   49  C 15  X    0.156723   0.185480   0.099180  -0.240989   0.118809
   50  C 15  Y   -0.160225  -0.314429  -0.055847   0.307804   0.247575
   51  C 15  Z    0.000000   0.000000   0.000000   0.000000   0.000000
   52  C 16  S   -0.033173   0.006603   0.039032  -0.021283  -0.107031
   53  C 16  S    0.191790  -0.042196  -0.225068   0.119309   0.686499
   54  C 16  X   -0.156718   0.185485   0.099174   0.240991  -0.118799
   55  C 16  Y    0.160217  -0.314434  -0.055837  -0.307803  -0.247572
   56  C 16  Z    0.000000   0.000000   0.000000   0.000000   0.000000
   57  H 17  S    0.158019   0.338686  -0.001444  -0.396712  -0.529442
   58  H 18  S    0.158010  -0.338691   0.001458  -0.396709  -0.529434
   59  H 19  S   -0.355273  -0.328399  -0.261286   0.252215  -0.369988
   60  H 20  S   -0.355263   0.328409   0.261281   0.252224  -0.369970

                     46         47         48         49         50
                    0.4370     0.4445     0.4679     0.4805     0.5065
                     A          A          A          A          A   
    1  C  1  S    0.065905   0.039060  -0.123835  -0.070940   0.037851
    2  C  1  S   -0.390770  -0.244267   0.767297   0.431931  -0.241025
    3  C  1  X    0.080445  -0.203918  -0.014602   0.082173  -0.044911
    4  C  1  Y    0.074739   0.160520  -0.020309   0.114524  -0.375094
    5  C  1  Z    0.000000   0.000000   0.000000   0.000000   0.000000
    6  C  2  S   -0.065906  -0.039064  -0.123835   0.070939   0.037849
    7  C  2  S    0.390772   0.244292   0.767299  -0.431920  -0.241013
    8  C  2  X    0.080438  -0.203920   0.014599   0.082181   0.044905
    9  C  2  Y    0.074731   0.160522   0.020300   0.114529   0.375096
   10  C  2  Z    0.000000   0.000000   0.000000   0.000000   0.000000
   11  C  3  S   -0.049429  -0.070476   0.076367   0.064839  -0.122109
   12  C  3  S    0.295262   0.439998  -0.488674  -0.401588   0.791667
   13  C  3  X    0.095289  -0.290914   0.275214   0.132944   0.117041
   14  C  3  Y    0.015156   0.356022  -0.053542   0.109174  -0.075065
   15  C  3  Z    0.000000   0.000000   0.000000   0.000000   0.000000
   16  C  4  S    0.049432   0.070477   0.076367  -0.064839  -0.122108
   17  C  4  S   -0.295281  -0.440007  -0.488671   0.401588   0.791657
   18  C  4  X    0.095293  -0.290921  -0.275217   0.132935  -0.117042
   19  C  4  Y    0.015152   0.356017   0.053527   0.109185   0.075063
   20  C  4  Z    0.000000   0.000000   0.000000   0.000000   0.000000
   21  C  5  S    0.089578   0.029839   0.064966  -0.074708   0.102813
   22  C  5  S   -0.556854  -0.173767  -0.416441   0.467333  -0.667807
   23  C  5  X   -0.111444  -0.148442  -0.246832   0.159200   0.201964
   24  C  5  Y   -0.077226   0.215027   0.211123   0.154453  -0.130227
   25  C  5  Z    0.000000   0.000000   0.000000   0.000000   0.000000
   26  C  6  S   -0.089581  -0.029837   0.064966   0.074711   0.102810
   27  C  6  S    0.556868   0.173754  -0.416440  -0.467348  -0.667793
   28  C  6  X   -0.111439  -0.148435   0.246827   0.159200  -0.201969
   29  C  6  Y   -0.077229   0.215018  -0.211131   0.154450   0.130228
   30  C  6  Z    0.000000   0.000000   0.000000   0.000000   0.000000
   31  H  7  S   -0.133109  -0.671499   0.340404   0.136678  -0.269746
   32  H  8  S    0.133114   0.671500   0.340390  -0.136667  -0.269741
   33  H  9  S    0.352507   0.019006   0.207695  -0.493559   0.333585
   34  H 10  S   -0.352511  -0.019003   0.207684   0.493566   0.333576
   35  C 11  S    0.053764  -0.059583   0.094286  -0.072636  -0.032058
   36  C 11  S   -0.348685   0.378255  -0.578592   0.446212   0.230610
   37  C 11  X    0.169771   0.003406   0.100621   0.071836  -0.065287
   38  C 11  Y    0.223178  -0.170641   0.127297  -0.069245  -0.011539
   39  C 11  Z    0.000000   0.000000   0.000000   0.000000   0.000000
   40  C 12  S   -0.053763   0.059585   0.094284   0.072638  -0.032058
   41  C 12  S    0.348681  -0.378271  -0.578581  -0.446226   0.230614
   42  C 12  X    0.169777   0.003402  -0.100626   0.071833   0.065286
   43  C 12  Y    0.223179  -0.170648  -0.127295  -0.069247   0.011541
   44  C 12  Z    0.000000   0.000000   0.000000   0.000000   0.000000
   45  H 13  S    0.318205  -0.376551   0.376695  -0.299658  -0.060712
   46  H 14  S   -0.318202   0.376564   0.376685   0.299666  -0.060715
   47  C 15  S    0.094757   0.012990  -0.071908   0.109653  -0.054574
   48  C 15  S   -0.610741  -0.074989   0.445697  -0.700527   0.357973
   49  C 15  X   -0.232256   0.251919   0.086750  -0.074410   0.374373
   50  C 15  Y   -0.233515  -0.153357   0.004435  -0.127427   0.132238
   51  C 15  Z    0.000000   0.000000   0.000000   0.000000   0.000000
   52  C 16  S   -0.094760  -0.012990  -0.071904  -0.109656  -0.054573
   53  C 16  S    0.610762   0.074988   0.445674   0.700545   0.357967
   54  C 16  X   -0.232255   0.251923  -0.086753  -0.074420  -0.374371
   55  C 16  Y   -0.233524  -0.153357  -0.004424  -0.127427  -0.132238
   56  C 16  Z    0.000000   0.000000   0.000000   0.000000   0.000000
   57  H 17  S    0.444843   0.235125  -0.225933   0.490908  -0.267516
   58  H 18  S   -0.444861  -0.235126  -0.225910  -0.490915  -0.267513
   59  H 19  S    0.439517  -0.226174  -0.303360   0.365237  -0.438435
   60  H 20  S   -0.439524   0.226178  -0.303354  -0.365255  -0.438430

                     51         52         53         54         55
                    0.5537     0.5756     0.6017     0.6296     0.6544
                     A          A          A          A          A   
    1  C  1  S    0.080821   0.006912  -0.004026  -0.061126  -0.085594
    2  C  1  S   -0.552515  -0.033024   0.035792   0.436328   0.593778
    3  C  1  X   -0.610430  -0.065645   0.094294  -0.011040  -0.070232
    4  C  1  Y    0.115332  -0.569983  -0.211074   0.281141  -0.260805
    5  C  1  Z    0.000000   0.000000   0.000000   0.000000   0.000000
    6  C  2  S    0.080822  -0.006910  -0.004029   0.061124   0.085593
    7  C  2  S   -0.552520   0.033004   0.035813  -0.436316  -0.593769
    8  C  2  X    0.610434  -0.065627  -0.094293  -0.011048  -0.070235
    9  C  2  Y   -0.115312  -0.569990   0.211054   0.281151  -0.260804
   10  C  2  Z    0.000000   0.000000   0.000000   0.000000   0.000000
   11  C  3  S   -0.018398  -0.101973  -0.005735  -0.034369  -0.011457
   12  C  3  S    0.125818   0.701931   0.046968   0.239231   0.096590
   13  C  3  X   -0.165256  -0.104395   0.250158   0.747006   0.071797
   14  C  3  Y   -0.504875   0.019768  -0.517122   0.234995   0.210865
   15  C  3  Z    0.000000   0.000000   0.000000   0.000000   0.000000
   16  C  4  S   -0.018399   0.101972  -0.005734   0.034369   0.011457
   17  C  4  S    0.125829  -0.701926   0.046961  -0.239233  -0.096590
   18  C  4  X    0.165265  -0.104386  -0.250188   0.746997   0.071791
   19  C  4  Y    0.504885   0.019773   0.517115   0.235009   0.210862
   20  C  4  Z    0.000000   0.000000   0.000000   0.000000   0.000000
   21  C  5  S   -0.055001  -0.028997   0.009069   0.089710  -0.038870
   22  C  5  S    0.366877   0.213163  -0.071523  -0.635139   0.265954
   23  C  5  X    0.024100   0.484983   0.432660   0.393422   0.224711
   24  C  5  Y   -0.318817  -0.204754   0.554151  -0.334401  -0.351935
   25  C  5  Z    0.000000   0.000000   0.000000   0.000000   0.000000
   26  C  6  S   -0.055004   0.028995   0.009072  -0.089709   0.038871
   27  C  6  S    0.366896  -0.213151  -0.071546   0.635131  -0.265962
   28  C  6  X   -0.024113   0.484989  -0.432669   0.393410   0.224710
   29  C  6  Y    0.318813  -0.204733  -0.554143  -0.334427  -0.351937
   30  C  6  Z    0.000000   0.000000   0.000000   0.000000   0.000000
   31  H  7  S    0.270385  -0.326066   0.444798  -0.078397  -0.125716
   32  H  8  S    0.270386   0.326065   0.444804   0.078412   0.125716
   33  H  9  S    0.013325  -0.178559  -0.534765   0.275226  -0.033668
   34  H 10  S    0.013308   0.178570  -0.534756  -0.275245   0.033670
   35  C 11  S    0.063677   0.024334  -0.052483  -0.059803   0.025363
   36  C 11  S   -0.425099  -0.184952   0.367429   0.421388  -0.202237
   37  C 11  X   -0.009864  -0.027085   0.126462   0.040169  -0.480802
   38  C 11  Y    0.163353  -0.286917   0.086592  -0.058525   0.333843
   39  C 11  Z    0.000000   0.000000   0.000000   0.000000   0.000000
[...]
   11             0.208261   0.148196   0.087280   0.199960   0.091105
   12             0.208256   0.148200   0.087280   0.199959   0.091107
   13             0.061986   0.101608   0.000000   0.155110  -0.000001
   14             0.061984   0.101610   0.000000   0.155110  -0.000001
   15             0.205547   0.255273   0.025217   0.162898   0.042055
   16             0.205545   0.255274   0.025217   0.162898   0.042056
   17             0.009187   0.179825   0.000000   0.124966   0.000503
   18             0.009186   0.179825   0.000000   0.124965   0.000503
   19             0.062604   0.050890   0.000000   0.111684   0.020774
   20             0.062605   0.050889   0.000000   0.111683   0.020775

                     31         32         33         34         35

                  2.000000   2.000000   2.000000   2.000000   2.000000

    1             0.202649   0.316893   0.000778   0.000079   0.332134
    2             0.202649   0.316894   0.000778   0.000079   0.332134
    3             0.113087   0.045930   0.072942   0.506266   0.103660
    4             0.113087   0.045930   0.072943   0.506264   0.103660
    5             0.191537   0.047528   0.070797   0.493481   0.117645
    6             0.191537   0.047528   0.070797   0.493480   0.117645
    7             0.122331   0.000000   0.000000   0.000000   0.000000
    8             0.122331   0.000000   0.000000   0.000000   0.000000
    9             0.006020   0.000000   0.000000   0.000000   0.000000
   10             0.006020   0.000000   0.000000   0.000000   0.000000
   11             0.153531   0.381876   0.419888   0.000006   0.107788
   12             0.153532   0.381875   0.419888   0.000006   0.107788
   13             0.085600   0.000000   0.000000   0.000000   0.000000
   14             0.085600   0.000000   0.000000   0.000000   0.000000
   15             0.044929   0.207773   0.435595   0.000169   0.338772
   16             0.044930   0.207773   0.435595   0.000169   0.338773
   17             0.038209   0.000000   0.000000   0.000000   0.000000
   18             0.038209   0.000000   0.000000   0.000000   0.000000
   19             0.042106   0.000000   0.000000   0.000000   0.000000
   20             0.042106   0.000000   0.000000   0.000000   0.000000

               ----- POPULATIONS IN EACH AO -----
                             MULLIKEN      LOWDIN
              1  C  1  S      1.99056     1.98500
              2  C  1  S      1.13038     1.03035
              3  C  1  X      0.93591     0.98123
              4  C  1  Y      0.95407     1.00663
              5  C  1  Z      0.99255     0.99160
              6  C  2  S      1.99056     1.98500
              7  C  2  S      1.13038     1.03036
              8  C  2  X      0.93591     0.98123
              9  C  2  Y      0.95407     1.00663
             10  C  2  Z      0.99255     0.99160
             11  C  3  S      1.99071     1.98555
             12  C  3  S      1.14350     1.02815
             13  C  3  X      0.96024     1.01340
             14  C  3  Y      0.98318     1.01652
             15  C  3  Z      1.00176     1.00210
             16  C  4  S      1.99071     1.98555
             17  C  4  S      1.14350     1.02815
             18  C  4  X      0.96024     1.01340
             19  C  4  Y      0.98318     1.01652
             20  C  4  Z      1.00176     1.00210
             21  C  5  S      1.99067     1.98550
             22  C  5  S      1.14134     1.02574
             23  C  5  X      0.97106     1.01728
             24  C  5  Y      0.97594     1.01601
             25  C  5  Z      1.00133     1.00174
             26  C  6  S      1.99067     1.98550
             27  C  6  S      1.14134     1.02574
             28  C  6  X      0.97106     1.01728
             29  C  6  Y      0.97594     1.01602
             30  C  6  Z      1.00132     1.00174
             31  H  7  S      0.91966     0.95666
             32  H  8  S      0.91966     0.95666
             33  H  9  S      0.91796     0.95481
             34  H 10  S      0.91796     0.95481
             35  C 11  S      1.99084     1.98565
             36  C 11  S      1.14950     1.03282
             37  C 11  X      0.94275     0.99332
             38  C 11  Y      0.99827     1.03127
             39  C 11  Z      0.99684     0.99620
             40  C 12  S      1.99084     1.98565
             41  C 12  S      1.14950     1.03282
             42  C 12  X      0.94275     0.99332
             43  C 12  Y      0.99827     1.03127
             44  C 12  Z      0.99684     0.99620
             45  H 13  S      0.92033     0.95735
             46  H 14  S      0.92033     0.95735
             47  C 15  S      1.99091     1.98599
             48  C 15  S      1.16226     1.02926
             49  C 15  X      0.99921     1.03689
             50  C 15  Y      1.00239     1.03654
             51  C 15  Z      1.00753     1.00836
             52  C 16  S      1.99091     1.98599
             53  C 16  S      1.16226     1.02926
             54  C 16  X      0.99921     1.03689
             55  C 16  Y      1.00239     1.03654
             56  C 16  Z      1.00753     1.00836
             57  H 17  S      0.92063     0.95492
             58  H 18  S      0.92063     0.95492
             59  H 19  S      0.91772     0.95315
             60  H 20  S      0.91772     0.95315

          ----- MULLIKEN ATOMIC OVERLAP POPULATIONS -----
          (OFF-DIAGONAL ELEMENTS NEED TO BE MULTIPLIED BY 2)

             1           2           3           4           5

    1    4.7677048
    2   -0.0114181   4.7677083
    3    0.4991116  -0.0290791   4.8054084
    4   -0.0290789   0.4991114  -0.0131408   4.8054075
    5   -0.0289034   0.4983170   0.5155741  -0.0333561   4.8012234
    6    0.4983170  -0.0289033  -0.0333559   0.5155740  -0.0124812
    7   -0.0265334   0.0015325   0.3927353   0.0000524  -0.0264738
    8    0.0015325  -0.0265334   0.0000524   0.3927353   0.0015582
    9    0.0015307  -0.0256284  -0.0265855   0.0015603   0.3926000
   10   -0.0256283   0.0015307   0.0015602  -0.0265855   0.0000437
   11    0.0000188   0.4109628   0.0008661  -0.0302313  -0.0251058
   12    0.4109629   0.0000188  -0.0302313   0.0008661   0.0009459
   13   -0.0000008  -0.0267751  -0.0000200  -0.0042744   0.0011741
   14   -0.0267751  -0.0000008  -0.0042744  -0.0000200   0.0000241
   15    0.0000001  -0.0247968   0.0000165   0.0007686  -0.0042548
   16   -0.0247968   0.0000001   0.0007686   0.0000165  -0.0000086
   17   -0.0000003  -0.0040716  -0.0000155   0.0000172  -0.0005553
   18   -0.0040716  -0.0000003   0.0000172  -0.0000155  -0.0000005
   19    0.0000000   0.0015017   0.0000002  -0.0000186   0.0000177
   20    0.0015017   0.0000000  -0.0000186   0.0000002   0.0000001

             6           7           8           9          10

    6    4.8012242
    7    0.0015582   0.5846776
    8   -0.0264738   0.0000025   0.5846776
    9    0.0000437  -0.0044320  -0.0000408   0.5824319
   10    0.3925999  -0.0000408  -0.0044320   0.0000025   0.5824319
   11    0.0009459  -0.0000170  -0.0044821  -0.0035037  -0.0000180
   12   -0.0251058  -0.0044821  -0.0000170  -0.0000180  -0.0035037
   13    0.0000241   0.0000005   0.0010379   0.0000259  -0.0000019
   14    0.0011741   0.0010379   0.0000005  -0.0000019   0.0000259
   15   -0.0000086   0.0000001   0.0000394  -0.0006149   0.0000001
   16   -0.0042548   0.0000394   0.0000001   0.0000001  -0.0006149
   17   -0.0000005   0.0000027   0.0000013   0.0006111   0.0000000
   18   -0.0005553   0.0000013   0.0000027   0.0000000   0.0006111
   19    0.0000001   0.0000000  -0.0000032  -0.0000220   0.0000000
   20    0.0000177  -0.0000032   0.0000000   0.0000000  -0.0000220

            11          12          13          14          15

   11    4.7882775
   12    0.0000001   4.7882781
   13    0.3906531   0.0000000   0.5915180
   14    0.0000000   0.3906530   0.0000000   0.5915181
   15    0.5997810   0.0000000  -0.0293793   0.0000000   4.8388442
   16    0.0000000   0.5997809   0.0000000  -0.0293793   0.0000000
   17   -0.0247729   0.0000000   0.0023420   0.0000000   0.3897146
   18    0.0000000  -0.0247729   0.0000000   0.0023420   0.0000000
   19   -0.0251664   0.0000000  -0.0059985   0.0000000   0.3921793
   20    0.0000000  -0.0251664   0.0000000  -0.0059985   0.0000000

            16          17          18          19          20

   16    4.8388442
   17    0.0000000   0.5819402
   18    0.3897146   0.0000000   0.5819402
   19    0.0000000  -0.0245791   0.0000000   0.5798110
   20    0.3921793   0.0000000  -0.0245791   0.0000000   0.5798111

          TOTAL MULLIKEN AND LOWDIN ATOMIC POPULATIONS
       ATOM         MULL.POP.    CHARGE          LOW.POP.     CHARGE
    1 C             6.003473   -0.003473         5.994810    0.005190
    2 C             6.003476   -0.003476         5.994812    0.005188
    3 C             6.079389   -0.079389         6.045708   -0.045708
    4 C             6.079388   -0.079388         6.045708   -0.045708
    5 C             6.080339   -0.080339         6.046287   -0.046287
    6 C             6.080340   -0.080340         6.046287   -0.046287
    7 H             0.919658    0.080342         0.956656    0.043344
    8 H             0.919658    0.080342         0.956656    0.043344
    9 H             0.917959    0.082041         0.954813    0.045187
   10 H             0.917959    0.082041         0.954813    0.045187
   11 C             6.078208   -0.078208         6.039266   -0.039266
   12 C             6.078209   -0.078209         6.039266   -0.039266
   13 H             0.920326    0.079674         0.957352    0.042648
   14 H             0.920326    0.079674         0.957352    0.042648
   15 C             6.162290   -0.162290         6.097038   -0.097038
   16 C             6.162290   -0.162290         6.097038   -0.097038
   17 H             0.920634    0.079366         0.954917    0.045083
   18 H             0.920634    0.079366         0.954917    0.045083
   19 H             0.917722    0.082278         0.953152    0.046848
   20 H             0.917722    0.082278         0.953152    0.046848

          -------------------------------
          BOND ORDER AND VALENCE ANALYSIS     BOND ORDER THRESHOLD=0.050
          -------------------------------

                   BOND                       BOND                       BOND
  ATOM PAIR DIST  ORDER      ATOM PAIR DIST  ORDER      ATOM PAIR DIST  ORDER
    1   2  2.823  0.099        1   3  1.396  1.374        1   6  1.395  1.376
    1  12  1.496  1.056        2   4  1.396  1.374        2   5  1.395  1.376
    2  11  1.496  1.056        3   4  2.755  0.101        3   5  1.382  1.464
    3   7  1.083  0.962        4   6  1.382  1.464        4   8  1.083  0.962
    5   6  2.767  0.105        5   9  1.081  0.960        6  10  1.081  0.960
   11  13  1.084  0.959       11  15  1.314  1.919       12  14  1.084  0.959
   12  16  1.314  1.919       15  17  1.080  0.966       15  19  1.081  0.969
   16  18  1.080  0.966       16  20  1.081  0.969

                       TOTAL       BONDED        FREE
      ATOM            VALENCE     VALENCE     VALENCE
    1 C                 3.979       3.979       0.000
    2 C                 3.979       3.979       0.000
    3 C                 3.975       3.975       0.000
    4 C                 3.975       3.975       0.000
    5 C                 3.976       3.976       0.000
    6 C                 3.976       3.976       0.000
    7 H                 0.994       0.994       0.000
    8 H                 0.994       0.994       0.000
    9 H                 0.993       0.993       0.000
   10 H                 0.993       0.993       0.000
   11 C                 3.973       3.973       0.000
   12 C                 3.973       3.973       0.000
   13 H                 0.994       0.994       0.000
   14 H                 0.994       0.994       0.000
   15 C                 3.970       3.970       0.000
   16 C                 3.970       3.970       0.000
   17 H                 0.994       0.994       0.000
   18 H                 0.994       0.994       0.000
   19 H                 0.993       0.993       0.000
   20 H                 0.993       0.993       0.000

          ---------------------
          ELECTROSTATIC MOMENTS
          ---------------------

 POINT   1           X           Y           Z (BOHR)    CHARGE
                 0.000000    0.000000    0.000000        0.00 (A.U.)
         DX          DY          DZ         /D/  (DEBYE)
     0.000002   -0.000002    0.000000    0.000003
 ...... END OF PROPERTY EVALUATION ......
 STEP CPU TIME =     0.11 TOTAL CPU TIME =      197.0 (    3.3 MIN)
 TOTAL WALL CLOCK TIME=      205.2 SECONDS, CPU UTILIZATION IS  96.01%

 -----------------------------------------------------------------------
                            TD-DFT CALCULATION
                          CODED BY MAHITO CHIBA
 NATIONAL INSTITUTE OF ADVANCED INDUSTRIAL SCIENCE AND TECHNOLOGY, JAPAN
 -----------------------------------------------------------------------

 MEMORY REQUIRED TO SET UP GRID POINTS IS   5619901 WORDS.

     EXCHANGE FUNCTIONAL   =B88&HFX   
     CORRELATION FUNCTIONAL=LYP88&VWN5
     DFT THRESHOLD         =.181E-08
     GRID CHANGE THRESHOLD =.300E-03
  
 -TDDFT RUNTIME PARAMETERS-
    ILENG    =         200
    MAXGRD   =      476004
    TRIPLET  = T
    NSTATE   =           5
    IROOT    =           1
    NTRIAL   =           5
    MAXVEC   =         200
  
 MEMORY REQUIRED FOR TD-DFT ITERATIONS IS  33294033 WORDS.
 INITIAL VECTORS / MXVEC            5 /         200
 ITERATION #            1
    CURRENT VECTORS    1 TO   5 (   5 VECTORS)
    STATE NUMBER   1  ENERGY =    3.815236 EV
    STATE NUMBER   2  ENERGY =    5.021589 EV
    STATE NUMBER   3  ENERGY =    5.063363 EV
    STATE NUMBER   4  ENERGY =    5.604844 EV
    STATE NUMBER   5  ENERGY =    6.638358 EV
    MAX ERROR =  1.073E-02 / 1.000E-07
 ITERATION #            2
    CURRENT VECTORS    6 TO  15 (  10 VECTORS)
    STATE NUMBER   1  ENERGY =    3.075337 EV
    STATE NUMBER   2  ENERGY =    4.246626 EV
    STATE NUMBER   3  ENERGY =    4.940170 EV
    STATE NUMBER   4  ENERGY =    5.552058 EV
    STATE NUMBER   5  ENERGY =    6.092034 EV
    MAX ERROR =  1.408E-02 / 1.000E-07
 ITERATION #            3
    CURRENT VECTORS   16 TO  25 (  10 VECTORS)
    STATE NUMBER   1  ENERGY =    3.028047 EV
    STATE NUMBER   2  ENERGY =    4.228770 EV
    STATE NUMBER   3  ENERGY =    4.872320 EV
    STATE NUMBER   4  ENERGY =    4.958854 EV
    STATE NUMBER   5  ENERGY =    5.558969 EV
    MAX ERROR =  4.669E-04 / 1.000E-07
 ITERATION #            4
    CURRENT VECTORS   26 TO  35 (  10 VECTORS)
    STATE NUMBER   1  ENERGY =    3.027195 EV
    STATE NUMBER   2  ENERGY =    4.227729 EV
    STATE NUMBER   3  ENERGY =    4.861361 EV
    STATE NUMBER   4  ENERGY =    4.956230 EV
    STATE NUMBER   5  ENERGY =    5.558883 EV
    MAX ERROR =  8.240E-06 / 1.000E-07
 ITERATION #            5
    CURRENT VECTORS   36 TO  45 (  10 VECTORS)
    STATE NUMBER   1  ENERGY =    3.027186 EV
    STATE NUMBER   2  ENERGY =    4.227707 EV
    STATE NUMBER   3  ENERGY =    4.861243 EV
    STATE NUMBER   4  ENERGY =    4.956204 EV
    STATE NUMBER   5  ENERGY =    5.558881 EV
    MAX ERROR =  1.403E-07 / 1.000E-07
 ITERATION #            6
    CURRENT VECTORS   46 TO  49 (   4 VECTORS)
    STATE NUMBER   1  ENERGY =    3.027186 EV
    STATE NUMBER   2  ENERGY =    4.227704 EV
    STATE NUMBER   3  ENERGY =    4.861242 EV
    STATE NUMBER   4  ENERGY =    4.956203 EV
    STATE NUMBER   5  ENERGY =    5.558881 EV
    MAX ERROR =  3.078E-09 / 1.000E-07
  
   ---------------------------------  
     R-TDDFT CALCULATION CONVERGED
   ---------------------------------  
 NUMBER OF USED VECTORS / MAX =  49 / 200
 NUMBER OF ITERATIONS   / MAX =   6 / 100
 NUMBER OF SINGLE EXCITATIONS =   875
 NUMBER OF ATOMIC ORBITALS    =  60
 NUMBER OF TOTAL ELECTRONS    =          70.0035208

          -------------------
          TRIPLET EXCITATIONS
          -------------------

 STATE #   1  ENERGY =    3.027228 EV
 OSCILLATOR STRENGTH =    0.000000
        DRF    COEF       OCC      VIR
        ---    ----       ---      ---
         35 -1.105383     35  ->   36
         69 -0.389181     34  ->   37
        103 -0.405078     33  ->   38
        137  0.252485     32  ->   39
        168 -0.158406     28  ->   40

 STATE #   2  ENERGY =    4.227763 EV
 OSCILLATOR STRENGTH =    0.000000
        DRF    COEF       OCC      VIR
        ---    ----       ---      ---
         28  0.060885     28  ->   36
         33  0.826940     33  ->   36
        102 -0.369584     32  ->   38
        105  0.718282     35  ->   38
        133  0.100965     28  ->   39
        138  0.343337     33  ->   39
        172 -0.097944     32  ->   40
        175  0.055238     35  ->   40

 STATE #   3  ENERGY =    4.861309 EV
 OSCILLATOR STRENGTH =    0.000000
        DRF    COEF       OCC      VIR
        ---    ----       ---      ---
         32 -0.401471     32  ->   36
         34  0.391510     34  ->   36
         35  0.138419     35  ->   36
         67  0.030579     32  ->   37
         69 -0.870764     34  ->   37
         70  0.177880     35  ->   37
         98  0.162054     28  ->   38
        103  0.266230     33  ->   38
        137 -0.057762     32  ->   39
        139 -0.060472     34  ->   39
        140  0.319419     35  ->   39
        168 -0.126688     28  ->   40
        173  0.138403     33  ->   40

 STATE #   4  ENERGY =    4.956273 EV
 OSCILLATOR STRENGTH =    0.000000
        DRF    COEF       OCC      VIR
        ---    ----       ---      ---
         32  0.168884     32  ->   36
         34  0.785902     34  ->   36
         35 -0.053215     35  ->   36
         67  0.118840     32  ->   37
         69  0.394372     34  ->   37
         70  0.533700     35  ->   37
         98 -0.066691     28  ->   38
        103 -0.104260     33  ->   38
        139 -0.121275     34  ->   39
        140 -0.132599     35  ->   39
        168  0.056457     28  ->   40
        173 -0.056269     33  ->   40

 STATE #   5  ENERGY =    5.558958 EV
 OSCILLATOR STRENGTH =    0.000000
        DRF    COEF       OCC      VIR
        ---    ----       ---      ---
         32  0.040720     32  ->   36
         34  0.543505     34  ->   36
         67 -0.121058     32  ->   37
         69  0.049017     34  ->   37
         70 -0.860147     35  ->   37
        103 -0.033414     33  ->   38
        139 -0.041299     34  ->   39

                          SUMMARY OF TDDFT RESULTS

   STATE             ENERGY     EXCITATION      TRANSITION DIPOLE    OSCILLATOR
                    HARTREE          EV         X       Y       Z     STRENGTH
   0            -382.0432999970    0.000
   1            -381.9320539243    3.027     0.0000  0.0000  0.0000    0.000
   2            -381.8879360622    4.228     0.0000  0.0000  0.0000    0.000
   3            -381.8646542068    4.861     0.0000  0.0000  0.0000    0.000
   4            -381.8611644481    4.956     0.0000  0.0000  0.0000    0.000
   5            -381.8390166648    5.559     0.0000  0.0000  0.0000    0.000
  
 SELECTING EXCITED STATE IROOT=   1 AT E=     -381.9320539243
 AS THE STATE OF INTEREST.

 ..... DONE WITH TD-DFT EXCITATION ENERGIES .....
 STEP CPU TIME =  2072.25 TOTAL CPU TIME =     2269.2 (   37.8 MIN)
 TOTAL WALL CLOCK TIME=     2316.9 SECONDS, CPU UTILIZATION IS  97.94%
    33294033  WORDS OF DYNAMIC MEMORY USED
 EXECUTION OF GAMESS TERMINATED NORMALLY Wed Nov 14 15:26:08 2007
 DDI: 262808 bytes (0.3 MB / 0 MWords) used by master data server.

 ----------------------------------------
 CPU timing information for all processes
 ========================================
 0: 2268.484000 + 1.125000 = 2269.609000
 1: 0.015000 + 0.109000 = 0.124000
 ----------------------------------------
 ddikick.x: exited gracefully.
----- accounting info -----
