Jobname.Temp
SP        R                             STO-3G              
Number of atoms                            I                3
Charge                                     I                0
Multiplicity                               I                1
Number of electrons                        I               10
Number of alpha electrons                  I                5
Number of beta electrons                   I                5
Atomic numbers                             I   N=           3
           8           1           1
Current cartesian coordinates              R   N=           9
  0.00000000E+00  0.00000000E+00  0.00000000E+00  0.00000000E+00  0.00000000E+00
  1.87082886E+00  1.79835613E+00  0.00000000E+00 -5.15670321E-01
Nuclear charges                            R   N=           3
  8.00000000E+00  1.00000000E+00  1.00000000E+00
Number of basis functions                  I                7
Number of contracted shells                I                4
Number of primitive shells                 I               12
Highest angular momentum                   I                1
Largest degree of contraction              I                3
Shell types                                I   N=           4
           0          -1           0           0
Number of primitives per shell             I   N=           4
           3           3           3           3
Shell to atom map                          I   N=           4
           1           1           2           3
Primitive exponents                        R   N=          12
  1.30709320E+02  2.38088610E+01  6.44360830E+00  5.03315130E+00  1.16959610E+00
  3.80389000E-01  3.42525091E+00  6.23913730E-01  1.68855400E-01  3.42525091E+00
  6.23913730E-01  1.68855400E-01
Contraction coefficients                   R   N=          12
  1.54328969E-01  5.35328136E-01  4.44634536E-01 -9.99672287E-02  3.99512825E-01
  7.00115461E-01  1.54328971E-01  5.35328142E-01  4.44634542E-01  1.54328971E-01
  5.35328142E-01  4.44634542E-01
P(S=P) Contraction coefficients            R   N=          12
  0.00000000E+00  0.00000000E+00  0.00000000E+00  1.55916268E-01  6.07683714E-01
  3.91957386E-01  0.00000000E+00  0.00000000E+00  0.00000000E+00  0.00000000E+00
  0.00000000E+00  0.00000000E+00
Coordinates of each shell                  R   N=          12
  0.00000000E+00  0.00000000E+00  0.00000000E+00  0.00000000E+00  0.00000000E+00
  0.00000000E+00  0.00000000E+00  0.00000000E+00  1.87082886E+00  1.79835613E+00
  0.00000000E+00 -5.15670321E-01
Overlap Matrix                             R   N=          28
  1.00000000E+00  2.36703937E-01  1.00000000E+00  0.00000000E+00  0.00000000E+00
  1.00000000E+00  0.00000000E+00  0.00000000E+00  0.00000000E+00  1.00000000E+00
  0.00000000E+00  0.00000000E+00  0.00000000E+00  0.00000000E+00  1.00000000E+00
  4.99275403E-02  4.53531138E-01  0.00000000E+00  0.00000000E+00  3.81826707E-01
  1.00000000E+00  4.99275403E-02  4.53531138E-01  3.67035388E-01  0.00000000E+00
 -1.05245704E-01  2.28265950E-01  1.00000000E+00
Core Hamiltonian Matrix                    R   N=          28
 -3.26842998E+01 -7.60413751E+00 -9.30134234E+00 -1.39498079E-02 -1.65944737E-01
 -7.53725400E+00  0.00000000E+00  0.00000000E+00  0.00000000E+00 -7.43024427E+00
 -1.05119342E-02 -1.25048329E-01  3.06845459E-02  0.00000000E+00 -7.55485130E+00
 -1.61667742E+00 -3.53328195E+00 -5.12303311E-02  0.00000000E+00 -2.50389273E+00
 -4.93977743E+00 -1.61667742E+00 -3.53328195E+00 -2.42101716E+00  0.00000000E+00
  6.40920616E-01 -1.43529223E+00 -4.93977743E+00
Number of independent functions            I                7
Alpha MO coefficients                      R   N=          49
 -9.94196053E-01 -2.59434348E-02 -3.17376113E-03  2.68709327E-16 -2.39158020E-03
  5.62851549E-03  5.62852625E-03 -2.34667766E-01  8.48106710E-01  9.07887089E-02
 -6.09485099E-17  6.84113644E-02  1.55215751E-01  1.55220472E-01  1.86308729E-06
 -8.81875094E-06  3.65173682E-01  2.53964653E-16 -4.84605144E-01 -4.43480455E-01
  4.43487505E-01 -9.89097274E-02  5.14107048E-01 -6.21289990E-01  5.77362499E-16
 -4.68181824E-01 -2.86361258E-01 -2.86365046E-01 -1.04172626E-16  3.31264047E-16
 -4.28382846E-16 -1.00000000E+00 -5.54168257E-16 -3.64190041E-16  5.36864640E-18
  1.28784486E-01 -8.34790404E-01 -5.82422426E-01  9.49729438E-17 -4.38858123E-01
  7.77033800E-01  7.77063233E-01 -2.89888009E-06  1.87143746E-05 -5.86352438E-01
 -4.56635416E-17  7.78136204E-01 -8.10522275E-01  8.10487957E-01
Alpha Orbital Energies                     R   N=           7
 -2.02365853E+01 -1.24677981E+00 -5.98910202E-01 -4.44127256E-01 -3.85820401E-01
  5.78005508E-01  7.14374940E-01
Total SCF Density                          R   N=          28
  2.10655577E+00 -4.48161269E-01  1.96852822E+00  8.66049225E-02 -4.84663863E-01
  1.05521146E+00 -4.11561539E-16 -1.86204480E-16  3.12056512E-16  2.00000000E+00
  6.52611827E-02 -3.65218238E-01  2.40260411E-01  3.11945683E-16  9.17444402E-01
 -2.73937870E-02 -3.14458675E-02  6.00799329E-02  1.56559392E-16  7.19174213E-01
  6.05602588E-01 -2.73919699E-02 -3.14573982E-02  7.07880209E-01 -1.32045907E-16
 -1.40480067E-01 -1.81099687E-01  6.05622363E-01
Pure Switching                             I                1
Dipole_Data                                R   N=           3
  1.37229008E+00  6.76841748E-16  1.03417726E+00
Quadrupole_Data                            R   N=           6
 -4.71928314E+00 -1.88523963E-16 -6.11483679E+00 -3.57495063E-01 -3.41837624E-16
 -4.51418672E+00
Octapole_Data                              R   N=          10
 -7.55730740E-01  8.98642923E-17 -5.86752750E-01  1.97144442E-16 -7.05542126E-01
 -6.92475151E-18 -4.42134593E-01 -4.92657189E-01  3.67135165E-17 -2.35032371E-01
Hexadecapole_Data                          R   N=          15
 -5.32075864E+00 -4.15737399E-17 -1.62267904E+00 -5.29159611E-17 -3.25365220E+00
  1.88940379E-01 -4.64633742E-17  1.69299579E-01 -1.29633134E-16 -2.15507183E+00
 -1.67060632E-17 -1.71975574E+00  4.86050606E-01 -1.45040602E-16 -5.70767812E+00
