Jobname.Temp
SP        R                             STO-3G              
Number of atoms                            I                3
Charge                                     I                0
Multiplicity                               I                1
Number of electrons                        I               10
Number of alpha electrons                  I                5
Number of beta electrons                   I                5
Atomic numbers                             I   N=           3
           8           1           1
Current cartesian coordinates              R   N=           9
  0.00000000E+00  0.00000000E+00  0.00000000E+00  0.00000000E+00  0.00000000E+00
  1.87082886E+00  1.79835613E+00  0.00000000E+00 -5.15670321E-01
Nuclear charges                            R   N=           3
  8.00000000E+00  1.00000000E+00  1.00000000E+00
Number of basis functions                  I                7
Number of contracted shells                I                4
Number of primitive shells                 I               12
Highest angular momentum                   I                1
Largest degree of contraction              I                3
Shell types                                I   N=           4
           0          -1           0           0
Number of primitives per shell             I   N=           4
           3           3           3           3
Shell to atom map                          I   N=           4
           1           1           2           3
Primitive exponents                        R   N=          12
  1.30709320E+02  2.38088610E+01  6.44360830E+00  5.03315130E+00  1.16959610E+00
  3.80389000E-01  3.42525091E+00  6.23913730E-01  1.68855400E-01  3.42525091E+00
  6.23913730E-01  1.68855400E-01
Contraction coefficients                   R   N=          12
  1.54328969E-01  5.35328136E-01  4.44634536E-01 -9.99672287E-02  3.99512825E-01
  7.00115461E-01  1.54328971E-01  5.35328142E-01  4.44634542E-01  1.54328971E-01
  5.35328142E-01  4.44634542E-01
P(S=P) Contraction coefficients            R   N=          12
  0.00000000E+00  0.00000000E+00  0.00000000E+00  1.55916268E-01  6.07683714E-01
  3.91957386E-01  0.00000000E+00  0.00000000E+00  0.00000000E+00  0.00000000E+00
  0.00000000E+00  0.00000000E+00
Coordinates of each shell                  R   N=          12
  0.00000000E+00  0.00000000E+00  0.00000000E+00  0.00000000E+00  0.00000000E+00
  0.00000000E+00  0.00000000E+00  0.00000000E+00  1.87082886E+00  1.79835613E+00
  0.00000000E+00 -5.15670321E-01
Overlap Matrix                             R   N=          28
  1.00000000E+00  2.36703937E-01  1.00000000E+00  0.00000000E+00  0.00000000E+00
  1.00000000E+00  0.00000000E+00  0.00000000E+00  0.00000000E+00  1.00000000E+00
  0.00000000E+00  0.00000000E+00  0.00000000E+00  0.00000000E+00  1.00000000E+00
  4.99275403E-02  4.53531138E-01  0.00000000E+00  0.00000000E+00  3.81826707E-01
  1.00000000E+00  4.99275403E-02  4.53531138E-01  3.67035388E-01  0.00000000E+00
 -1.05245704E-01  2.28265950E-01  1.00000000E+00
Core Hamiltonian Matrix                    R   N=          28
 -3.26842998E+01 -7.60413751E+00 -9.30134234E+00 -1.39498079E-02 -1.65944737E-01
 -7.53725400E+00  0.00000000E+00  0.00000000E+00  0.00000000E+00 -7.43024427E+00
 -1.05119342E-02 -1.25048329E-01  3.06845459E-02  0.00000000E+00 -7.55485130E+00
 -1.61667742E+00 -3.53328195E+00 -5.12303311E-02  0.00000000E+00 -2.50389273E+00
 -4.93977743E+00 -1.61667742E+00 -3.53328195E+00 -2.42101716E+00  0.00000000E+00
  6.40920616E-01 -1.43529223E+00 -4.93977743E+00
Number of independent functions            I                7
Alpha MO coefficients                      R   N=          49
 -9.94196201E-01 -2.59428306E-02 -3.17390980E-03  2.54713472E-16 -2.39170535E-03
  5.62846039E-03  5.62846392E-03  2.34662767E-01 -8.48082001E-01 -9.08069694E-02
  2.73154500E-16 -6.84268100E-02 -1.55233235E-01 -1.55234758E-01  6.16845095E-07
 -2.83245795E-06  3.65131275E-01  3.44664800E-16 -4.84546331E-01 -4.43543321E-01
  4.43545240E-01 -9.89289465E-02  5.14208967E-01 -6.21239629E-01 -7.04365651E-15
 -4.68139337E-01 -2.86422657E-01 -2.86423359E-01 -8.01345468E-16  3.70338984E-15
 -4.16676679E-15  1.00000000E+00 -3.03172290E-15 -1.78926720E-15 -2.30982559E-15
 -1.28777690E-01  8.34752751E-01  5.82465395E-01 -2.44390893E-16  4.38911520E-01
 -7.77019398E-01 -7.77027167E-01 -7.74975787E-07  4.97684465E-06 -5.86386694E-01
  7.13681492E-17  7.78166915E-01 -8.10476638E-01  8.10467600E-01
Alpha Orbital Energies                     R   N=           7
 -2.02369259E+01 -1.24702967E+00 -5.99190465E-01 -4.44338918E-01 -3.86075871E-01
  5.77672790E-01  7.14049765E-01
Total SCF Density                          R   N=          28
  2.10655927E+00 -4.48182314E-01  1.96865395E+00  8.66105632E-02 -4.84707851E-01
  1.05503101E+00 -5.87319424E-16 -3.13575753E-16  6.18533784E-16  2.00000000E+00
  6.52656647E-02 -3.65252958E-01  2.40249821E-01  1.58766875E-16  9.17255070E-01
 -2.73760725E-02 -3.15506960E-02  6.01279245E-02  6.87056748E-17  7.19223311E-01
  6.05795306E-01 -2.73755611E-02 -3.15538596E-02  7.07936628E-01 -3.60905667E-16
 -1.40446839E-01 -1.81128232E-01  6.05800460E-01
Pure Switching                             I                1
Dipole_Data                                R   N=           3
  1.37159367E+00  1.60686206E-15  1.03359153E+00
Quadrupole_Data                            R   N=           6
 -4.72003687E+00 -3.27960308E-16 -6.11497224E+00 -3.57301798E-01 -2.07538832E-16
 -4.51510782E+00
Octapole_Data                              R   N=          10
 -7.56855362E-01  2.57494114E-16 -5.86883542E-01  5.74467489E-16 -7.05445378E-01
 -1.89266151E-17 -4.42244463E-01 -4.92849851E-01  1.83317747E-16 -2.36235043E-01
Hexadecapole_Data                          R   N=          15
 -5.32235132E+00 -5.10133581E-17 -1.62285519E+00 -8.20137276E-17 -3.25381534E+00
  1.89248469E-01 -3.64781394E-17  1.69335857E-01 -8.27667793E-17 -2.15545606E+00
 -2.47889684E-17 -1.71996384E+00  4.86172228E-01 -9.01418484E-17 -5.70965171E+00
