Jobname.Temp
SP        R                             STO-3G              
Number of atoms                            I                3
Charge                                     I                0
Multiplicity                               I                1
Number of electrons                        I               10
Number of alpha electrons                  I                5
Number of beta electrons                   I                5
Atomic numbers                             I   N=           3
           8           1           1
Current cartesian coordinates              R   N=           9
  0.00000000E+00  0.00000000E+00  0.00000000E+00  0.00000000E+00  0.00000000E+00
  1.87082886E+00  1.79835613E+00  0.00000000E+00 -5.15670321E-01
Nuclear charges                            R   N=           3
  8.00000000E+00  1.00000000E+00  1.00000000E+00
Number of basis functions                  I                7
Number of contracted shells                I                4
Number of primitive shells                 I               12
Highest angular momentum                   I                1
Largest degree of contraction              I                3
Shell types                                I   N=           4
           0          -1           0           0
Number of primitives per shell             I   N=           4
           3           3           3           3
Shell to atom map                          I   N=           4
           1           1           2           3
Primitive exponents                        R   N=          12
  1.30709320E+02  2.38088610E+01  6.44360830E+00  5.03315130E+00  1.16959610E+00
  3.80389000E-01  3.42525091E+00  6.23913730E-01  1.68855400E-01  3.42525091E+00
  6.23913730E-01  1.68855400E-01
Contraction coefficients                   R   N=          12
  1.54328969E-01  5.35328136E-01  4.44634536E-01 -9.99672287E-02  3.99512825E-01
  7.00115461E-01  1.54328971E-01  5.35328142E-01  4.44634542E-01  1.54328971E-01
  5.35328142E-01  4.44634542E-01
P(S=P) Contraction coefficients            R   N=          12
  0.00000000E+00  0.00000000E+00  0.00000000E+00  1.55916268E-01  6.07683714E-01
  3.91957386E-01  0.00000000E+00  0.00000000E+00  0.00000000E+00  0.00000000E+00
  0.00000000E+00  0.00000000E+00
Coordinates of each shell                  R   N=          12
  0.00000000E+00  0.00000000E+00  0.00000000E+00  0.00000000E+00  0.00000000E+00
  0.00000000E+00  0.00000000E+00  0.00000000E+00  1.87082886E+00  1.79835613E+00
  0.00000000E+00 -5.15670321E-01
Overlap Matrix                             R   N=          28
  1.00000000E+00  2.36703937E-01  1.00000000E+00  0.00000000E+00  0.00000000E+00
  1.00000000E+00  0.00000000E+00  0.00000000E+00  0.00000000E+00  1.00000000E+00
  0.00000000E+00  0.00000000E+00  0.00000000E+00  0.00000000E+00  1.00000000E+00
  4.99275403E-02  4.53531138E-01  0.00000000E+00  0.00000000E+00  3.81826707E-01
  1.00000000E+00  4.99275403E-02  4.53531138E-01  3.67035388E-01  0.00000000E+00
 -1.05245704E-01  2.28265950E-01  1.00000000E+00
Core Hamiltonian Matrix                    R   N=          28
 -3.26842998E+01 -7.60413751E+00 -9.30134234E+00 -1.39498079E-02 -1.65944737E-01
 -7.53725400E+00  0.00000000E+00  0.00000000E+00  0.00000000E+00 -7.43024427E+00
 -1.05119342E-02 -1.25048329E-01  3.06845459E-02  0.00000000E+00 -7.55485130E+00
 -1.61667742E+00 -3.53328195E+00 -5.12303311E-02  0.00000000E+00 -2.50389273E+00
 -4.93977743E+00 -1.61667742E+00 -3.53328195E+00 -2.42101716E+00  0.00000000E+00
  6.40920616E-01 -1.43529223E+00 -4.93977743E+00
Number of independent functions            I                7
Alpha MO coefficients                      R   N=          49
 -9.94199658E-01 -2.59310828E-02 -3.18920621E-03  1.19834514E-16 -2.40323926E-03
  5.63273746E-03  5.63273747E-03  2.34394947E-01 -8.46918150E-01 -9.37496407E-02
  1.90408646E-16 -7.06454195E-02 -1.55574389E-01 -1.55574379E-01 -3.11887604E-09
  1.62982336E-08  3.64040162E-01  5.82584162E-16 -4.83097615E-01 -4.45051226E-01
  4.45051207E-01 -1.00188141E-01  5.19912107E-01 -6.19166041E-01 -5.79016089E-15
 -4.66575063E-01 -2.88120185E-01 -2.88120187E-01 -6.84196774E-16  3.02789306E-15
 -3.62549033E-15  1.00000000E+00 -2.42916719E-15 -1.34748396E-15 -2.03983463E-15
 -1.28264240E-01  8.32398796E-01  5.84201559E-01 -9.69127252E-17  4.40227496E-01
 -7.76327425E-01 -7.76327381E-01  3.65645988E-09 -2.57246958E-08 -5.87067579E-01
  2.22711395E-17  7.79064959E-01 -8.09645574E-01  8.09645628E-01
Alpha Orbital Energies                     R   N=           7
 -2.02395274E+01 -1.24818998E+00 -6.00403352E-01 -4.43397559E-01 -3.86292185E-01
  5.73893394E-01  7.11758660E-01
Total SCF Density                          R   N=          28
  2.10682323E+00 -4.49643378E-01  1.97650275E+00  8.64587183E-02 -4.84861885E-01
  1.04938198E+00 -3.57199856E-16 -2.93699309E-16  3.06863563E-16  2.00000000E+00
  6.51513201E-02 -3.65369650E-01  2.39302295E-01 -4.56140318E-17  9.12144291E-01
 -2.63993784E-02 -3.63689372E-02  6.18895855E-02  6.51015070E-17  7.20819920E-01
  6.10637905E-01 -2.63993790E-02 -3.63689269E-02  7.09955653E-01 -2.82480631E-16
 -1.39192804E-01 -1.81644454E-01  6.10637868E-01
Pure Switching                             I                1
Dipole_Data                                R   N=           3
  1.35097980E+00  1.37174780E-15  1.01803616E+00
Quadrupole_Data                            R   N=           6
 -4.73851583E+00 -1.15027210E-16 -6.11823761E+00 -3.52361259E-01 -3.21040034E-17
 -4.53644005E+00
Octapole_Data                              R   N=          10
 -7.87344897E-01  2.16572891E-16 -5.90586179E-01  4.94732575E-16 -7.02914380E-01
 -1.48138493E-17 -4.45038635E-01 -4.98254535E-01  1.56273479E-16 -2.65854569E-01
Hexadecapole_Data                          R   N=          15
 -5.36354615E+00  7.42928728E-18 -1.62723477E+00 -1.68346818E-17 -3.25759085E+00
  1.97219155E-01 -1.43287165E-17  1.70239998E-01 -2.21134061E-17 -2.16491383E+00
 -3.61650631E-18 -1.72486587E+00  4.89152304E-01 -2.89811102E-17 -5.75717420E+00
