Jobname.Temp
SP        R                             STO-3G              
Number of atoms                            I                3
Charge                                     I                0
Multiplicity                               I                1
Number of electrons                        I               10
Number of alpha electrons                  I                5
Number of beta electrons                   I                5
Atomic numbers                             I   N=           3
           8           1           1
Current cartesian coordinates              R   N=           9
 -4.16333634E-17  2.20235107E-17  2.25178583E-01 -1.49411036E+00 -1.60952237E-16
 -9.00714333E-01  1.49411036E+00 -1.52358492E-17 -9.00714333E-01
Nuclear charges                            R   N=           3
  8.00000000E+00  1.00000000E+00  1.00000000E+00
Number of basis functions                  I                7
Number of contracted shells                I                4
Number of primitive shells                 I               12
Highest angular momentum                   I                1
Largest degree of contraction              I                3
Shell types                                I   N=           4
           0          -1           0           0
Number of primitives per shell             I   N=           4
           3           3           3           3
Shell to atom map                          I   N=           4
           1           1           2           3
Primitive exponents                        R   N=          12
  1.30709320E+02  2.38088610E+01  6.44360830E+00  5.03315130E+00  1.16959610E+00
  3.80389000E-01  3.42525091E+00  6.23913730E-01  1.68855400E-01  3.42525091E+00
  6.23913730E-01  1.68855400E-01
Contraction coefficients                   R   N=          12
  1.54328969E-01  5.35328136E-01  4.44634536E-01 -9.99672287E-02  3.99512825E-01
  7.00115461E-01  1.54328971E-01  5.35328142E-01  4.44634542E-01  1.54328971E-01
  5.35328142E-01  4.44634542E-01
P(S=P) Contraction coefficients            R   N=          12
  0.00000000E+00  0.00000000E+00  0.00000000E+00  1.55916268E-01  6.07683714E-01
  3.91957386E-01  0.00000000E+00  0.00000000E+00  0.00000000E+00  0.00000000E+00
  0.00000000E+00  0.00000000E+00
Coordinates of each shell                  R   N=          12
 -4.16333634E-17  2.20235107E-17  2.25178583E-01 -4.16333634E-17  2.20235107E-17
  2.25178583E-01 -1.49411036E+00 -1.60952237E-16 -9.00714333E-01  1.49411036E+00
 -1.52358492E-17 -9.00714333E-01
Overlap Matrix                             R   N=          28
  1.00000000E+00  2.36703937E-01  1.00000000E+00  3.87698133E-33 -5.47882949E-33
  1.00000000E+00 -2.40538696E-33  1.92644297E-33 -1.92726265E-65  1.00000000E+00
 -1.35620957E-17  4.48705985E-17 -3.47184774E-49  1.94738903E-49  1.00000000E+00
  4.99275403E-02  4.53531138E-01 -3.04940367E-01 -3.73444244E-17 -2.29789048E-01
  1.00000000E+00  4.99275403E-02  4.53531138E-01  3.04940367E-01 -7.60444687E-18
 -2.29789048E-01  2.28265950E-01  1.00000000E+00
Core Hamiltonian Matrix                    R   N=          28
 -3.26842998E+01 -7.60413751E+00 -9.30134234E+00  0.00000000E+00  0.00000000E+00
 -7.57797376E+00  0.00000000E+00  0.00000000E+00  0.00000000E+00 -7.43024427E+00
  1.74670518E-02  2.07785322E-01  0.00000000E+00  0.00000000E+00 -7.51413153E+00
 -1.61667742E+00 -3.53328195E+00  1.96886646E+00 -2.53946188E-17  1.54779462E+00
 -4.93977743E+00 -1.61667742E+00 -3.53328195E+00 -1.96886646E+00 -5.17110740E-18
  1.54779462E+00 -1.43529223E+00 -4.93977743E+00
Number of independent functions            I                7
Alpha MO coefficients                      R   N=          49
 -9.94195046E-01 -2.59474404E-02  2.32452946E-16  3.16334479E-16  3.97082253E-03
  5.62865853E-03  5.62865853E-03 -2.34742023E-01  8.48477626E-01 -1.70696790E-15
  4.09070928E-16 -1.13122531E-01  1.55010346E-01  1.55010346E-01 -4.94396191E-16
  1.72084569E-15 -6.07298449E-01  7.23350409E-16  6.14786000E-15  4.43060794E-01
 -4.43060794E-01  9.86639774E-02 -5.12971630E-01 -4.74620343E-15 -1.60871347E-15
 -7.78484647E-01  2.85983739E-01  2.85983739E-01 -1.98062476E-16  8.55796870E-16
 -3.10449339E-16 -1.00000000E+00  1.04758291E-15 -2.14307328E-16 -6.58556157E-16
 -1.28845421E-01  8.35111780E-01  1.01724185E-14 -1.25451777E-16 -7.28762981E-01
 -7.77229700E-01 -7.77229700E-01  1.33053291E-15 -9.13158438E-15  9.74006002E-01
  1.18521790E-16  7.35522754E-15  8.10736527E-01 -8.10736527E-01
Alpha Orbital Energies                     R   N=           7
 -2.02365436E+01 -1.24719239E+00 -5.99230462E-01 -4.44943453E-01 -3.86542743E-01
  5.78066769E-01  7.14202813E-01
Total SCF Density                          R   N=          28
  2.10652437E+00 -4.47976717E-01  1.96745489E+00  3.12052433E-18 -1.29509681E-16
  7.37622812E-01 -7.42367805E-16  6.16613925E-16 -2.57680484E-16  2.00000000E+00
 -1.08403104E-01  6.06511138E-01  3.10560439E-16  3.19513600E-16  1.23770164E+00
 -2.75342666E-02 -3.06495676E-02 -5.38140266E-01  2.79840809E-16 -4.80293524E-01
  6.04298911E-01 -2.75342666E-02 -3.06495676E-02  5.38140266E-01 -1.13614357E-16
 -4.80293524E-01 -1.80912559E-01  6.04298911E-01
Pure Switching                             I                1
Dipole_Data                                R   N=           3
  6.34206942E-15 -2.18187855E-15 -1.72486627E+00
Quadrupole_Data                            R   N=           6
 -4.23749136E+00  4.19028249E-16 -6.11388577E+00 -7.14672933E-16 -4.09461439E-16
 -5.39532235E+00
Octapole_Data                              R   N=          10
  6.46093141E-15 -3.64365127E-16  1.23419934E-15 -8.10056493E-16 -6.23881036E-01
 -3.40570106E-17  4.94037541E-03  1.70042167E-15 -3.94000138E-16 -1.85421068E-01
Hexadecapole_Data                          R   N=          15
 -6.72106376E+00  1.02075920E-16 -1.84571472E+00  2.64343472E-17 -3.25251290E+00
 -1.63298881E-15 -3.68019643E-17 -2.03665759E-16 -2.58851810E-16 -1.72038210E+00
  3.76328883E-17 -1.40603554E+00 -6.54122903E-16 -2.52137537E-16 -4.96366531E+00
