Jobname.Temp
SP        R                             STO-3G              
Number of atoms                            I                3
Charge                                     I                0
Multiplicity                               I                1
Number of electrons                        I               10
Number of alpha electrons                  I                5
Number of beta electrons                   I                5
Atomic numbers                             I   N=           3
           8           1           1
Current cartesian coordinates              R   N=           9
  0.00000000E+00  0.00000000E+00  0.00000000E+00  0.00000000E+00  0.00000000E+00
  1.87082886E+00  1.79835613E+00  0.00000000E+00 -5.15670321E-01
Nuclear charges                            R   N=           3
  8.00000000E+00  1.00000000E+00  1.00000000E+00
Number of basis functions                  I                7
Number of contracted shells                I                4
Number of primitive shells                 I               12
Highest angular momentum                   I                1
Largest degree of contraction              I                3
Shell types                                I   N=           4
           0          -1           0           0
Number of primitives per shell             I   N=           4
           3           3           3           3
Shell to atom map                          I   N=           4
           1           1           2           3
Primitive exponents                        R   N=          12
  1.30709320E+02  2.38088610E+01  6.44360830E+00  5.03315130E+00  1.16959610E+00
  3.80389000E-01  3.42525091E+00  6.23913730E-01  1.68855400E-01  3.42525091E+00
  6.23913730E-01  1.68855400E-01
Contraction coefficients                   R   N=          12
  1.54328969E-01  5.35328136E-01  4.44634536E-01 -9.99672287E-02  3.99512825E-01
  7.00115461E-01  1.54328971E-01  5.35328142E-01  4.44634542E-01  1.54328971E-01
  5.35328142E-01  4.44634542E-01
P(S=P) Contraction coefficients            R   N=          12
  0.00000000E+00  0.00000000E+00  0.00000000E+00  1.55916268E-01  6.07683714E-01
  3.91957386E-01  0.00000000E+00  0.00000000E+00  0.00000000E+00  0.00000000E+00
  0.00000000E+00  0.00000000E+00
Coordinates of each shell                  R   N=          12
  0.00000000E+00  0.00000000E+00  0.00000000E+00  0.00000000E+00  0.00000000E+00
  0.00000000E+00  0.00000000E+00  0.00000000E+00  1.87082886E+00  1.79835613E+00
  0.00000000E+00 -5.15670321E-01
Overlap Matrix                             R   N=          28
  1.00000000E+00  2.36703937E-01  1.00000000E+00  0.00000000E+00  0.00000000E+00
  1.00000000E+00  0.00000000E+00  0.00000000E+00  0.00000000E+00  1.00000000E+00
  0.00000000E+00  0.00000000E+00  0.00000000E+00  0.00000000E+00  1.00000000E+00
  4.99275403E-02  4.53531138E-01  0.00000000E+00  0.00000000E+00  3.81826707E-01
  1.00000000E+00  4.99275403E-02  4.53531138E-01  3.67035388E-01  0.00000000E+00
 -1.05245704E-01  2.28265950E-01  1.00000000E+00
Core Hamiltonian Matrix                    R   N=          28
 -3.26842998E+01 -7.60413751E+00 -9.30134234E+00 -1.39498079E-02 -1.65944737E-01
 -7.53725400E+00  0.00000000E+00  0.00000000E+00  0.00000000E+00 -7.43024427E+00
 -1.05119342E-02 -1.25048329E-01  3.06845459E-02  0.00000000E+00 -7.55485130E+00
 -1.61667742E+00 -3.53328195E+00 -5.12303311E-02  0.00000000E+00 -2.50389273E+00
 -4.93977743E+00 -1.61667742E+00 -3.53328195E+00 -2.42101716E+00  0.00000000E+00
  6.40920616E-01 -1.43529223E+00 -4.93977743E+00
Number of independent functions            I                7
Alpha MO coefficients                      R   N=          49
 -9.94199353E-01 -2.59324880E-02 -3.18921995E-03  1.77915144E-16 -2.40325225E-03
  5.63323602E-03  5.63323977E-03 -2.34411106E-01  8.47012783E-01  9.37747491E-02
  5.70863804E-16  7.06636542E-02  1.55495938E-01  1.55492935E-01  9.73700549E-07
 -5.12992719E-06 -3.64127552E-01  2.29353941E-15  4.83214627E-01  4.44933024E-01
 -4.44926961E-01  1.00163503E-01 -5.19776755E-01  6.19242063E-01 -8.28096946E-16
  4.66627709E-01  2.88033641E-01  2.88034301E-01 -7.74922380E-17  7.82647694E-16
 -1.02685245E-15 -1.00000000E+00  5.96418709E-16  7.04800775E-16 -1.33100867E-15
 -1.28256313E-01  8.32386992E-01  5.84112405E-01  1.67001837E-16  4.40174791E-01
 -7.76382395E-01 -7.76368420E-01  1.16870462E-06 -8.21981279E-06 -5.87017897E-01
  8.65393559E-17  7.78988984E-01 -8.09703688E-01  8.09720761E-01
Alpha Orbital Energies                     R   N=           7
 -2.02391434E+01 -1.24796804E+00 -6.00153404E-01 -4.43210516E-01 -3.86118761E-01
  5.74179043E-01  7.12046315E-01
Total SCF Density                          R   N=          28
  2.10682730E+00 -4.49659602E-01  1.97654205E+00  8.64279555E-02 -4.84709293E-01
  1.04970696E+00 -6.32301114E-16  2.53362481E-16 -5.36231406E-16  2.00000000E+00
  6.51290063E-02 -3.65258749E-01  2.39275753E-01  3.30703702E-16  9.12473844E-01
 -2.63992849E-02 -3.63090213E-02  6.18276006E-02  3.33840225E-16  7.20753992E-01
  6.10278987E-01 -2.63994852E-02 -3.63056645E-02  7.09872930E-01  3.23596706E-16
 -1.39232538E-01 -1.81577753E-01  6.10267090E-01
Pure Switching                             I                1
Dipole_Data                                R   N=           3
  1.35232319E+00 -1.63711217E-15  1.01900209E+00
Quadrupole_Data                            R   N=           6
 -4.73684329E+00  2.79383203E-16 -6.11795418E+00 -3.52781782E-01 -3.81616324E-16
 -4.53457505E+00
Octapole_Data                              R   N=          10
 -7.84998761E-01 -3.12343628E-16 -5.90322915E-01 -7.59486001E-16 -7.03173047E-01
  1.69700586E-17 -4.44849349E-01 -4.97863892E-01 -3.24103243E-16 -2.63626519E-01
Hexadecapole_Data                          R   N=          15
 -5.36012464E+00  4.08345168E-17 -1.62685147E+00  6.86301941E-17 -3.25723887E+00
  1.96553576E-01 -4.10449186E-17  1.70159576E-01 -1.47045603E-16 -2.16411135E+00
  2.05912897E-17 -1.72444585E+00  4.88878963E-01 -1.78674232E-16 -5.75332607E+00
