Jobname.Temp
SP        R                             STO-3G              
Number of atoms                            I                3
Charge                                     I                0
Multiplicity                               I                1
Number of electrons                        I               10
Number of alpha electrons                  I                5
Number of beta electrons                   I                5
Atomic numbers                             I   N=           3
           8           1           1
Current cartesian coordinates              R   N=           9
  0.00000000E+00  0.00000000E+00  0.00000000E+00  0.00000000E+00  0.00000000E+00
  1.87082886E+00  1.79835613E+00  0.00000000E+00 -5.15670321E-01
Nuclear charges                            R   N=           3
  8.00000000E+00  1.00000000E+00  1.00000000E+00
Number of basis functions                  I                7
Number of contracted shells                I                4
Number of primitive shells                 I               12
Highest angular momentum                   I                1
Largest degree of contraction              I                3
Shell types                                I   N=           4
           0          -1           0           0
Number of primitives per shell             I   N=           4
           3           3           3           3
Shell to atom map                          I   N=           4
           1           1           2           3
Primitive exponents                        R   N=          12
  1.30709320E+02  2.38088610E+01  6.44360830E+00  5.03315130E+00  1.16959610E+00
  3.80389000E-01  3.42525091E+00  6.23913730E-01  1.68855400E-01  3.42525091E+00
  6.23913730E-01  1.68855400E-01
Contraction coefficients                   R   N=          12
  1.54328969E-01  5.35328136E-01  4.44634536E-01 -9.99672287E-02  3.99512825E-01
  7.00115461E-01  1.54328971E-01  5.35328142E-01  4.44634542E-01  1.54328971E-01
  5.35328142E-01  4.44634542E-01
P(S=P) Contraction coefficients            R   N=          12
  0.00000000E+00  0.00000000E+00  0.00000000E+00  1.55916268E-01  6.07683714E-01
  3.91957386E-01  0.00000000E+00  0.00000000E+00  0.00000000E+00  0.00000000E+00
  0.00000000E+00  0.00000000E+00
Coordinates of each shell                  R   N=          12
  0.00000000E+00  0.00000000E+00  0.00000000E+00  0.00000000E+00  0.00000000E+00
  0.00000000E+00  0.00000000E+00  0.00000000E+00  1.87082886E+00  1.79835613E+00
  0.00000000E+00 -5.15670321E-01
Overlap Matrix                             R   N=          28
  1.00000000E+00  2.36703937E-01  1.00000000E+00  0.00000000E+00  0.00000000E+00
  1.00000000E+00  0.00000000E+00  0.00000000E+00  0.00000000E+00  1.00000000E+00
  0.00000000E+00  0.00000000E+00  0.00000000E+00  0.00000000E+00  1.00000000E+00
  4.99275403E-02  4.53531138E-01  0.00000000E+00  0.00000000E+00  3.81826707E-01
  1.00000000E+00  4.99275403E-02  4.53531138E-01  3.67035388E-01  0.00000000E+00
 -1.05245704E-01  2.28265950E-01  1.00000000E+00
Core Hamiltonian Matrix                    R   N=          28
 -3.26842998E+01 -7.60413751E+00 -9.30134234E+00 -1.39498079E-02 -1.65944737E-01
 -7.53725400E+00  0.00000000E+00  0.00000000E+00  0.00000000E+00 -7.43024427E+00
 -1.05119342E-02 -1.25048329E-01  3.06845459E-02  0.00000000E+00 -7.55485130E+00
 -1.61667742E+00 -3.53328195E+00 -5.12303311E-02  0.00000000E+00 -2.50389273E+00
 -4.93977743E+00 -1.61667742E+00 -3.53328195E+00 -2.42101716E+00  0.00000000E+00
  6.40920616E-01 -1.43529223E+00 -4.93977743E+00
Number of independent functions            I                7
Alpha MO coefficients                      R   N=          49
  9.94195978E-01  2.59437310E-02  3.17355125E-03 -2.86123980E-16  2.39143782E-03
 -5.62852669E-03 -5.62852811E-03  2.34673502E-01 -8.48134992E-01 -9.07501866E-02
 -3.87010189E-16 -6.83838277E-02 -1.55203081E-01 -1.55203048E-01 -1.90519104E-07
  1.36187663E-06  3.65196360E-01 -1.74106868E-15 -4.84636685E-01 -4.43453088E-01
  4.43450256E-01 -9.88901034E-02  5.14017400E-01 -6.21327758E-01  2.79830073E-15
 -4.68200625E-01 -2.86333879E-01 -2.86336479E-01  3.68070954E-16 -1.84035639E-15
  2.35386897E-15  1.00000000E+00  9.80377519E-16  7.59319639E-17  1.60193293E-15
  1.28789681E-01 -8.34816866E-01 -5.82376502E-01  9.64819425E-17 -4.38857802E-01
  7.77065336E-01  7.77058325E-01  4.98686372E-07 -3.51365157E-06 -5.86349873E-01
 -5.26931234E-17  7.78107850E-01 -8.10519114E-01  8.10526473E-01
Alpha Orbital Energies                     R   N=           7
 -2.02364949E+01 -1.24672108E+00 -5.98853447E-01 -4.44099228E-01 -3.85782645E-01
  5.78098245E-01  7.14447023E-01
Total SCF Density                          R   N=          28
  2.10655310E+00 -4.48145779E-01  1.96843986E+00  8.66031288E-02 -4.84644078E-01
  1.05532446E+00 -5.67874620E-16 -1.62339458E-16  2.71766479E-17  2.00000000E+00
  6.52603721E-02 -3.65206336E-01  2.40263851E-01  1.07955622E-15  9.17533216E-01
 -2.74044754E-02 -3.13881231E-02  6.00531592E-02  2.16883142E-16  7.19150512E-01
  6.05514817E-01 -2.74042864E-02 -3.13884363E-02  7.07844130E-01  1.80551236E-16
 -1.40498851E-01 -1.81083758E-01  6.05512751E-01
Pure Switching                             I                1
Dipole_Data                                R   N=           3
  1.37272749E+00  8.66102134E-17  1.03441675E+00
Quadrupole_Data                            R   N=           6
 -4.71883830E+00 -1.04948943E-16 -6.11476634E+00 -3.57611462E-01 -9.42916067E-16
 -4.51376061E+00
Octapole_Data                              R   N=          10
 -7.55039451E-01 -6.65317671E-17 -5.86671749E-01 -1.00533886E-16 -7.05624315E-01
  9.46846795E-18 -4.42090394E-01 -4.92538565E-01 -7.91528202E-17 -2.34509243E-01
Hexadecapole_Data                          R   N=          15
 -5.31980059E+00 -6.44086839E-17 -1.62257685E+00 -4.89000467E-17 -3.25356825E+00
  1.88752157E-01 -1.05055787E-16  1.69277564E-01 -3.28508452E-16 -2.15486614E+00
 -1.75751809E-17 -1.71965772E+00  4.85976540E-01 -3.49116456E-16 -5.70677172E+00
