Jobname.Temp
SP        R                             STO-3G              
Number of atoms                            I                3
Charge                                     I                0
Multiplicity                               I                1
Number of electrons                        I               10
Number of alpha electrons                  I                5
Number of beta electrons                   I                5
Atomic numbers                             I   N=           3
           8           1           1
Current cartesian coordinates              R   N=           9
 -4.16333634E-17  2.20235107E-17  2.25178583E-01 -1.49411036E+00 -1.60952237E-16
 -9.00714333E-01  1.49411036E+00 -1.52358492E-17 -9.00714333E-01
Nuclear charges                            R   N=           3
  8.00000000E+00  1.00000000E+00  1.00000000E+00
Number of basis functions                  I                7
Number of contracted shells                I                4
Number of primitive shells                 I               12
Highest angular momentum                   I                1
Largest degree of contraction              I                3
Shell types                                I   N=           4
           0          -1           0           0
Number of primitives per shell             I   N=           4
           3           3           3           3
Shell to atom map                          I   N=           4
           1           1           2           3
Primitive exponents                        R   N=          12
  1.30709320E+02  2.38088610E+01  6.44360830E+00  5.03315130E+00  1.16959610E+00
  3.80389000E-01  3.42525091E+00  6.23913730E-01  1.68855400E-01  3.42525091E+00
  6.23913730E-01  1.68855400E-01
Contraction coefficients                   R   N=          12
  1.54328969E-01  5.35328136E-01  4.44634536E-01 -9.99672287E-02  3.99512825E-01
  7.00115461E-01  1.54328971E-01  5.35328142E-01  4.44634542E-01  1.54328971E-01
  5.35328142E-01  4.44634542E-01
P(S=P) Contraction coefficients            R   N=          12
  0.00000000E+00  0.00000000E+00  0.00000000E+00  1.55916268E-01  6.07683714E-01
  3.91957386E-01  0.00000000E+00  0.00000000E+00  0.00000000E+00  0.00000000E+00
  0.00000000E+00  0.00000000E+00
Coordinates of each shell                  R   N=          12
 -4.16333634E-17  2.20235107E-17  2.25178583E-01 -4.16333634E-17  2.20235107E-17
  2.25178583E-01 -1.49411036E+00 -1.60952237E-16 -9.00714333E-01  1.49411036E+00
 -1.52358492E-17 -9.00714333E-01
Overlap Matrix                             R   N=          28
  1.00000000E+00  2.36703937E-01  1.00000000E+00  3.87698133E-33 -5.47882949E-33
  1.00000000E+00 -2.40538696E-33  1.92644297E-33 -1.92726265E-65  1.00000000E+00
 -1.35620957E-17  4.48705985E-17 -3.47184774E-49  1.94738903E-49  1.00000000E+00
  4.99275403E-02  4.53531138E-01 -3.04940367E-01 -3.73444244E-17 -2.29789048E-01
  1.00000000E+00  4.99275403E-02  4.53531138E-01  3.04940367E-01 -7.60444687E-18
 -2.29789048E-01  2.28265950E-01  1.00000000E+00
Core Hamiltonian Matrix                    R   N=          28
 -3.26842998E+01 -7.60413751E+00 -9.30134234E+00  0.00000000E+00  0.00000000E+00
 -7.57797376E+00  0.00000000E+00  0.00000000E+00  0.00000000E+00 -7.43024427E+00
  1.74670518E-02  2.07785322E-01  0.00000000E+00  0.00000000E+00 -7.51413153E+00
 -1.61667742E+00 -3.53328195E+00  1.96886646E+00 -2.53946188E-17  1.54779462E+00
 -4.93977743E+00 -1.61667742E+00 -3.53328195E+00 -1.96886646E+00 -5.17110740E-18
  1.54779462E+00 -1.43529223E+00 -4.93977743E+00
Number of independent functions            I                7
Alpha MO coefficients                      R   N=          49
  9.94202200E-01  2.59193797E-02 -3.23092247E-16 -1.91559950E-16 -3.99307900E-03
 -5.62862177E-03 -5.62862177E-03  2.34264019E-01 -8.46149655E-01  1.92901251E-15
  3.59706164E-17  1.17101655E-01 -1.56228706E-01 -1.56228706E-01 -3.20576898E-15
  1.56541446E-14  6.03668539E-01  7.19362735E-16  1.88737914E-14 -4.46075662E-01
  4.46075662E-01 -1.00384656E-01  5.21006402E-01 -1.42802437E-14 -1.11079473E-15
  7.74516331E-01 -2.88841124E-01 -2.88841124E-01  1.30904856E-16 -7.04557957E-16
  4.82459364E-16 -1.00000000E+00 -6.14392365E-16  1.02437885E-16  7.08312851E-16
 -1.28330060E-01  8.32496489E-01  6.12010442E-15 -1.95075838E-16 -7.32353749E-01
 -7.75928031E-01 -7.75928031E-01  9.83588211E-16 -6.41153797E-15  9.76259900E-01
  1.73588415E-16  3.78863607E-15  8.09081633E-01 -8.09081633E-01
Alpha Orbital Energies                     R   N=           7
 -2.02427623E+01 -1.25004400E+00 -6.02460329E-01 -4.44958991E-01 -3.87762374E-01
  5.71406847E-01  7.09254593E-01
Total SCF Density                          R   N=          28
  2.10678945E+00 -4.49508727E-01  1.97617745E+00 -7.42050663E-16  7.38417295E-16
  7.28831411E-01 -4.02841624E-16  1.80850306E-16 -9.64054250E-17  2.00000000E+00
 -1.08573558E-01  6.08677889E-01  1.12082574E-15 -4.81918315E-16  1.22720858E+00
 -2.63990716E-02 -3.68821995E-02 -5.38563686E-01 -2.14052641E-16 -4.83968664E-01
  6.13703562E-01 -2.63990716E-02 -3.68821995E-02  5.38563686E-01 -1.42241741E-16
 -4.83968664E-01 -1.82230422E-01  6.13703562E-01
Pure Switching                             I                1
Dipole_Data                                R   N=           3
  4.78484630E-16 -7.04176751E-17 -1.67772263E+00
Quadrupole_Data                            R   N=           6
 -4.28936107E+00  1.09419120E-16 -6.12061063E+00  5.77961082E-16  3.29400304E-16
 -5.41509388E+00
Octapole_Data                              R   N=          10
  1.45717551E-16 -5.00603181E-18  2.45460060E-16  6.23068108E-17 -5.88342641E-01
 -2.50856186E-17  1.28820968E-02 -5.99151826E-16  8.18909418E-17 -1.49075670E-01
Hexadecapole_Data                          R   N=          15
 -6.81638210E+00 -5.61486716E-17 -1.85721047E+00 -1.07197395E-16 -3.26053674E+00
  9.39901596E-16  3.08687616E-17  8.24930888E-17 -1.75459442E-17 -1.74753986E+00
 -1.43625719E-17 -1.41164736E+00  7.78258597E-16  1.55565270E-17 -4.99322638E+00
