Jobname.Temp
SP        R                             STO-3G              
Number of atoms                            I                3
Charge                                     I                0
Multiplicity                               I                1
Number of electrons                        I               10
Number of alpha electrons                  I                5
Number of beta electrons                   I                5
Atomic numbers                             I   N=           3
           8           1           1
Current cartesian coordinates              R   N=           9
  0.00000000E+00  0.00000000E+00  0.00000000E+00  0.00000000E+00  0.00000000E+00
  1.87082886E+00  1.79835613E+00  0.00000000E+00 -5.15670321E-01
Nuclear charges                            R   N=           3
  8.00000000E+00  1.00000000E+00  1.00000000E+00
Number of basis functions                  I                7
Number of contracted shells                I                4
Number of primitive shells                 I               12
Highest angular momentum                   I                1
Largest degree of contraction              I                3
Shell types                                I   N=           4
           0          -1           0           0
Number of primitives per shell             I   N=           4
           3           3           3           3
Shell to atom map                          I   N=           4
           1           1           2           3
Primitive exponents                        R   N=          12
  1.30709320E+02  2.38088610E+01  6.44360830E+00  5.03315130E+00  1.16959610E+00
  3.80389000E-01  3.42525091E+00  6.23913730E-01  1.68855400E-01  3.42525091E+00
  6.23913730E-01  1.68855400E-01
Contraction coefficients                   R   N=          12
  1.54328969E-01  5.35328136E-01  4.44634536E-01 -9.99672287E-02  3.99512825E-01
  7.00115461E-01  1.54328971E-01  5.35328142E-01  4.44634542E-01  1.54328971E-01
  5.35328142E-01  4.44634542E-01
P(S=P) Contraction coefficients            R   N=          12
  0.00000000E+00  0.00000000E+00  0.00000000E+00  1.55916268E-01  6.07683714E-01
  3.91957386E-01  0.00000000E+00  0.00000000E+00  0.00000000E+00  0.00000000E+00
  0.00000000E+00  0.00000000E+00
Coordinates of each shell                  R   N=          12
  0.00000000E+00  0.00000000E+00  0.00000000E+00  0.00000000E+00  0.00000000E+00
  0.00000000E+00  0.00000000E+00  0.00000000E+00  1.87082886E+00  1.79835613E+00
  0.00000000E+00 -5.15670321E-01
Overlap Matrix                             R   N=          28
  1.00000000E+00  2.36703937E-01  1.00000000E+00  0.00000000E+00  0.00000000E+00
  1.00000000E+00  0.00000000E+00  0.00000000E+00  0.00000000E+00  1.00000000E+00
  0.00000000E+00  0.00000000E+00  0.00000000E+00  0.00000000E+00  1.00000000E+00
  4.99275403E-02  4.53531138E-01  0.00000000E+00  0.00000000E+00  3.81826707E-01
  1.00000000E+00  4.99275403E-02  4.53531138E-01  3.67035388E-01  0.00000000E+00
 -1.05245704E-01  2.28265950E-01  1.00000000E+00
Core Hamiltonian Matrix                    R   N=          28
 -3.26842998E+01 -7.60413751E+00 -9.30134234E+00 -1.39498079E-02 -1.65944737E-01
 -7.53725400E+00  0.00000000E+00  0.00000000E+00  0.00000000E+00 -7.43024427E+00
 -1.05119342E-02 -1.25048329E-01  3.06845459E-02  0.00000000E+00 -7.55485130E+00
 -1.61667742E+00 -3.53328195E+00 -5.12303311E-02  0.00000000E+00 -2.50389273E+00
 -4.93977743E+00 -1.61667742E+00 -3.53328195E+00 -2.42101716E+00  0.00000000E+00
  6.40920616E-01 -1.43529223E+00 -4.93977743E+00
Number of independent functions            I                7
Alpha MO coefficients                      R   N=          49
 -9.94199323E-01 -2.59326271E-02 -3.18922273E-03  4.04441451E-16 -2.40325167E-03
  5.63328747E-03  5.63328743E-03 -2.34412706E-01  8.47022157E-01  9.37768681E-02
  3.40428471E-16  7.06659471E-02  1.55486500E-01  1.55486533E-01 -1.06724690E-08
  5.65830291E-08 -3.64136766E-01  7.37000942E-16  4.83225799E-01  4.44917949E-01
 -4.44918017E-01  1.00161063E-01 -5.19763351E-01  6.19247106E-01 -4.94052801E-15
  4.66636217E-01  2.88025438E-01  2.88025432E-01 -6.75609282E-16  2.47325093E-15
 -2.87461142E-15 -1.00000000E+00 -2.05750384E-15 -1.05283551E-15 -1.68975070E-15
 -1.28255527E-01  8.32385819E-01  5.84111322E-01  1.52883237E-17  4.40159294E-01
 -7.76380084E-01 -7.76380235E-01 -1.26520375E-08  8.92976801E-08 -5.87007601E-01
  9.39110253E-17  7.78985506E-01 -8.09718917E-01  8.09718730E-01
Alpha Orbital Energies                     R   N=           7
 -2.02391051E+01 -1.24794587E+00 -6.00128461E-01 -4.43191797E-01 -3.86101391E-01
  5.74207545E-01  7.12075018E-01
Total SCF Density                          R   N=          28
  2.10682770E+00 -4.49661211E-01  1.97654595E+00  8.64253726E-02 -4.84696364E-01
  1.04973367E+00 -6.02270885E-16  7.45033472E-16 -8.45061873E-16  2.00000000E+00
  6.51261797E-02 -3.65244862E-01  2.39274686E-01  2.62594275E-16  9.12511966E-01
 -2.63993848E-02 -3.63012341E-02  6.18220150E-02  2.59061581E-17  7.20745989E-01
  6.10236839E-01 -2.63993825E-02 -3.63012720E-02  7.09865994E-01 -1.18832726E-17
 -1.39237403E-01 -1.81571139E-01  6.10236973E-01
Pure Switching                             I                1
Dipole_Data                                R   N=           3
  1.35243142E+00 -2.29364067E-15  1.01913070E+00
Quadrupole_Data                            R   N=           6
 -4.73670270E+00  6.80846459E-16 -6.11792611E+00 -3.52816246E-01 -2.23857926E-16
 -4.53436528E+00
Octapole_Data                              R   N=          10
 -7.84808813E-01 -2.79574307E-16 -5.90301711E-01 -8.45242810E-16 -7.03184130E-01
 -6.23182585E-19 -4.44824142E-01 -4.97832529E-01 -2.86696372E-16 -2.63354396E-01
Hexadecapole_Data                          R   N=          15
 -5.35984113E+00  2.29527931E-16 -1.62681834E+00  2.28507205E-16 -3.25720401E+00
  1.96499414E-01 -2.60113118E-17  1.70152997E-01 -7.71558699E-17 -2.16403406E+00
  7.62529953E-17 -1.72439941E+00  4.88856629E-01 -7.96851868E-17 -5.75288523E+00
