Jobname.Temp
SP        R                             STO-3G              
Number of atoms                            I                3
Charge                                     I                0
Multiplicity                               I                1
Number of electrons                        I               10
Number of alpha electrons                  I                5
Number of beta electrons                   I                5
Atomic numbers                             I   N=           3
           8           1           1
Current cartesian coordinates              R   N=           9
  0.00000000E+00  0.00000000E+00  0.00000000E+00  0.00000000E+00  0.00000000E+00
  1.87082886E+00  1.79835613E+00  0.00000000E+00 -5.15670321E-01
Nuclear charges                            R   N=           3
  8.00000000E+00  1.00000000E+00  1.00000000E+00
Number of basis functions                  I                7
Number of contracted shells                I                4
Number of primitive shells                 I               12
Highest angular momentum                   I                1
Largest degree of contraction              I                3
Shell types                                I   N=           4
           0          -1           0           0
Number of primitives per shell             I   N=           4
           3           3           3           3
Shell to atom map                          I   N=           4
           1           1           2           3
Primitive exponents                        R   N=          12
  1.30709320E+02  2.38088610E+01  6.44360830E+00  5.03315130E+00  1.16959610E+00
  3.80389000E-01  3.42525091E+00  6.23913730E-01  1.68855400E-01  3.42525091E+00
  6.23913730E-01  1.68855400E-01
Contraction coefficients                   R   N=          12
  1.54328969E-01  5.35328136E-01  4.44634536E-01 -9.99672287E-02  3.99512825E-01
  7.00115461E-01  1.54328971E-01  5.35328142E-01  4.44634542E-01  1.54328971E-01
  5.35328142E-01  4.44634542E-01
P(S=P) Contraction coefficients            R   N=          12
  0.00000000E+00  0.00000000E+00  0.00000000E+00  1.55916268E-01  6.07683714E-01
  3.91957386E-01  0.00000000E+00  0.00000000E+00  0.00000000E+00  0.00000000E+00
  0.00000000E+00  0.00000000E+00
Coordinates of each shell                  R   N=          12
  0.00000000E+00  0.00000000E+00  0.00000000E+00  0.00000000E+00  0.00000000E+00
  0.00000000E+00  0.00000000E+00  0.00000000E+00  1.87082886E+00  1.79835613E+00
  0.00000000E+00 -5.15670321E-01
Overlap Matrix                             R   N=          28
  1.00000000E+00  2.36703937E-01  1.00000000E+00  0.00000000E+00  0.00000000E+00
  1.00000000E+00  0.00000000E+00  0.00000000E+00  0.00000000E+00  1.00000000E+00
  0.00000000E+00  0.00000000E+00  0.00000000E+00  0.00000000E+00  1.00000000E+00
  4.99275403E-02  4.53531138E-01  0.00000000E+00  0.00000000E+00  3.81826707E-01
  1.00000000E+00  4.99275403E-02  4.53531138E-01  3.67035388E-01  0.00000000E+00
 -1.05245704E-01  2.28265950E-01  1.00000000E+00
Core Hamiltonian Matrix                    R   N=          28
 -3.26842998E+01 -7.60413751E+00 -9.30134234E+00 -1.39498079E-02 -1.65944737E-01
 -7.53725400E+00  0.00000000E+00  0.00000000E+00  0.00000000E+00 -7.43024427E+00
 -1.05119342E-02 -1.25048329E-01  3.06845459E-02  0.00000000E+00 -7.55485130E+00
 -1.61667742E+00 -3.53328195E+00 -5.12303311E-02  0.00000000E+00 -2.50389273E+00
 -4.93977743E+00 -1.61667742E+00 -3.53328195E+00 -2.42101716E+00  0.00000000E+00
  6.40920616E-01 -1.43529223E+00 -4.93977743E+00
Number of independent functions            I                7
Alpha MO coefficients                      R   N=          49
 -9.94197807E-01 -2.59364720E-02 -3.17836774E-03  2.67113555E-16 -2.39508151E-03
  5.62832981E-03  5.62832237E-03 -2.34536435E-01  8.47455327E-01  9.16104497E-02
  2.64715975E-16  6.90332640E-02  1.55575069E-01  1.55571477E-01 -1.68856649E-06
  8.92448466E-06  3.64641140E-01 -8.52369027E-16 -4.83897441E-01 -4.44225715E-01
  4.44215009E-01 -9.93534004E-02  5.16151383E-01 -6.20522727E-01 -1.12646608E-15
 -4.67587905E-01 -2.87035227E-01 -2.87035070E-01  2.27724171E-17  1.45340436E-16
 -4.22295385E-16  1.00000000E+00 -1.05877206E-15 -4.87266432E-16  3.53187107E-17
 -1.28668615E-01  8.34190414E-01  5.83087489E-01 -4.51454999E-17  4.39425164E-01
 -7.76749625E-01 -7.76709350E-01  3.60943601E-06 -2.38012039E-05 -5.86707408E-01
  3.61687125E-18  7.78558681E-01 -8.10079139E-01  8.10124371E-01
Alpha Orbital Energies                     R   N=           7
 -2.02367555E+01 -1.24619106E+00 -5.98446308E-01 -4.42731729E-01 -3.84728391E-01
  5.77806464E-01  7.14607110E-01
Total SCF Density                          R   N=          28
  2.10661543E+00 -4.48509125E-01  1.97053096E+00  8.66487304E-02 -4.85124422E-01
  1.05282839E+00 -3.85914320E-16 -4.37374433E-16 -2.14092605E-17  2.00000000E+00
  6.52952692E-02 -3.65571471E-01  2.40063577E-01 -2.03913020E-16  9.15133022E-01
 -2.71300386E-02 -3.29213041E-02  6.07266474E-02  5.14799731E-16  7.19800524E-01
  6.07921976E-01 -2.71313705E-02 -3.29113723E-02  7.08649872E-01  4.54090465E-17
 -1.40028504E-01 -1.81415664E-01  6.07900536E-01
Pure Switching                             I                1
Dipole_Data                                R   N=           3
  1.36321226E+00  6.94784697E-16  1.02716675E+00
Quadrupole_Data                            R   N=           6
 -4.72870460E+00 -3.82225671E-18 -6.11649338E+00 -3.55052873E-01 -7.79046272E-17
 -4.52516983E+00
Octapole_Data                              R   N=          10
 -7.70127126E-01  2.14399300E-17 -5.88443301E-01  8.92339614E-17 -7.04234073E-01
  2.38134123E-18 -4.43440344E-01 -4.95142562E-01 -7.28296595E-17 -2.49381658E-01
Hexadecapole_Data                          R   N=          15
 -5.34091134E+00 -8.65320017E-18 -1.62488176E+00 -4.75274266E-18 -3.25563350E+00
  1.92839955E-01 -2.08914589E-17  1.69754969E-01 -6.60296912E-17 -2.15980240E+00
 -1.90495454E-18 -1.72225126E+00  4.87572357E-01 -1.15721361E-16 -5.73132061E+00
