Jobname.Temp
SP        R                             STO-3G              
Number of atoms                            I                3
Charge                                     I                0
Multiplicity                               I                1
Number of electrons                        I               10
Number of alpha electrons                  I                5
Number of beta electrons                   I                5
Atomic numbers                             I   N=           3
           8           1           1
Current cartesian coordinates              R   N=           9
  0.00000000E+00  0.00000000E+00  0.00000000E+00  0.00000000E+00  0.00000000E+00
  1.87082886E+00  1.79835613E+00  0.00000000E+00 -5.15670321E-01
Nuclear charges                            R   N=           3
  8.00000000E+00  1.00000000E+00  1.00000000E+00
Number of basis functions                  I                7
Number of contracted shells                I                4
Number of primitive shells                 I               12
Highest angular momentum                   I                1
Largest degree of contraction              I                3
Shell types                                I   N=           4
           0          -1           0           0
Number of primitives per shell             I   N=           4
           3           3           3           3
Shell to atom map                          I   N=           4
           1           1           2           3
Primitive exponents                        R   N=          12
  1.30709320E+02  2.38088610E+01  6.44360830E+00  5.03315130E+00  1.16959610E+00
  3.80389000E-01  3.42525091E+00  6.23913730E-01  1.68855400E-01  3.42525091E+00
  6.23913730E-01  1.68855400E-01
Contraction coefficients                   R   N=          12
  1.54328969E-01  5.35328136E-01  4.44634536E-01 -9.99672287E-02  3.99512825E-01
  7.00115461E-01  1.54328971E-01  5.35328142E-01  4.44634542E-01  1.54328971E-01
  5.35328142E-01  4.44634542E-01
P(S=P) Contraction coefficients            R   N=          12
  0.00000000E+00  0.00000000E+00  0.00000000E+00  1.55916268E-01  6.07683714E-01
  3.91957386E-01  0.00000000E+00  0.00000000E+00  0.00000000E+00  0.00000000E+00
  0.00000000E+00  0.00000000E+00
Coordinates of each shell                  R   N=          12
  0.00000000E+00  0.00000000E+00  0.00000000E+00  0.00000000E+00  0.00000000E+00
  0.00000000E+00  0.00000000E+00  0.00000000E+00  1.87082886E+00  1.79835613E+00
  0.00000000E+00 -5.15670321E-01
Overlap Matrix                             R   N=          28
  1.00000000E+00  2.36703937E-01  1.00000000E+00  0.00000000E+00  0.00000000E+00
  1.00000000E+00  0.00000000E+00  0.00000000E+00  0.00000000E+00  1.00000000E+00
  0.00000000E+00  0.00000000E+00  0.00000000E+00  0.00000000E+00  1.00000000E+00
  4.99275403E-02  4.53531138E-01  0.00000000E+00  0.00000000E+00  3.81826707E-01
  1.00000000E+00  4.99275403E-02  4.53531138E-01  3.67035388E-01  0.00000000E+00
 -1.05245704E-01  2.28265950E-01  1.00000000E+00
Core Hamiltonian Matrix                    R   N=          28
 -3.26842998E+01 -7.60413751E+00 -9.30134234E+00 -1.39498079E-02 -1.65944737E-01
 -7.53725400E+00  0.00000000E+00  0.00000000E+00  0.00000000E+00 -7.43024427E+00
 -1.05119342E-02 -1.25048329E-01  3.06845459E-02  0.00000000E+00 -7.55485130E+00
 -1.61667742E+00 -3.53328195E+00 -5.12303311E-02  0.00000000E+00 -2.50389273E+00
 -4.93977743E+00 -1.61667742E+00 -3.53328195E+00 -2.42101716E+00  0.00000000E+00
  6.40920616E-01 -1.43529223E+00 -4.93977743E+00
Number of independent functions            I                7
Alpha MO coefficients                      R   N=          49
  9.94196133E-01  2.59431006E-02  3.17375771E-03 -1.88879309E-16  2.39159067E-03
 -5.62847199E-03 -5.62847555E-03  2.34667207E-01 -8.48103989E-01 -9.07800947E-02
  4.35200154E-17 -6.84065467E-02 -1.55221038E-01 -1.55222577E-01  6.23264435E-07
 -2.86201494E-06  3.65151797E-01 -7.37109925E-17 -4.84573571E-01 -4.43514942E-01
  4.43516881E-01 -9.89136413E-02  5.14137182E-01 -6.21268119E-01  2.96069763E-15
 -4.68160824E-01 -2.86396540E-01 -2.86397249E-01  2.53776066E-16 -1.60916519E-15
  1.83057618E-15  1.00000000E+00  1.27305532E-15  1.02473318E-15  9.38577280E-16
  1.28781877E-01 -8.34774620E-01 -5.82439228E-01  5.77750780E-17 -4.38891720E-01
  7.77031416E-01  7.77039270E-01 -7.83331622E-07  5.03056375E-06 -5.86373885E-01
 -6.92668600E-17  7.78149976E-01 -8.10492211E-01  8.10483075E-01
Alpha Orbital Energies                     R   N=           7
 -2.02368581E+01 -1.24699406E+00 -5.99151178E-01 -4.44327896E-01 -3.86054866E-01
  5.77741832E-01  7.14104074E-01
Total SCF Density                          R   N=          28
  2.10655712E+00 -4.48169690E-01  1.96858093E+00  8.66086916E-02 -4.84689576E-01
  1.05512202E+00 -4.33295442E-16 -2.57539712E-16 -8.05535615E-17  2.00000000E+00
  6.52642534E-02 -3.65239180E-01  2.40256056E-01 -1.61475401E-16  9.17342557E-01
 -2.73856886E-02 -3.14965595E-02  6.01037584E-02  4.07598852E-16  7.19199868E-01
  6.05707465E-01 -2.73851720E-02 -3.14997559E-02  7.07907447E-01  1.04514734E-16
 -1.40463615E-01 -1.81115387E-01  6.05712673E-01
Pure Switching                             I                1
Dipole_Data                                R   N=           3
  1.37194222E+00  1.92160475E-16  1.03385440E+00
Quadrupole_Data                            R   N=           6
 -4.71967304E+00  1.61993101E-17 -6.11490886E+00 -3.57395987E-01 -5.25994526E-17
 -4.51468977E+00
Octapole_Data                              R   N=          10
 -7.56300941E-01 -4.52090533E-17 -5.86818598E-01 -7.82840044E-17 -7.05497467E-01
  5.48096173E-18 -4.42195481E-01 -4.92754389E-01 -1.08340104E-16 -2.35692812E-01
Hexadecapole_Data                          R   N=          15
 -5.32157445E+00 -1.15603797E-17 -1.62277036E+00 -2.58297731E-18 -3.25373948E+00
  1.89097756E-01 -1.33388227E-17  1.69318219E-01 -4.77391544E-17 -2.15527481E+00
 -1.59914064E-18 -1.71986885E+00  4.86113180E-01 -8.69442798E-17 -5.70875405E+00
