Jobname.Temp
SP        R                             STO-3G              
Number of atoms                            I                3
Charge                                     I                0
Multiplicity                               I                1
Number of electrons                        I               10
Number of alpha electrons                  I                5
Number of beta electrons                   I                5
Atomic numbers                             I   N=           3
           8           1           1
Current cartesian coordinates              R   N=           9
 -4.16333634E-17  2.20235107E-17  2.25178583E-01 -1.49411036E+00 -1.60952237E-16
 -9.00714333E-01  1.49411036E+00 -1.52358492E-17 -9.00714333E-01
Nuclear charges                            R   N=           3
  8.00000000E+00  1.00000000E+00  1.00000000E+00
Number of basis functions                  I                7
Number of contracted shells                I                4
Number of primitive shells                 I               12
Highest angular momentum                   I                1
Largest degree of contraction              I                3
Shell types                                I   N=           4
           0          -1           0           0
Number of primitives per shell             I   N=           4
           3           3           3           3
Shell to atom map                          I   N=           4
           1           1           2           3
Primitive exponents                        R   N=          12
  1.30709320E+02  2.38088610E+01  6.44360830E+00  5.03315130E+00  1.16959610E+00
  3.80389000E-01  3.42525091E+00  6.23913730E-01  1.68855400E-01  3.42525091E+00
  6.23913730E-01  1.68855400E-01
Contraction coefficients                   R   N=          12
  1.54328969E-01  5.35328136E-01  4.44634536E-01 -9.99672287E-02  3.99512825E-01
  7.00115461E-01  1.54328971E-01  5.35328142E-01  4.44634542E-01  1.54328971E-01
  5.35328142E-01  4.44634542E-01
P(S=P) Contraction coefficients            R   N=          12
  0.00000000E+00  0.00000000E+00  0.00000000E+00  1.55916268E-01  6.07683714E-01
  3.91957386E-01  0.00000000E+00  0.00000000E+00  0.00000000E+00  0.00000000E+00
  0.00000000E+00  0.00000000E+00
Coordinates of each shell                  R   N=          12
 -4.16333634E-17  2.20235107E-17  2.25178583E-01 -4.16333634E-17  2.20235107E-17
  2.25178583E-01 -1.49411036E+00 -1.60952237E-16 -9.00714333E-01  1.49411036E+00
 -1.52358492E-17 -9.00714333E-01
Overlap Matrix                             R   N=          28
  1.00000000E+00  2.36703937E-01  1.00000000E+00  3.87698133E-33 -5.47882949E-33
  1.00000000E+00 -2.40538696E-33  1.92644297E-33 -1.92726265E-65  1.00000000E+00
 -1.35620957E-17  4.48705985E-17 -3.47184774E-49  1.94738903E-49  1.00000000E+00
  4.99275403E-02  4.53531138E-01 -3.04940367E-01 -3.73444244E-17 -2.29789048E-01
  1.00000000E+00  4.99275403E-02  4.53531138E-01  3.04940367E-01 -7.60444687E-18
 -2.29789048E-01  2.28265950E-01  1.00000000E+00
Core Hamiltonian Matrix                    R   N=          28
 -3.26842998E+01 -7.60413751E+00 -9.30134234E+00  0.00000000E+00  0.00000000E+00
 -7.57797376E+00  0.00000000E+00  0.00000000E+00  0.00000000E+00 -7.43024427E+00
  1.74670518E-02  2.07785322E-01  0.00000000E+00  0.00000000E+00 -7.51413153E+00
 -1.61667742E+00 -3.53328195E+00  1.96886646E+00 -2.53946188E-17  1.54779462E+00
 -4.93977743E+00 -1.61667742E+00 -3.53328195E+00 -1.96886646E+00 -5.17110740E-18
  1.54779462E+00 -1.43529223E+00 -4.93977743E+00
Number of independent functions            I                7
Alpha MO coefficients                      R   N=          49
  9.94202330E-01  2.59183327E-02 -1.65232411E-16 -2.33182585E-16 -3.99108587E-03
 -5.62734817E-03 -5.62734817E-03  2.34263185E-01 -8.46103115E-01  1.06858966E-15
 -7.50895157E-17  1.16680064E-01 -1.56332766E-01 -1.56332766E-01  9.40220124E-16
 -4.88498131E-15  6.03638482E-01  3.86286389E-16 -1.10050857E-14 -4.46100572E-01
  4.46100572E-01 -1.00298385E-01  5.20649633E-01  8.14626144E-15 -5.55701649E-16
  7.74636387E-01 -2.88800427E-01 -2.88800427E-01  1.08443587E-16 -2.83372506E-16
  2.82416370E-17 -1.00000000E+00 -6.03845568E-16 -2.48398167E-16  4.00814451E-16
 -1.28398013E-01  8.32766983E-01  7.89646126E-15 -1.95055522E-16 -7.32294070E-01
 -7.75922230E-01 -7.75922230E-01  1.09461051E-15 -7.60502772E-15  9.76278486E-01
  2.29109455E-16  6.05071548E-15  8.09067898E-01 -8.09067898E-01
Alpha Orbital Energies                     R   N=           7
 -2.02429852E+01 -1.25016862E+00 -6.02699020E-01 -4.45273302E-01 -3.87868111E-01
  5.71531344E-01  7.09209973E-01
Total SCF Density                          R   N=          28
  2.10675456E+00 -4.49326123E-01  1.97527656E+00 -3.26894105E-16  7.68331476E-16
  7.28758833E-01 -6.04257975E-16  1.03072832E-16  4.09871385E-16  2.00000000E+00
 -1.08657765E-01  6.08974685E-01 -4.14720293E-16  3.31096107E-16  1.22738340E+00
 -2.65030358E-02 -3.64720943E-02 -5.38566944E-01  4.99227225E-16 -4.83867554E-01
  6.13766015E-01 -2.65030358E-02 -3.64720943E-02  5.38566944E-01 -1.09907694E-16
 -4.83867554E-01 -1.82256865E-01  6.13766015E-01
Pure Switching                             I                1
Dipole_Data                                R   N=           3
  1.18163927E-14 -8.70069682E-16 -1.67785550E+00
Quadrupole_Data                            R   N=           6
 -4.29020418E+00 -3.44396331E-17 -6.12071820E+00 -4.71657488E-15 -1.46221117E-16
 -5.23957770E+00
Octapole_Data                              R   N=          10
  1.43295638E-14 -2.28613316E-16  2.20094694E-15 -2.98030578E-16 -3.62926396E-01
 -1.05181216E-16  3.34112446E-01  4.69298866E-15 -1.92464093E-16  6.89736073E-01
Hexadecapole_Data                          R   N=          15
 -6.81761368E+00 -2.74227865E-17 -1.85738820E+00 -1.11998791E-16 -3.26070175E+00
 -6.23705041E-15  7.75838808E-18 -1.01601868E-15 -1.65836492E-16 -1.69796833E+00
 -3.26555389E-18 -1.42997328E+00 -4.45589730E-15 -1.39034585E-16 -5.05103470E+00
