Jobname.Temp
SP        R                             STO-3G              
Number of atoms                            I                3
Charge                                     I                0
Multiplicity                               I                1
Number of electrons                        I               10
Number of alpha electrons                  I                5
Number of beta electrons                   I                5
Atomic numbers                             I   N=           3
           8           1           1
Current cartesian coordinates              R   N=           9
 -4.16333634E-17  2.20235107E-17  2.25178583E-01 -1.49411036E+00 -1.60952237E-16
 -9.00714333E-01  1.49411036E+00 -1.52358492E-17 -9.00714333E-01
Nuclear charges                            R   N=           3
  8.00000000E+00  1.00000000E+00  1.00000000E+00
Number of basis functions                  I                7
Number of contracted shells                I                4
Number of primitive shells                 I               12
Highest angular momentum                   I                1
Largest degree of contraction              I                3
Shell types                                I   N=           4
           0          -1           0           0
Number of primitives per shell             I   N=           4
           3           3           3           3
Shell to atom map                          I   N=           4
           1           1           2           3
Primitive exponents                        R   N=          12
  1.30709320E+02  2.38088610E+01  6.44360830E+00  5.03315130E+00  1.16959610E+00
  3.80389000E-01  3.42525091E+00  6.23913730E-01  1.68855400E-01  3.42525091E+00
  6.23913730E-01  1.68855400E-01
Contraction coefficients                   R   N=          12
  1.54328969E-01  5.35328136E-01  4.44634536E-01 -9.99672287E-02  3.99512825E-01
  7.00115461E-01  1.54328971E-01  5.35328142E-01  4.44634542E-01  1.54328971E-01
  5.35328142E-01  4.44634542E-01
P(S=P) Contraction coefficients            R   N=          12
  0.00000000E+00  0.00000000E+00  0.00000000E+00  1.55916268E-01  6.07683714E-01
  3.91957386E-01  0.00000000E+00  0.00000000E+00  0.00000000E+00  0.00000000E+00
  0.00000000E+00  0.00000000E+00
Coordinates of each shell                  R   N=          12
 -4.16333634E-17  2.20235107E-17  2.25178583E-01 -4.16333634E-17  2.20235107E-17
  2.25178583E-01 -1.49411036E+00 -1.60952237E-16 -9.00714333E-01  1.49411036E+00
 -1.52358492E-17 -9.00714333E-01
Overlap Matrix                             R   N=          28
  1.00000000E+00  2.36703937E-01  1.00000000E+00  3.87698133E-33 -5.47882949E-33
  1.00000000E+00 -2.40538696E-33  1.92644297E-33 -1.92726265E-65  1.00000000E+00
 -1.35620957E-17  4.48705985E-17 -3.47184774E-49  1.94738903E-49  1.00000000E+00
  4.99275403E-02  4.53531138E-01 -3.04940367E-01 -3.73444244E-17 -2.29789048E-01
  1.00000000E+00  4.99275403E-02  4.53531138E-01  3.04940367E-01 -7.60444687E-18
 -2.29789048E-01  2.28265950E-01  1.00000000E+00
Core Hamiltonian Matrix                    R   N=          28
 -3.26842998E+01 -7.60413751E+00 -9.30134234E+00  0.00000000E+00  0.00000000E+00
 -7.57797376E+00  0.00000000E+00  0.00000000E+00  0.00000000E+00 -7.43024427E+00
  1.74670518E-02  2.07785322E-01  0.00000000E+00  0.00000000E+00 -7.51413153E+00
 -1.61667742E+00 -3.53328195E+00  1.96886646E+00 -2.53946188E-17  1.54779462E+00
 -4.93977743E+00 -1.61667742E+00 -3.53328195E+00 -1.96886646E+00 -5.17110740E-18
  1.54779462E+00 -1.43529223E+00 -4.93977743E+00
Number of independent functions            I                7
Alpha MO coefficients                      R   N=          49
 -9.94202324E-01 -2.59183584E-02  4.81819445E-16  2.19325677E-16  3.99106606E-03
  5.62734902E-03  5.62734902E-03 -2.34263628E-01  8.46105280E-01 -1.01307851E-15
  2.97081865E-16 -1.16676470E-01  1.56331624E-01  1.56331624E-01 -8.69096461E-16
  4.21884749E-15 -6.03641749E-01  3.90863202E-16  9.93649607E-15  4.46097864E-01
 -4.46097864E-01  1.00296823E-01 -5.20642341E-01 -7.01522174E-15 -1.94232039E-15
 -7.74640000E-01  2.88797847E-01  2.88797847E-01 -1.02071490E-16  8.27459953E-16
 -1.45489745E-16 -1.00000000E+00  1.17455034E-15 -2.45617773E-16 -6.55115326E-16
 -1.28398477E-01  8.32769341E-01  8.70137296E-15 -8.40223197E-17 -7.32290820E-01
 -7.75923420E-01 -7.75923420E-01  1.28716482E-15 -7.85482790E-15  9.76276465E-01
  1.73544200E-16  6.09234885E-15  8.09069391E-01 -8.09069391E-01
Alpha Orbital Energies                     R   N=           7
 -2.02429777E+01 -1.25016396E+00 -6.02694445E-01 -4.45271373E-01 -3.87864720E-01
  5.71539032E-01  7.09216053E-01
Total SCF Density                          R   N=          28
  2.10675432E+00 -4.49324745E-01  1.97526871E+00 -8.41360216E-16  4.72179883E-16
  7.28766723E-01 -7.60773293E-16  8.58944507E-16 -1.80903203E-16  2.00000000E+00
 -1.08657609E-01  6.08972727E-01 -8.87374211E-16  5.92523210E-16  1.22739291E+00
 -2.65040608E-02 -3.64664525E-02 -5.38566590E-01 -1.86558843E-16 -4.83864255E-01
  6.13757489E-01 -2.65040608E-02 -3.64664525E-02  5.38566590E-01 -6.50166951E-17
 -4.83864255E-01 -1.82255728E-01  6.13757489E-01
Pure Switching                             I                1
Dipole_Data                                R   N=           3
  1.26405733E-14 -2.34330497E-15 -1.67789817E+00
Quadrupole_Data                            R   N=           6
 -4.29015717E+00  1.57866556E-16 -6.12071210E+00 -4.27446913E-15 -6.38346507E-16
 -5.23955530E+00
Octapole_Data                              R   N=          10
  1.47036985E-14 -2.75712182E-16  2.24334452E-15 -6.82039117E-16 -3.62961056E-01
 -2.28516179E-17  3.34104928E-01  4.76041976E-15 -3.33604772E-16  6.89699945E-01
Hexadecapole_Data                          R   N=          15
 -6.81752729E+00 -4.55850352E-17 -1.85737777E+00 -9.41694288E-17 -3.26069446E+00
 -6.21391288E-15 -7.32966714E-17 -9.50808728E-16 -3.53819902E-16 -1.69794020E+00
 -7.63574591E-18 -1.42996741E+00 -4.44834336E-15 -3.37026882E-16 -5.05100062E+00
