Jobname.Temp
SP        R                             STO-3G              
Number of atoms                            I                3
Charge                                     I                0
Multiplicity                               I                1
Number of electrons                        I               10
Number of alpha electrons                  I                5
Number of beta electrons                   I                5
Atomic numbers                             I   N=           3
           8           1           1
Current cartesian coordinates              R   N=           9
  0.00000000E+00  0.00000000E+00  0.00000000E+00  0.00000000E+00  0.00000000E+00
  1.87082886E+00  1.79835613E+00  0.00000000E+00 -5.15670321E-01
Nuclear charges                            R   N=           3
  8.00000000E+00  1.00000000E+00  1.00000000E+00
Number of basis functions                  I                7
Number of contracted shells                I                4
Number of primitive shells                 I               12
Highest angular momentum                   I                1
Largest degree of contraction              I                3
Shell types                                I   N=           4
           0          -1           0           0
Number of primitives per shell             I   N=           4
           3           3           3           3
Shell to atom map                          I   N=           4
           1           1           2           3
Primitive exponents                        R   N=          12
  1.30709320E+02  2.38088610E+01  6.44360830E+00  5.03315130E+00  1.16959610E+00
  3.80389000E-01  3.42525091E+00  6.23913730E-01  1.68855400E-01  3.42525091E+00
  6.23913730E-01  1.68855400E-01
Contraction coefficients                   R   N=          12
  1.54328969E-01  5.35328136E-01  4.44634536E-01 -9.99672287E-02  3.99512825E-01
  7.00115461E-01  1.54328971E-01  5.35328142E-01  4.44634542E-01  1.54328971E-01
  5.35328142E-01  4.44634542E-01
P(S=P) Contraction coefficients            R   N=          12
  0.00000000E+00  0.00000000E+00  0.00000000E+00  1.55916268E-01  6.07683714E-01
  3.91957386E-01  0.00000000E+00  0.00000000E+00  0.00000000E+00  0.00000000E+00
  0.00000000E+00  0.00000000E+00
Coordinates of each shell                  R   N=          12
  0.00000000E+00  0.00000000E+00  0.00000000E+00  0.00000000E+00  0.00000000E+00
  0.00000000E+00  0.00000000E+00  0.00000000E+00  1.87082886E+00  1.79835613E+00
  0.00000000E+00 -5.15670321E-01
Overlap Matrix                             R   N=          28
  1.00000000E+00  2.36703937E-01  1.00000000E+00  0.00000000E+00  0.00000000E+00
  1.00000000E+00  0.00000000E+00  0.00000000E+00  0.00000000E+00  1.00000000E+00
  0.00000000E+00  0.00000000E+00  0.00000000E+00  0.00000000E+00  1.00000000E+00
  4.99275403E-02  4.53531138E-01  0.00000000E+00  0.00000000E+00  3.81826707E-01
  1.00000000E+00  4.99275403E-02  4.53531138E-01  3.67035388E-01  0.00000000E+00
 -1.05245704E-01  2.28265950E-01  1.00000000E+00
Core Hamiltonian Matrix                    R   N=          28
 -3.26842998E+01 -7.60413751E+00 -9.30134234E+00 -1.39498079E-02 -1.65944737E-01
 -7.53725400E+00  0.00000000E+00  0.00000000E+00  0.00000000E+00 -7.43024427E+00
 -1.05119342E-02 -1.25048329E-01  3.06845459E-02  0.00000000E+00 -7.55485130E+00
 -1.61667742E+00 -3.53328195E+00 -5.12303311E-02  0.00000000E+00 -2.50389273E+00
 -4.93977743E+00 -1.61667742E+00 -3.53328195E+00 -2.42101716E+00  0.00000000E+00
  6.40920616E-01 -1.43529223E+00 -4.93977743E+00
Number of independent functions            I                7
Alpha MO coefficients                      R   N=          49
 -9.94194733E-01 -2.59486879E-02 -3.17060409E-03  3.66875597E-16 -2.38921267E-03
  5.62871041E-03  5.62871475E-03  2.34759144E-01 -8.48559334E-01 -9.02227478E-02
 -7.40787038E-16 -6.79863099E-02 -1.54968242E-01 -1.54970109E-01  7.57381933E-07
 -3.47990282E-06  3.65576785E-01 -2.70003610E-15 -4.85137703E-01 -4.42926961E-01
  4.42929327E-01 -9.85965731E-02  5.12650681E-01 -6.21856746E-01  6.21215661E-15
 -4.68604765E-01 -2.85856899E-01 -2.85857761E-01 -7.22317735E-16  3.43171132E-15
 -4.24553754E-15 -1.00000000E+00 -1.96814431E-15 -2.57002420E-16 -3.14375908E-15
  1.28868234E-01 -8.35225795E-01 -5.81898080E-01 -1.89459995E-16 -4.38482206E-01
  7.77279589E-01  7.77289230E-01 -9.59237523E-07  6.16170509E-06 -5.86108373E-01
 -1.19424494E-16  7.77798880E-01 -8.10814603E-01  8.10803408E-01
Alpha Orbital Energies                     R   N=           7
 -2.02354562E+01 -1.24625883E+00 -5.98339478E-01 -4.44100806E-01 -3.85621442E-01
  5.79170969E-01  7.15227763E-01
Total SCF Density                          R   N=          28
  2.10651262E+00 -4.47909229E-01  1.96707400E+00  8.65696076E-02 -4.84309857E-01
  1.05700479E+00 -8.57667963E-16  7.44092414E-16 -1.07786369E-15  2.00000000E+00
  6.52347826E-02 -3.64952898E-01  2.40382879E-01  8.32948533E-16  9.19153726E-01
 -2.75841416E-02 -3.03790048E-02  5.96040821E-02 -4.12006245E-16  7.18713488E-01
  6.03890596E-01 -2.75835154E-02 -3.03828845E-02  7.07302478E-01  5.77811220E-16
 -1.40810018E-01 -1.80847599E-01  6.03896931E-01
Pure Switching                             I                1
Dipole_Data                                R   N=           3
  1.37915160E+00 -2.44962669E-15  1.03929179E+00
Quadrupole_Data                            R   N=           6
 -4.71214451E+00  5.95066178E-16 -6.11359744E+00 -3.59344351E-01 -3.91732999E-16
 -4.50603951E+00
Octapole_Data                              R   N=          10
 -7.44831945E-01 -4.23070738E-16 -5.85475350E-01 -9.52189750E-16 -7.06575803E-01
  3.03015762E-17 -4.41182393E-01 -4.90779988E-01 -2.44539294E-16 -2.24475377E-01
Hexadecapole_Data                          R   N=          15
 -5.30550306E+00  1.05072819E-16 -1.62101548E+00  1.54704518E-16 -3.25217014E+00
  1.85979404E-01 -1.42588565E-17  1.68953226E-01 -8.54715514E-17 -2.15152511E+00
  4.74873096E-17 -1.71790380E+00  4.84891127E-01 -4.44583804E-17 -5.69018313E+00
