Jobname.Temp
SP        R                             STO-3G              
Number of atoms                            I                3
Charge                                     I                0
Multiplicity                               I                1
Number of electrons                        I               10
Number of alpha electrons                  I                5
Number of beta electrons                   I                5
Atomic numbers                             I   N=           3
           8           1           1
Current cartesian coordinates              R   N=           9
  0.00000000E+00  0.00000000E+00  0.00000000E+00  0.00000000E+00  0.00000000E+00
  1.87082886E+00  1.79835613E+00  0.00000000E+00 -5.15670321E-01
Nuclear charges                            R   N=           3
  8.00000000E+00  1.00000000E+00  1.00000000E+00
Number of basis functions                  I                7
Number of contracted shells                I                4
Number of primitive shells                 I               12
Highest angular momentum                   I                1
Largest degree of contraction              I                3
Shell types                                I   N=           4
           0          -1           0           0
Number of primitives per shell             I   N=           4
           3           3           3           3
Shell to atom map                          I   N=           4
           1           1           2           3
Primitive exponents                        R   N=          12
  1.30709320E+02  2.38088610E+01  6.44360830E+00  5.03315130E+00  1.16959610E+00
  3.80389000E-01  3.42525091E+00  6.23913730E-01  1.68855400E-01  3.42525091E+00
  6.23913730E-01  1.68855400E-01
Contraction coefficients                   R   N=          12
  1.54328969E-01  5.35328136E-01  4.44634536E-01 -9.99672287E-02  3.99512825E-01
  7.00115461E-01  1.54328971E-01  5.35328142E-01  4.44634542E-01  1.54328971E-01
  5.35328142E-01  4.44634542E-01
P(S=P) Contraction coefficients            R   N=          12
  0.00000000E+00  0.00000000E+00  0.00000000E+00  1.55916268E-01  6.07683714E-01
  3.91957386E-01  0.00000000E+00  0.00000000E+00  0.00000000E+00  0.00000000E+00
  0.00000000E+00  0.00000000E+00
Coordinates of each shell                  R   N=          12
  0.00000000E+00  0.00000000E+00  0.00000000E+00  0.00000000E+00  0.00000000E+00
  0.00000000E+00  0.00000000E+00  0.00000000E+00  1.87082886E+00  1.79835613E+00
  0.00000000E+00 -5.15670321E-01
Overlap Matrix                             R   N=          28
  1.00000000E+00  2.36703937E-01  1.00000000E+00  0.00000000E+00  0.00000000E+00
  1.00000000E+00  0.00000000E+00  0.00000000E+00  0.00000000E+00  1.00000000E+00
  0.00000000E+00  0.00000000E+00  0.00000000E+00  0.00000000E+00  1.00000000E+00
  4.99275403E-02  4.53531138E-01  0.00000000E+00  0.00000000E+00  3.81826707E-01
  1.00000000E+00  4.99275403E-02  4.53531138E-01  3.67035388E-01  0.00000000E+00
 -1.05245704E-01  2.28265950E-01  1.00000000E+00
Core Hamiltonian Matrix                    R   N=          28
 -3.26842998E+01 -7.60413751E+00 -9.30134234E+00 -1.39498079E-02 -1.65944737E-01
 -7.53725400E+00  0.00000000E+00  0.00000000E+00  0.00000000E+00 -7.43024427E+00
 -1.05119342E-02 -1.25048329E-01  3.06845459E-02  0.00000000E+00 -7.55485130E+00
 -1.61667742E+00 -3.53328195E+00 -5.12303311E-02  0.00000000E+00 -2.50389273E+00
 -4.93977743E+00 -1.61667742E+00 -3.53328195E+00 -2.42101716E+00  0.00000000E+00
  6.40920616E-01 -1.43529223E+00 -4.93977743E+00
Number of independent functions            I                7
Alpha MO coefficients                      R   N=          49
  9.94198747E-01  2.59327006E-02  3.18021174E-03 -3.72867576E-16  2.39645601E-03
 -5.62811381E-03 -5.62811656E-03  2.34480573E-01 -8.47178364E-01 -9.19280283E-02
  4.14040441E-18 -6.92718604E-02 -1.55729807E-01 -1.55730846E-01  3.60164466E-07
 -1.62411323E-06  3.64358020E-01  2.46542682E-16 -4.83521477E-01 -4.44610849E-01
  4.44611847E-01 -9.95463067E-02  5.17071768E-01 -6.20134903E-01 -5.59774367E-16
 -4.67305833E-01 -2.87399546E-01 -2.87401263E-01 -2.78387487E-17 -1.96694145E-16
  5.24121480E-16 -1.00000000E+00  5.69503489E-16 -2.19722497E-16  3.30984965E-16
 -1.28614054E-01  8.33901811E-01  5.83465546E-01 -8.96074350E-17  4.39666930E-01
 -7.76560009E-01 -7.76565861E-01 -6.15711076E-07  3.90867775E-06 -5.86867796E-01
  6.43849270E-17  7.78803892E-01 -8.09890719E-01  8.09883751E-01
Alpha Orbital Energies                     R   N=           7
 -2.02378142E+01 -1.24677489E+00 -5.99096077E-01 -4.43029198E-01 -3.85140467E-01
  5.76737289E-01  7.13715069E-01
Total SCF Density                          R   N=          28
  2.10664351E+00 -4.48674390E-01  1.97149380E+00  8.66773924E-02 -4.85385870E-01
  1.05156988E+00 -5.72342648E-16 -2.11853804E-16 -1.77444942E-16  2.00000000E+00
  6.53160872E-02 -3.65764200E-01  2.39986752E-01 -8.56613436E-16  9.13944188E-01
 -2.70033499E-02 -3.36409970E-02  6.10539930E-02  5.44879204E-16  7.20113169E-01
  6.09121508E-01 -2.70028604E-02 -3.36439000E-02  7.09047156E-01 -1.18071108E-16
 -1.39801625E-01 -1.81593296E-01  6.09125906E-01
Pure Switching                             I                1
Dipole_Data                                R   N=           3
  1.35836694E+00  2.05608126E-16  1.02362150E+00
Quadrupole_Data                            R   N=           6
 -4.73378971E+00  1.96240748E-16 -6.11737007E+00 -3.53736056E-01  4.07695934E-16
 -4.53090868E+00
Octapole_Data                              R   N=          10
 -7.77862601E-01 -4.06085560E-19 -5.89347893E-01 -6.59992651E-17 -7.03482806E-01
 -6.19188508E-18 -4.44102075E-01 -4.96472584E-01 -1.28069200E-16 -2.56763631E-01
Hexadecapole_Data                          R   N=          15
 -5.35176026E+00  8.47781001E-17 -1.62606523E+00  7.46362589E-17 -3.25668523E+00
  1.94946803E-01  2.71978827E-17  1.70001852E-01  9.03180267E-17 -2.16231417E+00
  2.57126447E-17 -1.72355642E+00  4.88399728E-01  3.73864500E-17 -5.74361314E+00
