Jobname.Temp
SP        R                             STO-3G              
Number of atoms                            I                3
Charge                                     I                0
Multiplicity                               I                1
Number of electrons                        I               10
Number of alpha electrons                  I                5
Number of beta electrons                   I                5
Atomic numbers                             I   N=           3
           8           1           1
Current cartesian coordinates              R   N=           9
  0.00000000E+00  0.00000000E+00  0.00000000E+00  0.00000000E+00  0.00000000E+00
  1.87082886E+00  1.79835613E+00  0.00000000E+00 -5.15670321E-01
Nuclear charges                            R   N=           3
  8.00000000E+00  1.00000000E+00  1.00000000E+00
Number of basis functions                  I                7
Number of contracted shells                I                4
Number of primitive shells                 I               12
Highest angular momentum                   I                1
Largest degree of contraction              I                3
Shell types                                I   N=           4
           0          -1           0           0
Number of primitives per shell             I   N=           4
           3           3           3           3
Shell to atom map                          I   N=           4
           1           1           2           3
Primitive exponents                        R   N=          12
  1.30709320E+02  2.38088610E+01  6.44360830E+00  5.03315130E+00  1.16959610E+00
  3.80389000E-01  3.42525091E+00  6.23913730E-01  1.68855400E-01  3.42525091E+00
  6.23913730E-01  1.68855400E-01
Contraction coefficients                   R   N=          12
  1.54328969E-01  5.35328136E-01  4.44634536E-01 -9.99672287E-02  3.99512825E-01
  7.00115461E-01  1.54328971E-01  5.35328142E-01  4.44634542E-01  1.54328971E-01
  5.35328142E-01  4.44634542E-01
P(S=P) Contraction coefficients            R   N=          12
  0.00000000E+00  0.00000000E+00  0.00000000E+00  1.55916268E-01  6.07683714E-01
  3.91957386E-01  0.00000000E+00  0.00000000E+00  0.00000000E+00  0.00000000E+00
  0.00000000E+00  0.00000000E+00
Coordinates of each shell                  R   N=          12
  0.00000000E+00  0.00000000E+00  0.00000000E+00  0.00000000E+00  0.00000000E+00
  0.00000000E+00  0.00000000E+00  0.00000000E+00  1.87082886E+00  1.79835613E+00
  0.00000000E+00 -5.15670321E-01
Overlap Matrix                             R   N=          28
  1.00000000E+00  2.36703937E-01  1.00000000E+00  0.00000000E+00  0.00000000E+00
  1.00000000E+00  0.00000000E+00  0.00000000E+00  0.00000000E+00  1.00000000E+00
  0.00000000E+00  0.00000000E+00  0.00000000E+00  0.00000000E+00  1.00000000E+00
  4.99275403E-02  4.53531138E-01  0.00000000E+00  0.00000000E+00  3.81826707E-01
  1.00000000E+00  4.99275403E-02  4.53531138E-01  3.67035388E-01  0.00000000E+00
 -1.05245704E-01  2.28265950E-01  1.00000000E+00
Core Hamiltonian Matrix                    R   N=          28
 -3.26842998E+01 -7.60413751E+00 -9.30134234E+00 -1.39498079E-02 -1.65944737E-01
 -7.53725400E+00  0.00000000E+00  0.00000000E+00  0.00000000E+00 -7.43024427E+00
 -1.05119342E-02 -1.25048329E-01  3.06845459E-02  0.00000000E+00 -7.55485130E+00
 -1.61667742E+00 -3.53328195E+00 -5.12303311E-02  0.00000000E+00 -2.50389273E+00
 -4.93977743E+00 -1.61667742E+00 -3.53328195E+00 -2.42101716E+00  0.00000000E+00
  6.40920616E-01 -1.43529223E+00 -4.93977743E+00
Number of independent functions            I                7
Alpha MO coefficients                      R   N=          49
 -9.94194667E-01 -2.59489535E-02 -3.17045385E-03  2.69895618E-16 -2.38909938E-03
  5.62872168E-03  5.62872605E-03 -2.34763517E-01  8.48581000E-01  9.01961910E-02
 -3.21133020E-17  6.79662862E-02  1.54956204E-01  1.54958087E-01  7.63819723E-07
 -3.50957929E-06  3.65597007E-01  3.59457416E-16 -4.85164545E-01 -4.42898971E-01
  4.42901357E-01 -9.85814816E-02  5.12579957E-01 -6.21884687E-01  9.51396049E-16
 -4.68625839E-01 -2.85831281E-01 -2.85832150E-01  1.00164472E-16 -4.87355768E-16
  2.51677432E-16  1.00000000E+00  1.50368083E-16  8.58215431E-16 -1.10877963E-17
 -1.28872326E-01  8.35247182E-01  5.81872368E-01 -2.92387172E-17  4.38462747E-01
 -7.77291364E-01 -7.77301091E-01 -9.67744593E-07  6.21642072E-06 -5.86095728E-01
  9.38799370E-17  7.77782160E-01 -8.10829937E-01  8.10818642E-01
Alpha Orbital Energies                     R   N=           7
 -2.02353896E+01 -1.24622395E+00 -5.98300947E-01 -4.44090056E-01 -3.85600894E-01
  5.79238938E-01  7.15281182E-01
Total SCF Density                          R   N=          28
  2.10651051E+00 -4.47896881E-01  1.96700255E+00  8.65677326E-02 -4.84291730E-01
  1.05709428E+00 -5.08830076E-16 -6.78894613E-17 -4.24633673E-16  2.00000000E+00
  6.52333687E-02 -3.64939231E-01  2.40388804E-01 -9.45408223E-16  9.19239873E-01
 -2.75935514E-02 -3.03260000E-02  5.95803446E-02  8.47232744E-16  7.18690303E-01
  6.03804254E-01 -2.75929199E-02 -3.03299125E-02  7.07273662E-01 -2.54560489E-16
 -1.40826453E-01 -1.80834773E-01  6.03810643E-01
Pure Switching                             I                1
Dipole_Data                                R   N=           3
  1.37949422E+00 -5.25899595E-16  1.03955019E+00
Quadrupole_Data                            R   N=           6
 -4.71178658E+00  4.56710685E-16 -6.11353510E+00 -3.59436951E-01  3.15624623E-16
 -4.50562827E+00
Octapole_Data                              R   N=          10
 -7.44286840E-01 -7.03034546E-17 -5.85411518E-01 -3.50577768E-16 -7.06627093E-01
 -1.33496612E-17 -4.41134250E-01 -4.90686165E-01 -2.80719412E-16 -2.23942199E-01
Hexadecapole_Data                          R   N=          15
 -5.30473917E+00  1.94018704E-16 -1.62093207E+00  1.72152965E-16 -3.25209555E+00
  1.85831163E-01  4.55480128E-18  1.68935872E-01  3.24741034E-17 -2.15134688E+00
  5.91821866E-17 -1.71781039E+00  4.84833018E-01 -4.99729420E-17 -5.68930041E+00
