Jobname.Temp
SP        R                             STO-3G              
Number of atoms                            I                3
Charge                                     I                0
Multiplicity                               I                1
Number of electrons                        I               10
Number of alpha electrons                  I                5
Number of beta electrons                   I                5
Atomic numbers                             I   N=           3
           8           1           1
Current cartesian coordinates              R   N=           9
 -4.16333634E-17  2.20235107E-17  2.25178583E-01 -1.49411036E+00 -1.60952237E-16
 -9.00714333E-01  1.49411036E+00 -1.52358492E-17 -9.00714333E-01
Nuclear charges                            R   N=           3
  8.00000000E+00  1.00000000E+00  1.00000000E+00
Number of basis functions                  I                7
Number of contracted shells                I                4
Number of primitive shells                 I               12
Highest angular momentum                   I                1
Largest degree of contraction              I                3
Shell types                                I   N=           4
           0          -1           0           0
Number of primitives per shell             I   N=           4
           3           3           3           3
Shell to atom map                          I   N=           4
           1           1           2           3
Primitive exponents                        R   N=          12
  1.30709320E+02  2.38088610E+01  6.44360830E+00  5.03315130E+00  1.16959610E+00
  3.80389000E-01  3.42525091E+00  6.23913730E-01  1.68855400E-01  3.42525091E+00
  6.23913730E-01  1.68855400E-01
Contraction coefficients                   R   N=          12
  1.54328969E-01  5.35328136E-01  4.44634536E-01 -9.99672287E-02  3.99512825E-01
  7.00115461E-01  1.54328971E-01  5.35328142E-01  4.44634542E-01  1.54328971E-01
  5.35328142E-01  4.44634542E-01
P(S=P) Contraction coefficients            R   N=          12
  0.00000000E+00  0.00000000E+00  0.00000000E+00  1.55916268E-01  6.07683714E-01
  3.91957386E-01  0.00000000E+00  0.00000000E+00  0.00000000E+00  0.00000000E+00
  0.00000000E+00  0.00000000E+00
Coordinates of each shell                  R   N=          12
 -4.16333634E-17  2.20235107E-17  2.25178583E-01 -4.16333634E-17  2.20235107E-17
  2.25178583E-01 -1.49411036E+00 -1.60952237E-16 -9.00714333E-01  1.49411036E+00
 -1.52358492E-17 -9.00714333E-01
Overlap Matrix                             R   N=          28
  1.00000000E+00  2.36703937E-01  1.00000000E+00  3.87698133E-33 -5.47882949E-33
  1.00000000E+00 -2.40538696E-33  1.92644297E-33 -1.92726265E-65  1.00000000E+00
 -1.35620957E-17  4.48705985E-17 -3.47184774E-49  1.94738903E-49  1.00000000E+00
  4.99275403E-02  4.53531138E-01 -3.04940367E-01 -3.73444244E-17 -2.29789048E-01
  1.00000000E+00  4.99275403E-02  4.53531138E-01  3.04940367E-01 -7.60444687E-18
 -2.29789048E-01  2.28265950E-01  1.00000000E+00
Core Hamiltonian Matrix                    R   N=          28
 -3.26842998E+01 -7.60413751E+00 -9.30134234E+00  0.00000000E+00  0.00000000E+00
 -7.57797376E+00  0.00000000E+00  0.00000000E+00  0.00000000E+00 -7.43024427E+00
  1.74670518E-02  2.07785322E-01  0.00000000E+00  0.00000000E+00 -7.51413153E+00
 -1.61667742E+00 -3.53328195E+00  1.96886646E+00 -2.53946188E-17  1.54779462E+00
 -4.93977743E+00 -1.61667742E+00 -3.53328195E+00 -1.96886646E+00 -5.17110740E-18
  1.54779462E+00 -1.43529223E+00 -4.93977743E+00
Number of independent functions            I                7
Alpha MO coefficients                      R   N=          49
 -9.94195125E-01 -2.59471266E-02  3.42174206E-16 -1.67313640E-17  3.97104532E-03
  5.62864513E-03  5.62864513E-03 -2.34736825E-01  8.48451852E-01 -6.93889390E-16
  5.20083642E-16 -1.13161804E-01  1.55024692E-01  1.55024692E-01 -2.47024623E-15
  1.15740750E-14 -6.07258778E-01  6.12334531E-16  1.67643677E-14  4.43093814E-01
 -4.43093814E-01  9.86818258E-02 -5.13055245E-01 -1.15740750E-14 -5.21694393E-15
 -7.78443284E-01  2.86013964E-01  2.86013964E-01 -3.24692757E-16  2.71824638E-15
 -4.07321701E-16 -1.00000000E+00  3.46456305E-15 -1.34055766E-15 -1.67941560E-15
 -1.28840614E-01  8.35086610E-01 -7.21644966E-15 -5.54085225E-19 -7.28801066E-01
 -7.77215717E-01 -7.77215717E-01 -9.74914593E-16  6.74460487E-15  9.74030736E-01
  2.85050920E-16 -5.05151476E-15  8.10718481E-01 -8.10718481E-01
Alpha Orbital Energies                     R   N=           7
 -2.02366146E+01 -1.24722595E+00 -5.99268916E-01 -4.44948276E-01 -3.86558825E-01
  5.77994343E-01  7.14147449E-01
Total SCF Density                          R   N=          28
  2.10652685E+00 -4.47991232E-01  1.96753897E+00  3.61242636E-16 -3.37585788E-15
  7.37526448E-01 -5.91146675E-16  8.00068256E-16  7.09523639E-17  2.00000000E+00
 -1.08405912E-01  6.06538061E-01 -2.18133579E-15  1.07522375E-15  1.23759062E+00
 -2.75231911E-02 -3.07120483E-02 -5.38145216E-01  4.00584237E-16 -4.80332343E-01
  6.04400905E-01 -2.75231911E-02 -3.07120483E-02  5.38145216E-01 -6.98644281E-18
 -4.80332343E-01 -1.80927607E-01  6.04400905E-01
Pure Switching                             I                1
Dipole_Data                                R   N=           3
  2.33430298E-14 -3.15587567E-15 -1.72435938E+00
Quadrupole_Data                            R   N=           6
 -4.23805985E+00  1.61765131E-16 -6.11395946E+00 -3.54747003E-15 -1.06388854E-15
 -5.39554223E+00
Octapole_Data                              R   N=          10
  1.93745010E-14 -5.18077119E-16  3.59282234E-15 -1.18516770E-15 -6.23494960E-01
 -6.60376351E-17  5.02606778E-03  7.51879066E-15 -6.77451992E-16 -1.85029383E-01
Hexadecapole_Data                          R   N=          15
 -6.72210477E+00  1.76448827E-17 -1.84584057E+00 -5.86738007E-17 -3.25260111E+00
 -6.96988252E-15 -1.03055007E-16 -9.38964429E-16 -4.72630170E-16 -1.72067848E+00
  5.67906937E-18 -1.40609725E+00 -4.09018012E-15 -4.91533907E-16 -4.96398999E+00
