Jobname.Temp
SP        R                             STO-3G              
Number of atoms                            I                3
Charge                                     I                0
Multiplicity                               I                1
Number of electrons                        I               10
Number of alpha electrons                  I                5
Number of beta electrons                   I                5
Atomic numbers                             I   N=           3
           8           1           1
Current cartesian coordinates              R   N=           9
  0.00000000E+00  0.00000000E+00  0.00000000E+00  0.00000000E+00  0.00000000E+00
  1.87082886E+00  1.79835613E+00  0.00000000E+00 -5.15670321E-01
Nuclear charges                            R   N=           3
  8.00000000E+00  1.00000000E+00  1.00000000E+00
Number of basis functions                  I                7
Number of contracted shells                I                4
Number of primitive shells                 I               12
Highest angular momentum                   I                1
Largest degree of contraction              I                3
Shell types                                I   N=           4
           0          -1           0           0
Number of primitives per shell             I   N=           4
           3           3           3           3
Shell to atom map                          I   N=           4
           1           1           2           3
Primitive exponents                        R   N=          12
  1.30709320E+02  2.38088610E+01  6.44360830E+00  5.03315130E+00  1.16959610E+00
  3.80389000E-01  3.42525091E+00  6.23913730E-01  1.68855400E-01  3.42525091E+00
  6.23913730E-01  1.68855400E-01
Contraction coefficients                   R   N=          12
  1.54328969E-01  5.35328136E-01  4.44634536E-01 -9.99672287E-02  3.99512825E-01
  7.00115461E-01  1.54328971E-01  5.35328142E-01  4.44634542E-01  1.54328971E-01
  5.35328142E-01  4.44634542E-01
P(S=P) Contraction coefficients            R   N=          12
  0.00000000E+00  0.00000000E+00  0.00000000E+00  1.55916268E-01  6.07683714E-01
  3.91957386E-01  0.00000000E+00  0.00000000E+00  0.00000000E+00  0.00000000E+00
  0.00000000E+00  0.00000000E+00
Coordinates of each shell                  R   N=          12
  0.00000000E+00  0.00000000E+00  0.00000000E+00  0.00000000E+00  0.00000000E+00
  0.00000000E+00  0.00000000E+00  0.00000000E+00  1.87082886E+00  1.79835613E+00
  0.00000000E+00 -5.15670321E-01
Overlap Matrix                             R   N=          28
  1.00000000E+00  2.36703937E-01  1.00000000E+00  0.00000000E+00  0.00000000E+00
  1.00000000E+00  0.00000000E+00  0.00000000E+00  0.00000000E+00  1.00000000E+00
  0.00000000E+00  0.00000000E+00  0.00000000E+00  0.00000000E+00  1.00000000E+00
  4.99275403E-02  4.53531138E-01  0.00000000E+00  0.00000000E+00  3.81826707E-01
  1.00000000E+00  4.99275403E-02  4.53531138E-01  3.67035388E-01  0.00000000E+00
 -1.05245704E-01  2.28265950E-01  1.00000000E+00
Core Hamiltonian Matrix                    R   N=          28
 -3.26842998E+01 -7.60413751E+00 -9.30134234E+00 -1.39498079E-02 -1.65944737E-01
 -7.53725400E+00  0.00000000E+00  0.00000000E+00  0.00000000E+00 -7.43024427E+00
 -1.05119342E-02 -1.25048329E-01  3.06845459E-02  0.00000000E+00 -7.55485130E+00
 -1.61667742E+00 -3.53328195E+00 -5.12303311E-02  0.00000000E+00 -2.50389273E+00
 -4.93977743E+00 -1.61667742E+00 -3.53328195E+00 -2.42101716E+00  0.00000000E+00
  6.40920616E-01 -1.43529223E+00 -4.93977743E+00
Number of independent functions            I                7
Alpha MO coefficients                      R   N=          49
 -9.94195985E-01 -2.59437052E-02 -3.17360972E-03  1.76322348E-16 -2.39146577E-03
  5.62852716E-03  5.62853811E-03 -2.34672192E-01  8.48128630E-01  9.07619916E-02
  5.52420489E-16  6.83911935E-02  1.55203538E-01  1.55208352E-01 -1.90245498E-06
  9.01084554E-06 -3.65194227E-01  2.07563632E-15  4.84632395E-01  4.43451978E-01
 -4.43459203E-01  9.88944649E-02 -5.14035413E-01  6.21318395E-01  5.54664098E-16
  4.68203400E-01  2.86335087E-01  2.86338903E-01  1.50743781E-16 -1.99730800E-16
 -1.32920417E-16 -1.00000000E+00  1.14002746E-15  1.35704760E-15 -6.87711456E-16
 -1.28788664E-01  8.34812238E-01  5.82396504E-01 -3.64146525E-17  4.38837964E-01
 -7.77045537E-01 -7.77075634E-01 -2.96129957E-06  1.91214804E-05 -5.86339428E-01
 -5.56823395E-17  7.78119394E-01 -8.10538188E-01  8.10503111E-01
Alpha Orbital Energies                     R   N=           7
 -2.02365177E+01 -1.24674447E+00 -5.98871054E-01 -4.44116457E-01 -3.85799548E-01
  5.78074399E-01  7.14429178E-01
Total SCF Density                          R   N=          28
  2.10655362E+00 -4.48148669E-01  1.96845531E+00  8.66030391E-02 -4.84645540E-01
  1.05530237E+00 -8.01662437E-16  7.57163384E-16 -4.61775544E-16  2.00000000E+00
  6.52597541E-02 -3.65204377E-01  2.40266685E-01  3.25895560E-16  9.17532111E-01
 -2.74034042E-02 -3.13916787E-02  6.00557481E-02 -3.82105443E-16  7.19150700E-01
  6.05514515E-01 -2.74015558E-02 -3.14034209E-02  7.07851050E-01  2.56120960E-17
 -1.40496847E-01 -1.81086840E-01  6.05534690E-01
Pure Switching                             I                1
Dipole_Data                                R   N=           3
  1.37263813E+00 -1.73245245E-15  1.03444119E+00
Quadrupole_Data                            R   N=           6
 -4.71891959E+00  3.57241826E-16 -6.11477335E+00 -3.57589154E-01 -7.38291266E-17
 -4.51376765E+00
Octapole_Data                              R   N=          10
 -7.55176997E-01 -2.00005184E-16 -5.86687888E-01 -5.85963194E-16 -7.05593888E-01
  1.34314955E-18 -4.42085408E-01 -4.92561840E-01 -1.20078181E-16 -2.34488385E-01
Hexadecapole_Data                          R   N=          15
 -5.31998253E+00  1.15261146E-16 -1.62259426E+00  1.17461124E-16 -3.25357626E+00
  1.88789848E-01  2.73139896E-18  1.69281962E-01  6.30169646E-18 -2.15489047E+00
  3.89728193E-17 -1.71966055E+00  4.85991631E-01  4.33050152E-17 -5.70677817E+00
