Jobname.Temp
SP        R                             STO-3G              
Number of atoms                            I                3
Charge                                     I                0
Multiplicity                               I                1
Number of electrons                        I               10
Number of alpha electrons                  I                5
Number of beta electrons                   I                5
Atomic numbers                             I   N=           3
           8           1           1
Current cartesian coordinates              R   N=           9
  0.00000000E+00  0.00000000E+00  0.00000000E+00  0.00000000E+00  0.00000000E+00
  1.87082886E+00  1.79835613E+00  0.00000000E+00 -5.15670321E-01
Nuclear charges                            R   N=           3
  8.00000000E+00  1.00000000E+00  1.00000000E+00
Number of basis functions                  I                7
Number of contracted shells                I                4
Number of primitive shells                 I               12
Highest angular momentum                   I                1
Largest degree of contraction              I                3
Shell types                                I   N=           4
           0          -1           0           0
Number of primitives per shell             I   N=           4
           3           3           3           3
Shell to atom map                          I   N=           4
           1           1           2           3
Primitive exponents                        R   N=          12
  1.30709320E+02  2.38088610E+01  6.44360830E+00  5.03315130E+00  1.16959610E+00
  3.80389000E-01  3.42525091E+00  6.23913730E-01  1.68855400E-01  3.42525091E+00
  6.23913730E-01  1.68855400E-01
Contraction coefficients                   R   N=          12
  1.54328969E-01  5.35328136E-01  4.44634536E-01 -9.99672287E-02  3.99512825E-01
  7.00115461E-01  1.54328971E-01  5.35328142E-01  4.44634542E-01  1.54328971E-01
  5.35328142E-01  4.44634542E-01
P(S=P) Contraction coefficients            R   N=          12
  0.00000000E+00  0.00000000E+00  0.00000000E+00  1.55916268E-01  6.07683714E-01
  3.91957386E-01  0.00000000E+00  0.00000000E+00  0.00000000E+00  0.00000000E+00
  0.00000000E+00  0.00000000E+00
Coordinates of each shell                  R   N=          12
  0.00000000E+00  0.00000000E+00  0.00000000E+00  0.00000000E+00  0.00000000E+00
  0.00000000E+00  0.00000000E+00  0.00000000E+00  1.87082886E+00  1.79835613E+00
  0.00000000E+00 -5.15670321E-01
Overlap Matrix                             R   N=          28
  1.00000000E+00  2.36703937E-01  1.00000000E+00  0.00000000E+00  0.00000000E+00
  1.00000000E+00  0.00000000E+00  0.00000000E+00  0.00000000E+00  1.00000000E+00
  0.00000000E+00  0.00000000E+00  0.00000000E+00  0.00000000E+00  1.00000000E+00
  4.99275403E-02  4.53531138E-01  0.00000000E+00  0.00000000E+00  3.81826707E-01
  1.00000000E+00  4.99275403E-02  4.53531138E-01  3.67035388E-01  0.00000000E+00
 -1.05245704E-01  2.28265950E-01  1.00000000E+00
Core Hamiltonian Matrix                    R   N=          28
 -3.26842998E+01 -7.60413751E+00 -9.30134234E+00 -1.39498079E-02 -1.65944737E-01
 -7.53725400E+00  0.00000000E+00  0.00000000E+00  0.00000000E+00 -7.43024427E+00
 -1.05119342E-02 -1.25048329E-01  3.06845459E-02  0.00000000E+00 -7.55485130E+00
 -1.61667742E+00 -3.53328195E+00 -5.12303311E-02  0.00000000E+00 -2.50389273E+00
 -4.93977743E+00 -1.61667742E+00 -3.53328195E+00 -2.42101716E+00  0.00000000E+00
  6.40920616E-01 -1.43529223E+00 -4.93977743E+00
Number of independent functions            I                7
Alpha MO coefficients                      R   N=          49
 -9.94198723E-01 -2.59328055E-02 -3.18026435E-03  2.24497822E-16 -2.39650887E-03
  5.62814402E-03  5.62813797E-03 -2.34480083E-01  8.47176737E-01  9.19424656E-02
  4.48286240E-16  6.92834725E-02  1.55730156E-01  1.55727227E-01  1.37824586E-06
 -7.28790142E-06 -3.64364548E-01  1.08108998E-15  4.83529977E-01  4.44606825E-01
 -4.44598070E-01  9.95491021E-02 -5.17079150E-01  6.20141917E-01 -2.71487715E-15
  4.67302682E-01  2.87392011E-01  2.87391900E-01 -3.83187698E-16  1.55868781E-15
 -1.83274551E-15 -1.00000000E+00 -9.15111962E-16 -2.32695771E-16 -1.19505331E-15
 -1.28612971E-01  8.33898883E-01  5.83442655E-01 -3.67246539E-17  4.39685914E-01
 -7.76582784E-01 -7.76549995E-01  2.93928158E-06 -1.93851534E-05 -5.86876828E-01
 -5.96568536E-17  7.78788754E-01 -8.09873697E-01  8.09910546E-01
Alpha Orbital Energies                     R   N=           7
 -2.02379917E+01 -1.24697653E+00 -5.99279315E-01 -4.43215118E-01 -3.85343511E-01
  5.76557166E-01  7.13542986E-01
Total SCF Density                          R   N=          28
  2.10664407E+00 -4.48676949E-01  1.97150356E+00  8.66744132E-02 -4.85371617E-01
  1.05160210E+00 -4.30768074E-16  4.38132996E-16 -4.08543782E-16  2.00000000E+00
  6.53144810E-02 -3.65757006E-01  2.39981029E-01  3.99405634E-16  9.13957957E-01
 -2.70017680E-02 -3.36452903E-02  6.10503662E-02  8.39388425E-18  7.20111647E-01
  6.09105908E-01 -2.70028558E-02 -3.36371767E-02  7.09039170E-01  1.04859384E-17
 -1.39803307E-01 -1.81588198E-01  6.09088386E-01
Pure Switching                             I                1
Dipole_Data                                R   N=           3
  1.35850381E+00 -1.34481191E-15  1.02363468E+00
Quadrupole_Data                            R   N=           6
 -4.73362700E+00  3.21672082E-16 -6.11734901E+00 -3.53778049E-01 -3.21841922E-16
 -4.53080782E+00
Octapole_Data                              R   N=          10
 -7.77624445E-01 -1.69906145E-16 -5.89321128E-01 -5.03965209E-16 -7.03525098E-01
  5.49903584E-19 -4.44098812E-01 -4.96433013E-01 -1.69807441E-16 -2.56682199E-01
Hexadecapole_Data                          R   N=          15
 -5.35142165E+00  1.05827494E-16 -1.62602929E+00  1.06728195E-16 -3.25665884E+00
  1.94879411E-01 -3.57502516E-17  1.69993736E-01 -1.08025570E-16 -2.16225134E+00
  3.55020066E-17 -1.72353269E+00  4.88371937E-01 -1.08816064E-16 -5.74342266E+00
