Jobname.Temp
SP        R                             STO-3G              
Number of atoms                            I                3
Charge                                     I                0
Multiplicity                               I                1
Number of electrons                        I               10
Number of alpha electrons                  I                5
Number of beta electrons                   I                5
Atomic numbers                             I   N=           3
           8           1           1
Current cartesian coordinates              R   N=           9
  0.00000000E+00  0.00000000E+00  0.00000000E+00  0.00000000E+00  0.00000000E+00
  1.87082886E+00  1.79835613E+00  0.00000000E+00 -5.15670321E-01
Nuclear charges                            R   N=           3
  8.00000000E+00  1.00000000E+00  1.00000000E+00
Number of basis functions                  I                7
Number of contracted shells                I                4
Number of primitive shells                 I               12
Highest angular momentum                   I                1
Largest degree of contraction              I                3
Shell types                                I   N=           4
           0          -1           0           0
Number of primitives per shell             I   N=           4
           3           3           3           3
Shell to atom map                          I   N=           4
           1           1           2           3
Primitive exponents                        R   N=          12
  1.30709320E+02  2.38088610E+01  6.44360830E+00  5.03315130E+00  1.16959610E+00
  3.80389000E-01  3.42525091E+00  6.23913730E-01  1.68855400E-01  3.42525091E+00
  6.23913730E-01  1.68855400E-01
Contraction coefficients                   R   N=          12
  1.54328969E-01  5.35328136E-01  4.44634536E-01 -9.99672287E-02  3.99512825E-01
  7.00115461E-01  1.54328971E-01  5.35328142E-01  4.44634542E-01  1.54328971E-01
  5.35328142E-01  4.44634542E-01
P(S=P) Contraction coefficients            R   N=          12
  0.00000000E+00  0.00000000E+00  0.00000000E+00  1.55916268E-01  6.07683714E-01
  3.91957386E-01  0.00000000E+00  0.00000000E+00  0.00000000E+00  0.00000000E+00
  0.00000000E+00  0.00000000E+00
Coordinates of each shell                  R   N=          12
  0.00000000E+00  0.00000000E+00  0.00000000E+00  0.00000000E+00  0.00000000E+00
  0.00000000E+00  0.00000000E+00  0.00000000E+00  1.87082886E+00  1.79835613E+00
  0.00000000E+00 -5.15670321E-01
Overlap Matrix                             R   N=          28
  1.00000000E+00  2.36703937E-01  1.00000000E+00  0.00000000E+00  0.00000000E+00
  1.00000000E+00  0.00000000E+00  0.00000000E+00  0.00000000E+00  1.00000000E+00
  0.00000000E+00  0.00000000E+00  0.00000000E+00  0.00000000E+00  1.00000000E+00
  4.99275403E-02  4.53531138E-01  0.00000000E+00  0.00000000E+00  3.81826707E-01
  1.00000000E+00  4.99275403E-02  4.53531138E-01  3.67035388E-01  0.00000000E+00
 -1.05245704E-01  2.28265950E-01  1.00000000E+00
Core Hamiltonian Matrix                    R   N=          28
 -3.26842998E+01 -7.60413751E+00 -9.30134234E+00 -1.39498079E-02 -1.65944737E-01
 -7.53725400E+00  0.00000000E+00  0.00000000E+00  0.00000000E+00 -7.43024427E+00
 -1.05119342E-02 -1.25048329E-01  3.06845459E-02  0.00000000E+00 -7.55485130E+00
 -1.61667742E+00 -3.53328195E+00 -5.12303311E-02  0.00000000E+00 -2.50389273E+00
 -4.93977743E+00 -1.61667742E+00 -3.53328195E+00 -2.42101716E+00  0.00000000E+00
  6.40920616E-01 -1.43529223E+00 -4.93977743E+00
Number of independent functions            I                7
Alpha MO coefficients                      R   N=          49
  9.94196046E-01  2.59434603E-02  3.17370365E-03 -3.18034781E-16  2.39155270E-03
 -5.62851504E-03 -5.62851645E-03  2.34669054E-01 -8.48112966E-01 -9.07771070E-02
  2.23491240E-17 -6.84041239E-02 -1.55215296E-01 -1.55215257E-01 -1.92314967E-07
  1.36791164E-06  3.65175790E-01  3.55234458E-16 -4.84609370E-01 -4.43481531E-01
  4.43478704E-01 -9.89054376E-02  5.14089325E-01 -6.21299200E-01 -7.75904020E-16
 -4.68179112E-01 -2.86360057E-01 -2.86362648E-01 -5.88751684E-17 -3.18841825E-16
  5.27417121E-16 -1.00000000E+00  2.80246447E-16 -1.00315176E-16  5.09964358E-16
 -1.28785487E-01  8.34794961E-01  5.82402768E-01  2.54527115E-17  4.38877594E-01
 -7.77053248E-01 -7.77046244E-01  4.98814678E-07 -3.51325069E-06 -5.86362688E-01
  1.42055645E-16  7.78124859E-01 -8.10503553E-01  8.10510907E-01
Alpha Orbital Energies                     R   N=           7
 -2.02365628E+01 -1.24675662E+00 -5.98892694E-01 -4.44110136E-01 -3.85803591E-01
  5.78029160E-01  7.14392692E-01
Total SCF Density                          R   N=          28
  2.10655526E+00 -4.48158424E-01  1.96851300E+00  8.66050097E-02 -4.84662418E-01
  1.05523322E+00 -3.50656094E-16 -2.14494336E-16  1.62672626E-16  2.00000000E+00
  6.52617887E-02 -3.65220154E-01  2.40257634E-01 -1.82847416E-16  9.17445532E-01
 -2.73948442E-02 -3.14423461E-02  6.00773761E-02  3.26568623E-16  7.19174016E-01
  6.05602838E-01 -2.73946574E-02 -3.14426496E-02  7.07873398E-01 -2.63828745E-16
 -1.40482045E-01 -1.81096657E-01  6.05600767E-01
Pure Switching                             I                1
Dipole_Data                                R   N=           3
  1.37237803E+00  6.96658235E-16  1.03415339E+00
Quadrupole_Data                            R   N=           6
 -4.71920311E+00 -8.38869016E-18 -6.11482987E+00 -3.57517025E-01 -4.53493862E-17
 -4.51417958E+00
Octapole_Data                              R   N=          10
 -7.55595338E-01  1.15080315E-16 -5.86736862E-01  2.00488411E-16 -7.05572040E-01
 -1.38357071E-17 -4.42139465E-01 -4.92634274E-01  6.16086705E-18 -2.35052570E-01
Hexadecapole_Data                          R   N=          15
 -5.32057951E+00  4.00476160E-17 -1.62266189E+00  1.73857702E-17 -3.25364429E+00
  1.88903277E-01 -2.21473457E-17  1.69295250E-01 -4.69474979E-17 -2.15504783E+00
  7.65857978E-18 -1.71975291E+00  4.86035753E-01 -7.90625670E-17 -5.70767130E+00
