(INPUT FILE)


Title  Au2  relativistic optimization: scalar ZORA

Integration  6.5

Atoms  Zmat
  Au   0 0 0
  Au   1 0 0  2.5
End

XC
 GGA Becke Perdew
End

Relativistic scalar ZORA

GEOMETRY
END

EPRINT
 ORBPOP TOL=0.00001
 SUBEND
 ORBPOPER -100000 100000
END

Corepotentials rel.t12

Fragments
Au t21.Au
End
end input

 *******************************************************************************
 *                                                                             *
 *  -------------------------------------                                      *
 *   Amsterdam Density Functional  (ADF)         2004.01   June 8, 2004        *
 *  -------------------------------------                                      *
 *                                               Build 200410211341            *
 *                                                                             *
 *                                                                             *
 *                              =================                              *
 *                              |               |                              *
 *                              |     A D F     |                              *
 *                              |               |                              *
 *                              =================                              *
 *                                                                             *
 *                                                                             *
 *   Online information and documentation:  http://www.scm.com                 *
 *   E-mail:  support@scm.com   info@scm.com                                   *
 *                                                                             *
 *   Scientific publications using ADF results must be properly referenced     *
 *   See the User Manuals (or the web site) for recommended citations          *
 *                                                                             *
 ****************************  pentium_linux_ifc  ******************************
 
 ADF 2004.01  RunTime: Mar27-2007 16:29:29
 Au2  relativistic optimization: scalar ZORA



 ===========================
 A T T A C H E D   F I L E S
 ===========================
  
 Core Potentials:
         file : rel.t12



 ===============================
 M O D E L   P A R A M E T E R S
 ===============================
  
 DENSITY FUNCTIONAL POTENTIAL (scf)
    LDA:                               VWN                                      
    Gradient Corrections:              Becke88 Perdew86                        == Not Default ==

 SPIN  (restricted / unrestr.)
    Molecule:                          Restricted                               
    Fragments:                         Restricted                               

 OTHER ASPECTS
    Relativistic Corrections:          scalar (ZORA,SAPA)                       *** SPECIAL ***
    Core Treatment:                    Frozen Orbital(s)                        

    Electric Field:                    ---                                      

    Hyperfine or Zeeman Interaction:   ---                                      


 Fragment File(s)
 ----------------
 Au:
         file : t21.Au
         jobid: ADF 2004.01  RunTime: Mar27-2007 16:29:26
         title: Gold (IV, all electron)



                                   *********************************************
                                   *  R U N   T Y P E : GEOMETRY OPTIMIZATION  *
                                   *********************************************
  



 ===============
 G E O M E T R Y  ***  Linear Molecule  ***
 ===============
  

 ATOMS
 =====                            X Y Z                    CHARGE
                                (Angstrom)             Nucl     +Core       At.Mass
                       --------------------------    ----------------       -------
    1  Au              0.0000    0.0000   -1.2500     79.00     79.00      196.9666
    2  Au              0.0000    0.0000    1.2500     79.00     79.00      196.9666


 FRAGMENTS
 =========             Atoms in this Fragment     Cart. coord.s (Angstrom)
                       -------------------------------------------------------
    1  Au                  1  Au            0.000000     0.000000    -1.250000
    2  Au                  2  Au            0.000000     0.000000     1.250000


 Interatomic Distance Matrix (Angstrom)
 --------------------------------------

   1)     0.000
   2)     2.500   0.000



 =====================================
 S Y M M E T R Y ,   E L E C T R O N S
 =====================================
  
 Symmetry: D(LIN)

 Irreducible Representations, including subspecies
 -------------------------------------------------
 SIGMA.g
 SIGMA.u
 PI.g:x  PI.g:y
 PI.u:x  PI.u:y
 DELTA.g:x2-y2  DELTA.g:xy
 DELTA.u:x2-y2  DELTA.u:xy
 PHI.g:x3-3xy2  PHI.g:3x2y-y3
 PHI.u:x3-3xy2  PHI.u:3x2y-y3


 Configuration of Valence Electrons
 ==================================
 ( determined in the SCF procedure )

 Total:   158

 Net Charge: 0 (Nuclei minus Electrons)

 Aufbau principle for MO occupations will be applied through SCF cycle no.      30
 Thereafter, the program will assign electrons to MOs that are spatially
 similar to the occupied MOs in a "reference" cycle ("KeepOrbitals").
 The reference cycle is always the PREVIOUS cycle: it will evolve with
 the SCF procedure.
1
 ***************************************************************************************************



                                      ****************************************
                                      *  B U I L D : (Fragments, Functions)  *
                                      ****************************************
  



 =======
 S F O s  ***  (Symmetrized Fragment Orbitals)  ***
 =======
  
 SFOs are linear combinations of (valence) Fragment Orbitals (FOs), such that the SFOs transform as the
 irreducible representations of the (molecular) symmetry group. Each SFO is therefore characterized by
 an irrep of the molecule and by a few (or only one) generating FOs.
 The SFOs constitute a symmetry-adapted basis for the Fock matrix. The MO eigenvector coefficients in
 this basis provide a direct interpretation of the MOs in terms of Frontier Orbital Theory.

 The SFOs are combined with auxiliary Core Functions (CFs) to ensure orthogonalization on the (frozen)
 Core Orbitals (COs). The Core-orthogonalized SFOs (CSFOs) constitute the true Fock basis.

 The FOs, and hence also the (C)SFOs are combinations of the elementary basis functions (BAS). The basis
 functions that participate in the description of the SFOs depend on the irrep. The indices of the
 involved functions are printed below for each irrep.
 (The complete list of primitive basis functions is printed in another section)


 Total nr. of (C)SFOs (summation over all irreps) :   200

 NOTE: a (C)SFO that is defined as a combination of more than one FO is usually NOT normalized.



                                       === SIGMA.g ===
 Nr. of SFOs :   34
 Cartesian basis functions that participate in this irrep (total number =   108) :
      1   117     2   118     3   119     4   120     5   121
      6   122     7   123     8   124     9   125    10   126
     11   127    12   128    13   129    14   130    17   133
     20   136    23   139    26   142    29   145    32   148
     35   151    38   154    41   157   116   232    47   163
     53   169    59   175    65   181    71   187    77   193
     83   199    42    45   158   161    48    51   164   167
     54    57   170   173    60    63   176   179    66    69
    182   185    72    75   188   191    78    81   194   197
     93   209   103   219   113   229    86    91   202   207
     96   101   212   217   106   111   222   227

    SFO  (index         Fragment          Generating    Expansion in Fragment Orbitals
  indx  incl.CFs)   Occup   Orb.Energy   FragmentType  Coeff.   Orbital     on Fragment
 --------------------------------------------------------------------------------------
     1       1      2.000   -3252.013 au  Au            0.71      1 S               1
                        (  -88491.804 eV)               0.71      1 S               2
     2       2      2.000    -533.169 au  Au            0.71      2 S               1
                        (  -14508.281 eV)               0.71      2 S               2
     3       3      2.000    -124.141 au  Au            0.71      3 S               1
                        (   -3378.057 eV)               0.71      3 S               2
     4       4      2.000     -26.820 au  Au            0.71      4 S               1
                        (    -729.812 eV)               0.71      4 S               2
     5       5      2.000      -3.976 au  Au            0.71      5 S               1
                        (    -108.204 eV)               0.71      5 S               2
     6       6      1.000      -0.217 au  Au            0.71      6 S               1
                        (      -5.910 eV)               0.71      6 S               2
     7       7       --         0.067 au  Au            0.71      7 S               1
                        (       1.837 eV)               0.71      7 S               2
     8       8       --         0.648 au  Au            0.71      8 S               1
                        (      17.621 eV)               0.71      8 S               2
     9       9       --         3.685 au  Au            0.71      9 S               1
                        (     100.263 eV)               0.71      9 S               2
    10      10       --        22.132 au  Au            0.71     10 S               1
                        (     602.236 eV)               0.71     10 S               2
    11      11       --       794.353 au  Au            0.71     11 S               1
                        (   21615.458 eV)               0.71     11 S               2
    12      12       --      4844.425 au  Au            0.71     12 S               1
                        (  131823.552 eV)               0.71     12 S               2
    13      13       --     22321.437 au  Au            0.71     13 S               1
                        (  607397.442 eV)               0.71     13 S               2
    14      14       --    133876.331 au  Au            0.71     14 S               1
                        ( 3642961.800 eV)               0.71     14 S               2
    15      15      2.000    -460.441 au  Au            0.71      1 P:z             1
                        (  -12529.254 eV)              -0.71      1 P:z             2
    16      16      2.000    -103.484 au  Au            0.71      2 P:z             1
                        (   -2815.936 eV)              -0.71      2 P:z             2
    17      17      2.000     -20.098 au  Au            0.71      3 P:z             1
                        (    -546.889 eV)              -0.71      3 P:z             2
    18      18      2.000      -2.202 au  Au            0.71      4 P:z             1
                        (     -59.913 eV)              -0.71      4 P:z             2
    19      19       --         0.012 au  Au            0.71      5 P:z             1
                        (       0.332 eV)              -0.71      5 P:z             2
    20      20       --         1.616 au  Au            0.71      6 P:z             1
                        (      43.981 eV)              -0.71      6 P:z             2
    21      21       --        15.195 au  Au            0.71      7 P:z             1
                        (     413.490 eV)              -0.71      7 P:z             2
    22      22       --        95.685 au  Au            0.71      8 P:z             1
                        (    2603.732 eV)              -0.71      8 P:z             2
    23      23       --      1013.165 au  Au            0.71      9 P:z             1
                        (   27569.639 eV)              -0.71      9 P:z             2
    24      24       --     10883.122 au  Au            0.71     10 P:z             1
                        (  296144.935 eV)              -0.71     10 P:z             2
    25      25      2.000     -81.360 au  Au            0.71      1 D:z2            1
                        (   -2213.913 eV)               0.71      1 D:z2            2
    26      26      2.000     -11.991 au  Au            0.71      2 D:z2            1
                        (    -326.303 eV)               0.71      2 D:z2            2
    27      27      2.000      -0.259 au  Au            0.71      3 D:z2            1
                        (      -7.040 eV)               0.71      3 D:z2            2
    28      28       --         0.260 au  Au            0.71      4 D:z2            1
                        (       7.079 eV)               0.71      4 D:z2            2
    29      29       --         1.847 au  Au            0.71      5 D:z2            1
                        (      50.262 eV)               0.71      5 D:z2            2
    30      30       --        13.497 au  Au            0.71      6 D:z2            1
                        (     367.280 eV)               0.71      6 D:z2            2
    31      31       --       127.043 au  Au            0.71      7 D:z2            1
                        (    3457.022 eV)               0.71      7 D:z2            2
    32      32      2.000      -3.002 au  Au            0.71      1 F:z3            1
                        (     -81.688 eV)              -0.71      1 F:z3            2
    33      33       --         3.811 au  Au            0.71      2 F:z3            1
                        (     103.714 eV)              -0.71      2 F:z3            2
    34      34       --        29.383 au  Au            0.71      3 F:z3            1
                        (     799.551 eV)              -0.71      3 F:z3            2



                                       === SIGMA.u ===
 Nr. of SFOs :   34
 Cartesian basis functions that participate in this irrep (total number =   108) :
      1   117     2   118     3   119     4   120     5   121
      6   122     7   123     8   124     9   125    10   126
     11   127    12   128    13   129    14   130    17   133
     20   136    23   139    26   142    29   145    32   148
     35   151    38   154    41   157   116   232    47   163
     53   169    59   175    65   181    71   187    77   193
     83   199    42    45   158   161    48    51   164   167
     54    57   170   173    60    63   176   179    66    69
    182   185    72    75   188   191    78    81   194   197
     93   209   103   219   113   229    86    91   202   207
     96   101   212   217   106   111   222   227

    SFO  (index         Fragment          Generating    Expansion in Fragment Orbitals
  indx  incl.CFs)   Occup   Orb.Energy   FragmentType  Coeff.   Orbital     on Fragment
 --------------------------------------------------------------------------------------
     1       1      2.000   -3252.013 au  Au            0.71      1 S               1
                        (  -88491.804 eV)              -0.71      1 S               2
     2       2      2.000    -533.169 au  Au            0.71      2 S               1
                        (  -14508.281 eV)              -0.71      2 S               2
     3       3      2.000    -124.141 au  Au            0.71      3 S               1
                        (   -3378.057 eV)              -0.71      3 S               2
     4       4      2.000     -26.820 au  Au            0.71      4 S               1
                        (    -729.812 eV)              -0.71      4 S               2
     5       5      2.000      -3.976 au  Au            0.71      5 S               1
                        (    -108.204 eV)              -0.71      5 S               2
     6       6      1.000      -0.217 au  Au            0.71      6 S               1
                        (      -5.910 eV)              -0.71      6 S               2
     7       7       --         0.067 au  Au            0.71      7 S               1
                        (       1.837 eV)              -0.71      7 S               2
     8       8       --         0.648 au  Au            0.71      8 S               1
                        (      17.621 eV)              -0.71      8 S               2
     9       9       --         3.685 au  Au            0.71      9 S               1
                        (     100.263 eV)              -0.71      9 S               2
    10      10       --        22.132 au  Au            0.71     10 S               1
                        (     602.236 eV)              -0.71     10 S               2
    11      11       --       794.353 au  Au            0.71     11 S               1
                        (   21615.458 eV)              -0.71     11 S               2
    12      12       --      4844.425 au  Au            0.71     12 S               1
                        (  131823.552 eV)              -0.71     12 S               2
    13      13       --     22321.437 au  Au            0.71     13 S               1
                        (  607397.442 eV)              -0.71     13 S               2
    14      14       --    133876.331 au  Au            0.71     14 S               1
                        ( 3642961.800 eV)              -0.71     14 S               2
    15      15      2.000    -460.441 au  Au            0.71      1 P:z             1
                        (  -12529.254 eV)               0.71      1 P:z             2
    16      16      2.000    -103.484 au  Au            0.71      2 P:z             1
                        (   -2815.936 eV)               0.71      2 P:z             2
    17      17      2.000     -20.098 au  Au            0.71      3 P:z             1
                        (    -546.889 eV)               0.71      3 P:z             2
    18      18      2.000      -2.202 au  Au            0.71      4 P:z             1
                        (     -59.913 eV)               0.71      4 P:z             2
    19      19       --         0.012 au  Au            0.71      5 P:z             1
                        (       0.332 eV)               0.71      5 P:z             2
    20      20       --         1.616 au  Au            0.71      6 P:z             1
                        (      43.981 eV)               0.71      6 P:z             2
    21      21       --        15.195 au  Au            0.71      7 P:z             1
                        (     413.490 eV)               0.71      7 P:z             2
    22      22       --        95.685 au  Au            0.71      8 P:z             1
                        (    2603.732 eV)               0.71      8 P:z             2
    23      23       --      1013.165 au  Au            0.71      9 P:z             1
                        (   27569.639 eV)               0.71      9 P:z             2
    24      24       --     10883.122 au  Au            0.71     10 P:z             1
                        (  296144.935 eV)               0.71     10 P:z             2
    25      25      2.000     -81.360 au  Au            0.71      1 D:z2            1
                        (   -2213.913 eV)              -0.71      1 D:z2            2
    26      26      2.000     -11.991 au  Au            0.71      2 D:z2            1
                        (    -326.303 eV)              -0.71      2 D:z2            2
    27      27      2.000      -0.259 au  Au            0.71      3 D:z2            1
                        (      -7.040 eV)              -0.71      3 D:z2            2
    28      28       --         0.260 au  Au            0.71      4 D:z2            1
                        (       7.079 eV)              -0.71      4 D:z2            2
    29      29       --         1.847 au  Au            0.71      5 D:z2            1
                        (      50.262 eV)              -0.71      5 D:z2            2
    30      30       --        13.497 au  Au            0.71      6 D:z2            1
                        (     367.280 eV)              -0.71      6 D:z2            2
    31      31       --       127.043 au  Au            0.71      7 D:z2            1
                        (    3457.022 eV)              -0.71      7 D:z2            2
    32      32      2.000      -3.002 au  Au            0.71      1 F:z3            1
                        (     -81.688 eV)               0.71      1 F:z3            2
    33      33       --         3.811 au  Au            0.71      2 F:z3            1
                        (     103.714 eV)               0.71      2 F:z3            2
    34      34       --        29.383 au  Au            0.71      3 F:z3            1
                        (     799.551 eV)               0.71      3 F:z3            2



                                       === PI.g:x ===
 Nr. of SFOs :   20
 Cartesian basis functions that participate in this irrep (total number =    52) :
     15   131    18   134    21   137    24   140    27   143
     30   146    33   149    36   152    39   155   114   230
     44   160    50   166    56   172    62   178    68   184
     74   190    80   196    89   205    99   215   109   225
     84    87   200   203    94    97   210   213   104   107
    220   223

    SFO  (index         Fragment          Generating    Expansion in Fragment Orbitals
  indx  incl.CFs)   Occup   Orb.Energy   FragmentType  Coeff.   Orbital     on Fragment
 --------------------------------------------------------------------------------------
     1       1      2.000    -460.441 au  Au            0.71      1 P:x             1
                        (  -12529.254 eV)              -0.71      1 P:x             2
     2       2      2.000    -103.484 au  Au            0.71      2 P:x             1
                        (   -2815.936 eV)              -0.71      2 P:x             2
     3       3      2.000     -20.098 au  Au            0.71      3 P:x             1
                        (    -546.889 eV)              -0.71      3 P:x             2
     4       4      2.000      -2.202 au  Au            0.71      4 P:x             1
                        (     -59.913 eV)              -0.71      4 P:x             2
     5       5       --         0.012 au  Au            0.71      5 P:x             1
                        (       0.332 eV)              -0.71      5 P:x             2
     6       6       --         1.616 au  Au            0.71      6 P:x             1
                        (      43.981 eV)              -0.71      6 P:x             2
     7       7       --        15.195 au  Au            0.71      7 P:x             1
                        (     413.490 eV)              -0.71      7 P:x             2
     8       8       --        95.685 au  Au            0.71      8 P:x             1
                        (    2603.732 eV)              -0.71      8 P:x             2
     9       9       --      1013.165 au  Au            0.71      9 P:x             1
                        (   27569.639 eV)              -0.71      9 P:x             2
    10      10       --     10883.122 au  Au            0.71     10 P:x             1
                        (  296144.935 eV)              -0.71     10 P:x             2
    11      11      2.000     -81.360 au  Au            0.71      1 D:xz            1
                        (   -2213.913 eV)               0.71      1 D:xz            2
    12      12      2.000     -11.991 au  Au            0.71      2 D:xz            1
                        (    -326.303 eV)               0.71      2 D:xz            2
    13      13      2.000      -0.259 au  Au            0.71      3 D:xz            1
                        (      -7.040 eV)               0.71      3 D:xz            2
    14      14       --         0.260 au  Au            0.71      4 D:xz            1
                        (       7.079 eV)               0.71      4 D:xz            2
    15      15       --         1.847 au  Au            0.71      5 D:xz            1
                        (      50.262 eV)               0.71      5 D:xz            2
    16      16       --        13.497 au  Au            0.71      6 D:xz            1
                        (     367.280 eV)               0.71      6 D:xz            2
    17      17       --       127.043 au  Au            0.71      7 D:xz            1
                        (    3457.022 eV)               0.71      7 D:xz            2
    18      18      2.000      -3.002 au  Au            0.71      1 F:z2x           1
                        (     -81.688 eV)              -0.71      1 F:z2x           2
    19      19       --         3.811 au  Au            0.71      2 F:z2x           1
                        (     103.714 eV)              -0.71      2 F:z2x           2
    20      20       --        29.383 au  Au            0.71      3 F:z2x           1
                        (     799.551 eV)              -0.71      3 F:z2x           2



                                       === PI.g:y ===
 Nr. of SFOs :   20
 Cartesian basis functions that participate in this irrep (total number =    52) :
     16   132    19   135    22   138    25   141    28   144
     31   147    34   150    37   153    40   156   115   231
     46   162    52   168    58   174    64   180    70   186
     76   192    82   198    92   208   102   218   112   228
     85    90   201   206    95   100   211   216   105   110
    221   226

    SFO  (index         Fragment          Generating    Expansion in Fragment Orbitals
  indx  incl.CFs)   Occup   Orb.Energy   FragmentType  Coeff.   Orbital     on Fragment
 --------------------------------------------------------------------------------------
     1       1      2.000    -460.441 au  Au            0.71      1 P:y             1
                        (  -12529.254 eV)              -0.71      1 P:y             2
     2       2      2.000    -103.484 au  Au            0.71      2 P:y             1
                        (   -2815.936 eV)              -0.71      2 P:y             2
     3       3      2.000     -20.098 au  Au            0.71      3 P:y             1
                        (    -546.889 eV)              -0.71      3 P:y             2
     4       4      2.000      -2.202 au  Au            0.71      4 P:y             1
                        (     -59.913 eV)              -0.71      4 P:y             2
     5       5       --         0.012 au  Au            0.71      5 P:y             1
                        (       0.332 eV)              -0.71      5 P:y             2
     6       6       --         1.616 au  Au            0.71      6 P:y             1
                        (      43.981 eV)              -0.71      6 P:y             2
     7       7       --        15.195 au  Au            0.71      7 P:y             1
                        (     413.490 eV)              -0.71      7 P:y             2
     8       8       --        95.685 au  Au            0.71      8 P:y             1
                        (    2603.732 eV)              -0.71      8 P:y             2
     9       9       --      1013.165 au  Au            0.71      9 P:y             1
                        (   27569.639 eV)              -0.71      9 P:y             2
    10      10       --     10883.122 au  Au            0.71     10 P:y             1
                        (  296144.935 eV)              -0.71     10 P:y             2
    11      11      2.000     -81.360 au  Au            0.71      1 D:yz            1
                        (   -2213.913 eV)               0.71      1 D:yz            2
    12      12      2.000     -11.991 au  Au            0.71      2 D:yz            1
                        (    -326.303 eV)               0.71      2 D:yz            2
    13      13      2.000      -0.259 au  Au            0.71      3 D:yz            1
                        (      -7.040 eV)               0.71      3 D:yz            2
    14      14       --         0.260 au  Au            0.71      4 D:yz            1
                        (       7.079 eV)               0.71      4 D:yz            2
    15      15       --         1.847 au  Au            0.71      5 D:yz            1
                        (      50.262 eV)               0.71      5 D:yz            2
    16      16       --        13.497 au  Au            0.71      6 D:yz            1
                        (     367.280 eV)               0.71      6 D:yz            2
    17      17       --       127.043 au  Au            0.71      7 D:yz            1
                        (    3457.022 eV)               0.71      7 D:yz            2
    18      18      2.000      -3.002 au  Au            0.71      1 F:z2y           1
                        (     -81.688 eV)              -0.71      1 F:z2y           2
    19      19       --         3.811 au  Au            0.71      2 F:z2y           1
                        (     103.714 eV)              -0.71      2 F:z2y           2
    20      20       --        29.383 au  Au            0.71      3 F:z2y           1
                        (     799.551 eV)              -0.71      3 F:z2y           2



                                       === PI.u:x ===
 Nr. of SFOs :   20
 Cartesian basis functions that participate in this irrep (total number =    52) :
     15   131    18   134    21   137    24   140    27   143
     30   146    33   149    36   152    39   155   114   230
     44   160    50   166    56   172    62   178    68   184
     74   190    80   196    89   205    99   215   109   225
     84    87   200   203    94    97   210   213   104   107
    220   223

    SFO  (index         Fragment          Generating    Expansion in Fragment Orbitals
  indx  incl.CFs)   Occup   Orb.Energy   FragmentType  Coeff.   Orbital     on Fragment
 --------------------------------------------------------------------------------------
     1       1      2.000    -460.441 au  Au            0.71      1 P:x             1
                        (  -12529.254 eV)               0.71      1 P:x             2
     2       2      2.000    -103.484 au  Au            0.71      2 P:x             1
                        (   -2815.936 eV)               0.71      2 P:x             2
     3       3      2.000     -20.098 au  Au            0.71      3 P:x             1
                        (    -546.889 eV)               0.71      3 P:x             2
     4       4      2.000      -2.202 au  Au            0.71      4 P:x             1
                        (     -59.913 eV)               0.71      4 P:x             2
     5       5       --         0.012 au  Au            0.71      5 P:x             1
                        (       0.332 eV)               0.71      5 P:x             2
     6       6       --         1.616 au  Au            0.71      6 P:x             1
                        (      43.981 eV)               0.71      6 P:x             2
     7       7       --        15.195 au  Au            0.71      7 P:x             1
                        (     413.490 eV)               0.71      7 P:x             2
     8       8       --        95.685 au  Au            0.71      8 P:x             1
                        (    2603.732 eV)               0.71      8 P:x             2
     9       9       --      1013.165 au  Au            0.71      9 P:x             1
                        (   27569.639 eV)               0.71      9 P:x             2
    10      10       --     10883.122 au  Au            0.71     10 P:x             1
                        (  296144.935 eV)               0.71     10 P:x             2
    11      11      2.000     -81.360 au  Au            0.71      1 D:xz            1
                        (   -2213.913 eV)              -0.71      1 D:xz            2
    12      12      2.000     -11.991 au  Au            0.71      2 D:xz            1
                        (    -326.303 eV)              -0.71      2 D:xz            2
    13      13      2.000      -0.259 au  Au            0.71      3 D:xz            1
                        (      -7.040 eV)              -0.71      3 D:xz            2
    14      14       --         0.260 au  Au            0.71      4 D:xz            1
                        (       7.079 eV)              -0.71      4 D:xz            2
    15      15       --         1.847 au  Au            0.71      5 D:xz            1
                        (      50.262 eV)              -0.71      5 D:xz            2
    16      16       --        13.497 au  Au            0.71      6 D:xz            1
                        (     367.280 eV)              -0.71      6 D:xz            2
    17      17       --       127.043 au  Au            0.71      7 D:xz            1
                        (    3457.022 eV)              -0.71      7 D:xz            2
    18      18      2.000      -3.002 au  Au            0.71      1 F:z2x           1
                        (     -81.688 eV)               0.71      1 F:z2x           2
    19      19       --         3.811 au  Au            0.71      2 F:z2x           1
                        (     103.714 eV)               0.71      2 F:z2x           2
    20      20       --        29.383 au  Au            0.71      3 F:z2x           1
                        (     799.551 eV)               0.71      3 F:z2x           2



                                       === PI.u:y ===
 Nr. of SFOs :   20
 Cartesian basis functions that participate in this irrep (total number =    52) :
     16   132    19   135    22   138    25   141    28   144
     31   147    34   150    37   153    40   156   115   231
     46   162    52   168    58   174    64   180    70   186
     76   192    82   198    92   208   102   218   112   228
     85    90   201   206    95   100   211   216   105   110
    221   226

    SFO  (index         Fragment          Generating    Expansion in Fragment Orbitals
  indx  incl.CFs)   Occup   Orb.Energy   FragmentType  Coeff.   Orbital     on Fragment
 --------------------------------------------------------------------------------------
     1       1      2.000    -460.441 au  Au            0.71      1 P:y             1
                        (  -12529.254 eV)               0.71      1 P:y             2
     2       2      2.000    -103.484 au  Au            0.71      2 P:y             1
                        (   -2815.936 eV)               0.71      2 P:y             2
     3       3      2.000     -20.098 au  Au            0.71      3 P:y             1
                        (    -546.889 eV)               0.71      3 P:y             2
     4       4      2.000      -2.202 au  Au            0.71      4 P:y             1
                        (     -59.913 eV)               0.71      4 P:y             2
     5       5       --         0.012 au  Au            0.71      5 P:y             1
                        (       0.332 eV)               0.71      5 P:y             2
     6       6       --         1.616 au  Au            0.71      6 P:y             1
                        (      43.981 eV)               0.71      6 P:y             2
     7       7       --        15.195 au  Au            0.71      7 P:y             1
                        (     413.490 eV)               0.71      7 P:y             2
     8       8       --        95.685 au  Au            0.71      8 P:y             1
                        (    2603.732 eV)               0.71      8 P:y             2
     9       9       --      1013.165 au  Au            0.71      9 P:y             1
                        (   27569.639 eV)               0.71      9 P:y             2
    10      10       --     10883.122 au  Au            0.71     10 P:y             1
                        (  296144.935 eV)               0.71     10 P:y             2
    11      11      2.000     -81.360 au  Au            0.71      1 D:yz            1
                        (   -2213.913 eV)              -0.71      1 D:yz            2
    12      12      2.000     -11.991 au  Au            0.71      2 D:yz            1
                        (    -326.303 eV)              -0.71      2 D:yz            2
    13      13      2.000      -0.259 au  Au            0.71      3 D:yz            1
                        (      -7.040 eV)              -0.71      3 D:yz            2
    14      14       --         0.260 au  Au            0.71      4 D:yz            1
                        (       7.079 eV)              -0.71      4 D:yz            2
    15      15       --         1.847 au  Au            0.71      5 D:yz            1
                        (      50.262 eV)              -0.71      5 D:yz            2
    16      16       --        13.497 au  Au            0.71      6 D:yz            1
                        (     367.280 eV)              -0.71      6 D:yz            2
    17      17       --       127.043 au  Au            0.71      7 D:yz            1
                        (    3457.022 eV)              -0.71      7 D:yz            2
    18      18      2.000      -3.002 au  Au            0.71      1 F:z2y           1
                        (     -81.688 eV)               0.71      1 F:z2y           2
    19      19       --         3.811 au  Au            0.71      2 F:z2y           1
                        (     103.714 eV)               0.71      2 F:z2y           2
    20      20       --        29.383 au  Au            0.71      3 F:z2y           1
                        (     799.551 eV)               0.71      3 F:z2y           2



                                       === DELTA.g:x2-y2 ===
 Nr. of SFOs :   10
 Cartesian basis functions that participate in this irrep (total number =    40) :
     42    45   158   161    48    51   164   167    54    57
    170   173    60    63   176   179    66    69   182   185
     72    75   188   191    78    81   194   197    86    91
    202   207    96   101   212   217   106   111   222   227

    SFO  (index         Fragment          Generating    Expansion in Fragment Orbitals
  indx  incl.CFs)   Occup   Orb.Energy   FragmentType  Coeff.   Orbital     on Fragment
 --------------------------------------------------------------------------------------
     1       1      2.000     -81.360 au  Au            0.71      1 D:x2-y2         1
                        (   -2213.913 eV)               0.71      1 D:x2-y2         2
     2       2      2.000     -11.991 au  Au            0.71      2 D:x2-y2         1
                        (    -326.303 eV)               0.71      2 D:x2-y2         2
     3       3      2.000      -0.259 au  Au            0.71      3 D:x2-y2         1
                        (      -7.040 eV)               0.71      3 D:x2-y2         2
     4       4       --         0.260 au  Au            0.71      4 D:x2-y2         1
                        (       7.079 eV)               0.71      4 D:x2-y2         2
     5       5       --         1.847 au  Au            0.71      5 D:x2-y2         1
                        (      50.262 eV)               0.71      5 D:x2-y2         2
     6       6       --        13.497 au  Au            0.71      6 D:x2-y2         1
                        (     367.280 eV)               0.71      6 D:x2-y2         2
     7       7       --       127.043 au  Au            0.71      7 D:x2-y2         1
                        (    3457.022 eV)               0.71      7 D:x2-y2         2
     8       8      2.000      -3.002 au  Au            0.71      1 F:z             1
                        (     -81.688 eV)              -0.71      1 F:z             2
     9       9       --         3.811 au  Au            0.71      2 F:z             1
                        (     103.714 eV)              -0.71      2 F:z             2
    10      10       --        29.383 au  Au            0.71      3 F:z             1
                        (     799.551 eV)              -0.71      3 F:z             2



                                       === DELTA.g:xy ===
 Nr. of SFOs :   10
 Cartesian basis functions that participate in this irrep (total number =    20) :
     43   159    49   165    55   171    61   177    67   183
     73   189    79   195    88   204    98   214   108   224

    SFO  (index         Fragment          Generating    Expansion in Fragment Orbitals
  indx  incl.CFs)   Occup   Orb.Energy   FragmentType  Coeff.   Orbital     on Fragment
 --------------------------------------------------------------------------------------
     1       1      2.000     -81.360 au  Au            0.71      1 D:xy            1
                        (   -2213.913 eV)               0.71      1 D:xy            2
     2       2      2.000     -11.991 au  Au            0.71      2 D:xy            1
                        (    -326.303 eV)               0.71      2 D:xy            2
     3       3      2.000      -0.259 au  Au            0.71      3 D:xy            1
                        (      -7.040 eV)               0.71      3 D:xy            2
     4       4       --         0.260 au  Au            0.71      4 D:xy            1
                        (       7.079 eV)               0.71      4 D:xy            2
     5       5       --         1.847 au  Au            0.71      5 D:xy            1
                        (      50.262 eV)               0.71      5 D:xy            2
     6       6       --        13.497 au  Au            0.71      6 D:xy            1
                        (     367.280 eV)               0.71      6 D:xy            2
     7       7       --       127.043 au  Au            0.71      7 D:xy            1
                        (    3457.022 eV)               0.71      7 D:xy            2
     8       8      2.000      -3.002 au  Au            0.71      1 F:xyz           1
                        (     -81.688 eV)              -0.71      1 F:xyz           2
     9       9       --         3.811 au  Au            0.71      2 F:xyz           1
                        (     103.714 eV)              -0.71      2 F:xyz           2
    10      10       --        29.383 au  Au            0.71      3 F:xyz           1
                        (     799.551 eV)              -0.71      3 F:xyz           2



                                       === DELTA.u:x2-y2 ===
 Nr. of SFOs :   10
 Cartesian basis functions that participate in this irrep (total number =    40) :
     42    45   158   161    48    51   164   167    54    57
    170   173    60    63   176   179    66    69   182   185
     72    75   188   191    78    81   194   197    86    91
    202   207    96   101   212   217   106   111   222   227

    SFO  (index         Fragment          Generating    Expansion in Fragment Orbitals
  indx  incl.CFs)   Occup   Orb.Energy   FragmentType  Coeff.   Orbital     on Fragment
 --------------------------------------------------------------------------------------
     1       1      2.000     -81.360 au  Au            0.71      1 D:x2-y2         1
                        (   -2213.913 eV)              -0.71      1 D:x2-y2         2
     2       2      2.000     -11.991 au  Au            0.71      2 D:x2-y2         1
                        (    -326.303 eV)              -0.71      2 D:x2-y2         2
     3       3      2.000      -0.259 au  Au            0.71      3 D:x2-y2         1
                        (      -7.040 eV)              -0.71      3 D:x2-y2         2
     4       4       --         0.260 au  Au            0.71      4 D:x2-y2         1
                        (       7.079 eV)              -0.71      4 D:x2-y2         2
     5       5       --         1.847 au  Au            0.71      5 D:x2-y2         1
                        (      50.262 eV)              -0.71      5 D:x2-y2         2
     6       6       --        13.497 au  Au            0.71      6 D:x2-y2         1
                        (     367.280 eV)              -0.71      6 D:x2-y2         2
     7       7       --       127.043 au  Au            0.71      7 D:x2-y2         1
                        (    3457.022 eV)              -0.71      7 D:x2-y2         2
     8       8      2.000      -3.002 au  Au            0.71      1 F:z             1
                        (     -81.688 eV)               0.71      1 F:z             2
     9       9       --         3.811 au  Au            0.71      2 F:z             1
                        (     103.714 eV)               0.71      2 F:z             2
    10      10       --        29.383 au  Au            0.71      3 F:z             1
                        (     799.551 eV)               0.71      3 F:z             2



                                       === DELTA.u:xy ===
 Nr. of SFOs :   10
 Cartesian basis functions that participate in this irrep (total number =    20) :
     43   159    49   165    55   171    61   177    67   183
     73   189    79   195    88   204    98   214   108   224

    SFO  (index         Fragment          Generating    Expansion in Fragment Orbitals
  indx  incl.CFs)   Occup   Orb.Energy   FragmentType  Coeff.   Orbital     on Fragment
 --------------------------------------------------------------------------------------
     1       1      2.000     -81.360 au  Au            0.71      1 D:xy            1
                        (   -2213.913 eV)              -0.71      1 D:xy            2
     2       2      2.000     -11.991 au  Au            0.71      2 D:xy            1
                        (    -326.303 eV)              -0.71      2 D:xy            2
     3       3      2.000      -0.259 au  Au            0.71      3 D:xy            1
                        (      -7.040 eV)              -0.71      3 D:xy            2
     4       4       --         0.260 au  Au            0.71      4 D:xy            1
                        (       7.079 eV)              -0.71      4 D:xy            2
     5       5       --         1.847 au  Au            0.71      5 D:xy            1
                        (      50.262 eV)              -0.71      5 D:xy            2
     6       6       --        13.497 au  Au            0.71      6 D:xy            1
                        (     367.280 eV)              -0.71      6 D:xy            2
     7       7       --       127.043 au  Au            0.71      7 D:xy            1
                        (    3457.022 eV)              -0.71      7 D:xy            2
     8       8      2.000      -3.002 au  Au            0.71      1 F:xyz           1
                        (     -81.688 eV)               0.71      1 F:xyz           2
     9       9       --         3.811 au  Au            0.71      2 F:xyz           1
                        (     103.714 eV)               0.71      2 F:xyz           2
    10      10       --        29.383 au  Au            0.71      3 F:xyz           1
                        (     799.551 eV)               0.71      3 F:xyz           2



                                       === PHI.g:x3-3xy2 ===
 Nr. of SFOs :    3
 Cartesian basis functions that participate in this irrep (total number =    12) :
     84    87   200   203    94    97   210   213   104   107
    220   223

    SFO  (index         Fragment          Generating    Expansion in Fragment Orbitals
  indx  incl.CFs)   Occup   Orb.Energy   FragmentType  Coeff.   Orbital     on Fragment
 --------------------------------------------------------------------------------------
     1       1      2.000      -3.002 au  Au            0.71      1 F:x             1
                        (     -81.688 eV)              -0.71      1 F:x             2
     2       2       --         3.811 au  Au            0.71      2 F:x             1
                        (     103.714 eV)              -0.71      2 F:x             2
     3       3       --        29.383 au  Au            0.71      3 F:x             1
                        (     799.551 eV)              -0.71      3 F:x             2



                                       === PHI.g:3x2y-y3 ===
 Nr. of SFOs :    3
 Cartesian basis functions that participate in this irrep (total number =    12) :
     85    90   201   206    95   100   211   216   105   110
    221   226

    SFO  (index         Fragment          Generating    Expansion in Fragment Orbitals
  indx  incl.CFs)   Occup   Orb.Energy   FragmentType  Coeff.   Orbital     on Fragment
 --------------------------------------------------------------------------------------
     1       1      2.000      -3.002 au  Au            0.71      1 F:y             1
                        (     -81.688 eV)              -0.71      1 F:y             2
     2       2       --         3.811 au  Au            0.71      2 F:y             1
                        (     103.714 eV)              -0.71      2 F:y             2
     3       3       --        29.383 au  Au            0.71      3 F:y             1
                        (     799.551 eV)              -0.71      3 F:y             2



                                       === PHI.u:x3-3xy2 ===
 Nr. of SFOs :    3
 Cartesian basis functions that participate in this irrep (total number =    12) :
     84    87   200   203    94    97   210   213   104   107
    220   223

    SFO  (index         Fragment          Generating    Expansion in Fragment Orbitals
  indx  incl.CFs)   Occup   Orb.Energy   FragmentType  Coeff.   Orbital     on Fragment
 --------------------------------------------------------------------------------------
     1       1      2.000      -3.002 au  Au            0.71      1 F:x             1
                        (     -81.688 eV)               0.71      1 F:x             2
     2       2       --         3.811 au  Au            0.71      2 F:x             1
                        (     103.714 eV)               0.71      2 F:x             2
     3       3       --        29.383 au  Au            0.71      3 F:x             1
                        (     799.551 eV)               0.71      3 F:x             2



                                       === PHI.u:3x2y-y3 ===
 Nr. of SFOs :    3
 Cartesian basis functions that participate in this irrep (total number =    12) :
     85    90   201   206    95   100   211   216   105   110
    221   226

    SFO  (index         Fragment          Generating    Expansion in Fragment Orbitals
  indx  incl.CFs)   Occup   Orb.Energy   FragmentType  Coeff.   Orbital     on Fragment
 --------------------------------------------------------------------------------------
     1       1      2.000      -3.002 au  Au            0.71      1 F:y             1
                        (     -81.688 eV)               0.71      1 F:y             2
     2       2       --         3.811 au  Au            0.71      2 F:y             1
                        (     103.714 eV)               0.71      2 F:y             2
     3       3       --        29.383 au  Au            0.71      3 F:y             1
                        (     799.551 eV)               0.71      3 F:y             2



 ================================
 (Slater-type)  F U N C T I O N S  ***  (Basis and Fit)  ***
 ================================
  

 Atom Type    1  (Au)
 ==============

 Valence Basis Sets:  34
 -----------------------
   1 S  760.000000
   1 S  184.000000
   1 S   87.700000
   2 S   99.400000
   2 S   38.300000
   3 S   48.700000
   3 S   20.750000
   4 S   12.700000
   4 S    9.000000
   5 S    7.000000
   5 S    4.600000
   6 S    3.150000
   6 S    1.950000
   6 S    1.210000
   2 P  184.000000
   2 P   65.900000
   2 P   36.600000
   3 P   20.800000
   3 P   15.300000
   4 P   13.550000
   4 P    9.250000
   5 P    6.000000
   5 P    3.700000
   3 D   28.000000
   3 D   17.900000
   4 D   12.200000
   4 D    7.800000
   5 D    5.050000
   5 D    2.800000
   5 D    1.500000
   4 F   16.150000
   4 F    8.900000
   4 F    4.900000
   6 P    1.950000

 Charge Fitting Sets (for the computation of the Coulomb Potential):  74
 -----------------------------------------------------------------------
   1 S 1520.000000
   1 S 1116.529000
   1 S  820.157000
   1 S  602.453000
   1 S  442.537000
   1 S  325.070000
   1 S  238.783000
   1 S  175.400000
   1 S  104.650000
   2 S  115.630000
   2 S   77.570000
   3 S   76.400000
   3 S   54.540000
   4 S   51.490000
   4 S   38.250000
   5 S   35.400000
   5 S   27.060000
   6 S   24.790000
   6 S   19.360000
   7 S   17.640000
   7 S   14.010000
   8 S   12.730000
   8 S   10.260000
   9 S    9.300000
   9 S    7.580000
  10 S    6.870000
  10 S    5.660000
  10 S    4.660000
  11 S    4.220000
  11 S    3.510000
  11 S    2.910000
  11 S    2.420000
   2 P  124.300000
   3 P  103.070000
   4 P   83.980000
   5 P   68.180000
   5 P   46.020000
   6 P   37.420000
   6 P   26.070000
   7 P   21.270000
   7 P   15.200000
   8 P   12.450000
   8 P    9.080000
   9 P    7.470000
   9 P    5.540000
  10 P    4.580000
  10 P    3.450000
   3 D  105.600000
   4 D   75.890000
   5 D   55.080000
   6 D   40.440000
   7 D   30.020000
   7 D   19.570000
   8 D   14.680000
   8 D    9.830000
   9 D    7.440000
   9 D    5.090000
  10 D    3.890000
  10 D    2.710000
   4 F   96.600000
   5 F   59.900000
   6 F   38.100000
   7 F   24.770000
   8 F   16.410000
   8 F    9.730000
   9 F    6.560000
   9 F    4.000000
   5 G   45.500000
   6 G   28.870000
   7 G   18.730000
   8 G   12.380000
   8 G    7.330000
   9 G    4.930000
   9 G    3.000000


 BAS: List of all Elementary Cartesian Basis Functions
 =====================================================

 The numbering in the list below (to the right of the function characteristics) is referred
 to in print-outs of MO eigenvectors and Mulliken populations in the BAS representation
 (as contrasted to the SFO representation).

 Notes:
 1. The functions are characterized by a polynomial prefactor (powers of x,y,z and r) and
    an exponential decay factor alpha.
 2. Since the basis sets are specific for an atom TYPE, the individual functions occur on
    all atoms of that type.
 3. The word 'Core' in the left margin signals that it is a Core Function (CF) : not a
    degree of freedom in the valence set, but only used to ensure orthogonalization of
    the other valence basis functions on the frozen Core Orbitals.


 (power of) X  Y  Z  R     Alpha  on Atom
            ==========     =====     ==========

 Au                                   1    2
                                  ---------------------------------------------------------------------------
            0  0  0  0   760.000      1  117
            0  0  0  0   184.000      2  118
            0  0  0  0    87.700      3  119
            0  0  0  1    99.400      4  120
            0  0  0  1    38.300      5  121
            0  0  0  2    48.700      6  122
            0  0  0  2    20.750      7  123
            0  0  0  3    12.700      8  124
            0  0  0  3     9.000      9  125
            0  0  0  4     7.000     10  126
            0  0  0  4     4.600     11  127
            0  0  0  5     3.150     12  128
            0  0  0  5     1.950     13  129
            0  0  0  5     1.210     14  130
            1  0  0  0   184.000     15  131
            0  1  0  0   184.000     16  132
            0  0  1  0   184.000     17  133
            1  0  0  0    65.900     18  134
            0  1  0  0    65.900     19  135
            0  0  1  0    65.900     20  136
            1  0  0  0    36.600     21  137
            0  1  0  0    36.600     22  138
            0  0  1  0    36.600     23  139
            1  0  0  1    20.800     24  140
            0  1  0  1    20.800     25  141
            0  0  1  1    20.800     26  142
            1  0  0  1    15.300     27  143
            0  1  0  1    15.300     28  144
            0  0  1  1    15.300     29  145
            1  0  0  2    13.550     30  146
            0  1  0  2    13.550     31  147
            0  0  1  2    13.550     32  148
            1  0  0  2     9.250     33  149
            0  1  0  2     9.250     34  150
            0  0  1  2     9.250     35  151
            1  0  0  3     6.000     36  152
            0  1  0  3     6.000     37  153
            0  0  1  3     6.000     38  154
            1  0  0  3     3.700     39  155
            0  1  0  3     3.700     40  156
            0  0  1  3     3.700     41  157
            2  0  0  0    28.000     42  158
            1  1  0  0    28.000     43  159
            1  0  1  0    28.000     44  160
            0  2  0  0    28.000     45  161
            0  1  1  0    28.000     46  162
            0  0  2  0    28.000     47  163
            2  0  0  0    17.900     48  164
            1  1  0  0    17.900     49  165
            1  0  1  0    17.900     50  166
            0  2  0  0    17.900     51  167
            0  1  1  0    17.900     52  168
            0  0  2  0    17.900     53  169
            2  0  0  1    12.200     54  170
            1  1  0  1    12.200     55  171
            1  0  1  1    12.200     56  172
            0  2  0  1    12.200     57  173
            0  1  1  1    12.200     58  174
            0  0  2  1    12.200     59  175
            2  0  0  1     7.800     60  176
            1  1  0  1     7.800     61  177
            1  0  1  1     7.800     62  178
            0  2  0  1     7.800     63  179
            0  1  1  1     7.800     64  180
            0  0  2  1     7.800     65  181
            2  0  0  2     5.050     66  182
            1  1  0  2     5.050     67  183
            1  0  1  2     5.050     68  184
            0  2  0  2     5.050     69  185
            0  1  1  2     5.050     70  186
            0  0  2  2     5.050     71  187
            2  0  0  2     2.800     72  188
            1  1  0  2     2.800     73  189
            1  0  1  2     2.800     74  190
            0  2  0  2     2.800     75  191
            0  1  1  2     2.800     76  192
            0  0  2  2     2.800     77  193
            2  0  0  2     1.500     78  194
            1  1  0  2     1.500     79  195
            1  0  1  2     1.500     80  196
            0  2  0  2     1.500     81  197
            0  1  1  2     1.500     82  198
            0  0  2  2     1.500     83  199
            3  0  0  0    16.150     84  200
            2  1  0  0    16.150     85  201
            2  0  1  0    16.150     86  202
            1  2  0  0    16.150     87  203
            1  1  1  0    16.150     88  204
            1  0  2  0    16.150     89  205
            0  3  0  0    16.150     90  206
            0  2  1  0    16.150     91  207
            0  1  2  0    16.150     92  208
            0  0  3  0    16.150     93  209
            3  0  0  0     8.900     94  210
            2  1  0  0     8.900     95  211
            2  0  1  0     8.900     96  212
            1  2  0  0     8.900     97  213
            1  1  1  0     8.900     98  214
            1  0  2  0     8.900     99  215
            0  3  0  0     8.900    100  216
            0  2  1  0     8.900    101  217
            0  1  2  0     8.900    102  218
            0  0  3  0     8.900    103  219
            3  0  0  0     4.900    104  220
            2  1  0  0     4.900    105  221
            2  0  1  0     4.900    106  222
            1  2  0  0     4.900    107  223
            1  1  1  0     4.900    108  224
            1  0  2  0     4.900    109  225
            0  3  0  0     4.900    110  226
            0  2  1  0     4.900    111  227
            0  1  2  0     4.900    112  228
            0  0  3  0     4.900    113  229
            1  0  0  4     1.950    114  230
            0  1  0  4     1.950    115  231
            0  0  1  4     1.950    116  232
1
 ***************************************************************************************************



                                              ***********************
                                              *  T E C H N I C A L  *
                                              ***********************
  



 =============================================================
 P A R A L L E L I Z A T I O N  and  V E C T O R I Z A T I O N
 =============================================================
  
 Nr of parallel processes:                                1
 Internal max. (compile-time) nr of processes:          128
 Maximum vector length in NumInt loops:                 128



 ===============
 I O  vs.  C P U  ***  (store numerical data on disk or recalculate)  ***
 ===============
  
 Basis functions:   recalculate when needed
 Fit functions:     recalculate when needed

 IO buffersize (Mb):                                      8.000000

 Max memory usage (Mb):                                  80.000000
 Dynamic allocation blocks (Mb):
   Reals:                                                 1.000000
   Integers:                                              0.500000
   Logicals:                                              0.031250
   Strings:                                               1.500000



 ===============================
 G E O M E T R Y   U P D A T E S
 ===============================
  
 Optimization coordinates:                       Z-matrix
 Hessian update method:                          BFGS (Broyden-Fletcher-Goldfarb-Shanno)

 Iterative Geometry Improvements:
    Max. nr. of iterations:                         30
    Convergence criteria:
         Change in energy (hartree):                 0.0010000000
         Gradients (au/Angstrom):                    0.0100000000
         Cart/bondlength changes (Angstrom):         0.0100000000
         Angular changes (degree):                   0.5000000000
    Max. steps to take:
         Cart/bondlengths (Angstrom):                0.3000000000
         Angles (degree):                           10.0000000000



 =====================
 S C F   U P D A T E S
 =====================
  
 Max. nr. of cycles:                                50
 Convergence criterion:                              0.0000010000
   secondary criterion:                              0.0010000000

 Mix parameter (when DIIS does not apply):           0.2000000000


 DIIS (Direct Inversion in Iteration Space)
    Replace damping when SCF Error is below:         0.5000000000
    Apply anyway after SCF cycle:
                                                     5
    (Max.) nr. of expansion vectors:                10

    Upperbound on expansion coefficients:            5.0000000000
    (when exceeded, IterationSpace is re-built)
    2nd Upperbound on coefficients:                 25.0000000000
    (when exceeded, simple damping will be used)



 =================
 P R E C I S I O N  ***  (General: NumInt, NeglectFunctionTails, ...)  ***
 =================
  

 NumInt:           Target precision:                 6.5000000000
 -------           Initial precision:                6.5000000000
                   Min. precision (optimization):    3.0000000000

 Neglect Functions:          Basis functions:        0.3162277660E-08
 ------------------          Fit functions:          0.3162277660E-08



 ===========================
 L I N E A R   S C A L I N G
 ===========================
  

 Cut-off radii density fit:                        0.3162277660E-10
 Overlap cut-off criterion AO matrix elements:     0.3162277660E-08
 Cut-offs for Coulomb potential and fitted density:0.3162277660E-10
 Cut-off criterion for Coulomb multipole terms:    0.3162277660E-10
1
 ***************************************************************************************************



                                            ***************************
                                            *  C O M P U T A T I O N  *
                                            ***************************
  

 Number of elements of the density matrix on this node (used, total):     20242     27028



 ====================================================
 Numerical Integration : Voronoi Polyhedra (Te Velde)  ***  (parameters, tests)  ***
 ====================================================
  
 General Accuracy Parameter :                          6.50

 Symmetry used in the points section:  D(LIN)


 Summary of the Symmetry Unique Points:
 --------------------------------------
    Nr. of used Symmetry Operators                     2

    Points in the Atomic Spheres                     359
    Points in the Atomic Polyhedra                   274
    Points in the Outer Region                       211
    ----------------------------------------------------
    Total                                            844

    Sum of Weights                                277380.222014

 Total nr. of points:        844
 Nr. of blocks:                7
 Block length:               121
 Nr. of dummy points:          3


 Test of Precision of the Numerical Integration Grid
 ===================================================

 Integral of the Total Core Density:                   0.00000000000000



 =====
 S C F
 =====
  

 CYCLE    1
 orbitals (Q,E):
 ---------------
 SIGMA.g :5...24     ( 2.00  -102.8293)  ( 2.00   -80.8791)  ( 2.00   -26.7594)  ( 2.00   -20.0597)   
                     ( 2.00   -11.9737)  ( 2.00    -3.9782)  ( 2.00    -3.0014)  ( 2.00    -2.2131)   
                     ( 2.00    -0.3403)  ( 2.00    -0.2544)  ( 0.00    -0.0141)  ( 0.00     0.0728)   
                     ( 0.00     0.3497)  ( 0.00     0.6496)  ( 0.00     1.7308)  ( 0.00     1.8368)   
                     ( 0.00     3.6297)  ( 0.00     3.8245)  ( 0.00    13.4290)  ( 0.00    15.3491)   
 SIGMA.u :4...23     ( 2.00  -123.2852)  ( 2.00  -102.8293)  ( 2.00   -80.8791)  ( 2.00   -26.7594)   
                     ( 2.00   -20.0597)  ( 2.00   -11.9737)  ( 2.00    -3.9776)  ( 2.00    -3.0013)   
                     ( 2.00    -2.2023)  ( 2.00    -0.2362)  ( 0.00    -0.1554)  ( 0.00     0.0861)   
                     ( 0.00     0.2261)  ( 0.00     0.4341)  ( 0.00     0.7738)  ( 0.00     1.8068)   
                     ( 0.00     2.1577)  ( 0.00     3.8557)  ( 0.00     3.8919)  ( 0.00    13.7696)   
 PI.g :1...18        ( 4.00  -451.6769)  ( 4.00  -102.8293)  ( 4.00   -80.8791)  ( 4.00   -20.0593)   
                     ( 4.00   -11.9736)  ( 4.00    -3.0012)  ( 4.00    -2.2036)  ( 4.00    -0.2361)   
                     ( 0.00     0.0662)  ( 0.00     0.3869)  ( 0.00     1.6900)  ( 0.00     1.9941)   
                     ( 0.00     3.8152)  ( 0.00    13.6198)  ( 0.00    15.2840)  ( 0.00    29.2808)   
                     ( 0.00    94.7827)  ( 0.00   125.5012)   
 PI.u :1...18        ( 4.00  -451.6769)  ( 4.00  -102.8293)  ( 4.00   -80.8791)  ( 4.00   -20.0593)   
                     ( 4.00   -11.9736)  ( 4.00    -3.0012)  ( 4.00    -2.2047)  ( 4.00    -0.2994)   
                     ( 0.00    -0.0271)  ( 0.00     0.2901)  ( 0.00     1.6082)  ( 0.00     1.7907)   
                     ( 0.00     3.8033)  ( 0.00    13.4152)  ( 0.00    15.1526)  ( 0.00    29.2685)   
                     ( 0.00    94.5910)  ( 0.00   125.1792)   
 DELTA.g :1...10     ( 4.00   -80.8791)  ( 4.00   -11.9732)  ( 4.00    -3.0010)  ( 4.00    -0.2688)   
                     ( 0.00     0.2219)  ( 0.00     1.8163)  ( 0.00     3.8049)  ( 0.00    13.4309)   
                     ( 0.00    29.2698)  ( 0.00   125.1919)   
 DELTA.u :1...10     ( 4.00   -80.8791)  ( 4.00   -11.9732)  ( 4.00    -3.0010)  ( 4.00    -0.2556)   
                     ( 0.00     0.3159)  ( 0.00     1.8943)  ( 0.00     3.8058)  ( 0.00    13.5306)   
                     ( 0.00    29.2708)  ( 0.00   125.3480)   
 PHI.g :1...3        ( 4.00    -3.0007)  ( 0.00     3.8061)  ( 0.00    29.2702)   
 PHI.u :1...3        ( 4.00    -3.0007)  ( 0.00     3.8060)  ( 0.00    29.2702)   

 CYCLE    2
 d-Pmat  mean:  0.11E-02
 imax=    187:  0.16E-01
 orbitals (Q,E):
 ---------------
 SIGMA.g :5...15     ( 2.00  -102.8401)  ( 2.00   -80.8901)  ( 2.00   -26.7691)  ( 2.00   -20.0694)   
                     ( 2.00   -11.9835)  ( 2.00    -3.9852)  ( 2.00    -3.0110)  ( 2.00    -2.2213)   
                     ( 2.00    -0.3432)  ( 2.00    -0.2525)  ( 0.00    -0.0153)   
 SIGMA.u :4...14     ( 2.00  -123.2961)  ( 2.00  -102.8401)  ( 2.00   -80.8901)  ( 2.00   -26.7691)   
                     ( 2.00   -20.0694)  ( 2.00   -11.9835)  ( 2.00    -3.9845)  ( 2.00    -3.0109)   
                     ( 2.00    -2.2107)  ( 2.00    -0.2395)  ( 0.00    -0.1600)   
 PI.g :1...9         ( 4.00  -451.6885)  ( 4.00  -102.8403)  ( 4.00   -80.8901)  ( 4.00   -20.0689)   
                     ( 4.00   -11.9831)  ( 4.00    -3.0107)  ( 4.00    -2.2083)  ( 4.00    -0.2407)   
                     ( 0.00     0.0670)   
 PI.u :1...9         ( 4.00  -451.6885)  ( 4.00  -102.8403)  ( 4.00   -80.8901)  ( 4.00   -20.0689)   
                     ( 4.00   -11.9831)  ( 4.00    -3.0107)  ( 4.00    -2.2093)  ( 4.00    -0.3019)   
                     ( 0.00    -0.0247)   
 DELTA.g :1...5      ( 4.00   -80.8903)  ( 4.00   -11.9826)  ( 4.00    -3.0102)  ( 4.00    -0.2695)   
                     ( 0.00     0.2246)   
 DELTA.u :1...5      ( 4.00   -80.8903)  ( 4.00   -11.9826)  ( 4.00    -3.0102)  ( 4.00    -0.2567)   
                     ( 0.00     0.3174)   
 PHI.g :1...2        ( 4.00    -3.0097)  ( 0.00     3.8012)   
 PHI.u :1...2        ( 4.00    -3.0097)  ( 0.00     3.8012)   

 CYCLE    3
 d-Pmat  mean:  0.15E-02
 imax=    187:  0.19E-01
 orbitals (Q,E):
 ---------------
 SIGMA.g :5...15     ( 2.00  -102.8186)  ( 2.00   -80.8686)  ( 2.00   -26.7531)  ( 2.00   -20.0537)   
                     ( 2.00   -11.9687)  ( 2.00    -3.9756)  ( 2.00    -2.9969)  ( 2.00    -2.2184)   
                     ( 2.00    -0.3389)  ( 2.00    -0.2388)  ( 0.00    -0.0137)   
 SIGMA.u :4...14     ( 2.00  -123.2753)  ( 2.00  -102.8186)  ( 2.00   -80.8686)  ( 2.00   -26.7531)   
                     ( 2.00   -20.0537)  ( 2.00   -11.9687)  ( 2.00    -3.9749)  ( 2.00    -2.9968)   
                     ( 2.00    -2.2081)  ( 2.00    -0.2333)  ( 0.00    -0.1639)   
 PI.g :1...9         ( 4.00  -451.6651)  ( 4.00  -102.8199)  ( 4.00   -80.8687)  ( 4.00   -20.0534)   
                     ( 4.00   -11.9678)  ( 4.00    -2.9964)  ( 4.00    -2.1958)  ( 4.00    -0.2358)   
                     ( 0.00     0.0744)   
 PI.u :1...9         ( 4.00  -451.6651)  ( 4.00  -102.8199)  ( 4.00   -80.8687)  ( 4.00   -20.0534)   
                     ( 4.00   -11.9678)  ( 4.00    -2.9964)  ( 4.00    -2.1968)  ( 4.00    -0.2934)   
                     ( 0.00    -0.0137)   
 DELTA.g :1...5      ( 4.00   -80.8696)  ( 4.00   -11.9675)  ( 4.00    -2.9953)  ( 4.00    -0.2548)   
                     ( 0.00     0.2365)   
 DELTA.u :1...5      ( 4.00   -80.8696)  ( 4.00   -11.9675)  ( 4.00    -2.9953)  ( 4.00    -0.2424)   
                     ( 0.00     0.3261)   
 PHI.g :1...2        ( 4.00    -2.9948)  ( 0.00     3.8162)   
 PHI.u :1...2        ( 4.00    -2.9948)  ( 0.00     3.8161)   

 CYCLE    4
 d-Pmat  mean:  0.60E-03
 imax=    199: -0.34E-02
 orbitals (Q,E):
 ---------------
 SIGMA.g :5...15     ( 2.00  -102.8334)  ( 2.00   -80.8836)  ( 2.00   -26.7640)  ( 2.00   -20.0642)   
                     ( 2.00   -11.9787)  ( 2.00    -3.9820)  ( 2.00    -3.0066)  ( 2.00    -2.2233)   
                     ( 2.00    -0.3441)  ( 2.00    -0.2436)  ( 0.00    -0.0153)   
 SIGMA.u :4...14     ( 2.00  -123.2900)  ( 2.00  -102.8334)  ( 2.00   -80.8836)  ( 2.00   -26.7640)   
                     ( 2.00   -20.0642)  ( 2.00   -11.9788)  ( 2.00    -3.9813)  ( 2.00    -3.0065)   
                     ( 2.00    -2.2128)  ( 2.00    -0.2373)  ( 0.00    -0.1636)   
 PI.g :1...9         ( 4.00  -451.6814)  ( 4.00  -102.8345)  ( 4.00   -80.8837)  ( 4.00   -20.0640)   
                     ( 4.00   -11.9780)  ( 4.00    -3.0062)  ( 4.00    -2.2023)  ( 4.00    -0.2398)   
                     ( 0.00     0.0721)   
 PI.u :1...9         ( 4.00  -451.6814)  ( 4.00  -102.8345)  ( 4.00   -80.8837)  ( 4.00   -20.0640)   
                     ( 4.00   -11.9780)  ( 4.00    -3.0062)  ( 4.00    -2.2033)  ( 4.00    -0.2986)   
                     ( 0.00    -0.0172)   
 DELTA.g :1...5      ( 4.00   -80.8844)  ( 4.00   -11.9779)  ( 4.00    -3.0053)  ( 4.00    -0.2606)   
                     ( 0.00     0.2328)   
 DELTA.u :1...5      ( 4.00   -80.8844)  ( 4.00   -11.9779)  ( 4.00    -3.0053)  ( 4.00    -0.2481)   
                     ( 0.00     0.3235)   
 PHI.g :1...2        ( 4.00    -3.0049)  ( 0.00     3.8085)   
 PHI.u :1...2        ( 4.00    -3.0049)  ( 0.00     3.8085)   

 CYCLE    5
 d-Pmat  mean:  0.11E-03
 imax=    187: -0.17E-02
 orbitals (Q,E):
 ---------------
 SIGMA.g :5...15     ( 2.00  -102.8327)  ( 2.00   -80.8829)  ( 2.00   -26.7634)  ( 2.00   -20.0635)   
                     ( 2.00   -11.9780)  ( 2.00    -3.9813)  ( 2.00    -3.0059)  ( 2.00    -2.2220)   
                     ( 2.00    -0.3429)  ( 2.00    -0.2436)  ( 0.00    -0.0149)   
 SIGMA.u :4...14     ( 2.00  -123.2893)  ( 2.00  -102.8327)  ( 2.00   -80.8829)  ( 2.00   -26.7634)   
                     ( 2.00   -20.0635)  ( 2.00   -11.9780)  ( 2.00    -3.9807)  ( 2.00    -3.0058)   
                     ( 2.00    -2.2116)  ( 2.00    -0.2366)  ( 0.00    -0.1631)   
 PI.g :1...9         ( 4.00  -451.6806)  ( 4.00  -102.8337)  ( 4.00   -80.8830)  ( 4.00   -20.0634)   
                     ( 4.00   -11.9774)  ( 4.00    -3.0055)  ( 4.00    -2.2020)  ( 4.00    -0.2390)   
                     ( 0.00     0.0721)   
 PI.u :1...9         ( 4.00  -451.6806)  ( 4.00  -102.8337)  ( 4.00   -80.8830)  ( 4.00   -20.0634)   
                     ( 4.00   -11.9774)  ( 4.00    -3.0055)  ( 4.00    -2.2030)  ( 4.00    -0.2979)   
                     ( 0.00    -0.0173)   
 DELTA.g :1...5      ( 4.00   -80.8837)  ( 4.00   -11.9773)  ( 4.00    -3.0047)  ( 4.00    -0.2606)   
                     ( 0.00     0.2326)   
 DELTA.u :1...5      ( 4.00   -80.8837)  ( 4.00   -11.9773)  ( 4.00    -3.0047)  ( 4.00    -0.2481)   
                     ( 0.00     0.3234)   
 PHI.g :1...2        ( 4.00    -3.0044)  ( 0.00     3.8087)   
 PHI.u :1...2        ( 4.00    -3.0044)  ( 0.00     3.8087)   

 CYCLE    6
 d-Pmat  mean:  0.34E-04
 imax=    187:  0.35E-03
 orbitals (Q,E):
 ---------------
 SIGMA.g :5...15     ( 2.00  -102.8331)  ( 2.00   -80.8833)  ( 2.00   -26.7639)  ( 2.00   -20.0640)   
                     ( 2.00   -11.9786)  ( 2.00    -3.9818)  ( 2.00    -3.0064)  ( 2.00    -2.2225)   
                     ( 2.00    -0.3432)  ( 2.00    -0.2438)  ( 0.00    -0.0150)   
 SIGMA.u :4...14     ( 2.00  -123.2897)  ( 2.00  -102.8331)  ( 2.00   -80.8833)  ( 2.00   -26.7639)   
                     ( 2.00   -20.0640)  ( 2.00   -11.9786)  ( 2.00    -3.9812)  ( 2.00    -3.0063)   
                     ( 2.00    -2.2121)  ( 2.00    -0.2370)  ( 0.00    -0.1632)   
 PI.g :1...9         ( 4.00  -451.6810)  ( 4.00  -102.8341)  ( 4.00   -80.8834)  ( 4.00   -20.0639)   
                     ( 4.00   -11.9779)  ( 4.00    -3.0060)  ( 4.00    -2.2025)  ( 4.00    -0.2394)   
                     ( 0.00     0.0720)   
 PI.u :1...9         ( 4.00  -451.6810)  ( 4.00  -102.8341)  ( 4.00   -80.8834)  ( 4.00   -20.0639)   
                     ( 4.00   -11.9779)  ( 4.00    -3.0060)  ( 4.00    -2.2035)  ( 4.00    -0.2983)   
                     ( 0.00    -0.0174)   
 DELTA.g :1...5      ( 4.00   -80.8841)  ( 4.00   -11.9778)  ( 4.00    -3.0052)  ( 4.00    -0.2610)   
                     ( 0.00     0.2325)   
 DELTA.u :1...5      ( 4.00   -80.8841)  ( 4.00   -11.9778)  ( 4.00    -3.0052)  ( 4.00    -0.2484)   
                     ( 0.00     0.3233)   
 PHI.g :1...2        ( 4.00    -3.0048)  ( 0.00     3.8083)   
 PHI.u :1...2        ( 4.00    -3.0048)  ( 0.00     3.8082)   

 SCF CONVERGED

 CYCLE    7
 orbitals (Q,E):
 ---------------
 SIGMA.g :5...24     ( 2.00  -102.8330)  ( 2.00   -80.8832)  ( 2.00   -26.7638)  ( 2.00   -20.0639)   
                     ( 2.00   -11.9784)  ( 2.00    -3.9817)  ( 2.00    -3.0063)  ( 2.00    -2.2224)   
                     ( 2.00    -0.3431)  ( 2.00    -0.2437)  ( 0.00    -0.0150)  ( 0.00     0.0776)   
                     ( 0.00     0.3524)  ( 0.00     0.6544)  ( 0.00     1.7306)  ( 0.00     1.8312)   
                     ( 0.00     3.6303)  ( 0.00     3.8181)  ( 0.00    13.4239)  ( 0.00    15.3428)   
 SIGMA.u :4...23     ( 2.00  -123.2896)  ( 2.00  -102.8330)  ( 2.00   -80.8832)  ( 2.00   -26.7638)   
                     ( 2.00   -20.0639)  ( 2.00   -11.9784)  ( 2.00    -3.9811)  ( 2.00    -3.0062)   
                     ( 2.00    -2.2119)  ( 2.00    -0.2369)  ( 0.00    -0.1632)  ( 0.00     0.0857)   
                     ( 0.00     0.2258)  ( 0.00     0.4427)  ( 0.00     0.7786)  ( 0.00     1.7995)   
                     ( 0.00     2.1585)  ( 0.00     3.8506)  ( 0.00     3.8889)  ( 0.00    13.7622)   
 PI.g :1...18        ( 4.00  -451.6809)  ( 4.00  -102.8340)  ( 4.00   -80.8833)  ( 4.00   -20.0638)   
                     ( 4.00   -11.9778)  ( 4.00    -3.0059)  ( 4.00    -2.2024)  ( 4.00    -0.2393)   
                     ( 0.00     0.0720)  ( 0.00     0.3924)  ( 0.00     1.6913)  ( 0.00     1.9989)   
                     ( 0.00     3.8092)  ( 0.00    13.6150)  ( 0.00    15.2836)  ( 0.00    29.2765)   
                     ( 0.00    94.7788)  ( 0.00   125.4971)   
 PI.u :1...18        ( 4.00  -451.6809)  ( 4.00  -102.8340)  ( 4.00   -80.8833)  ( 4.00   -20.0638)   
                     ( 4.00   -11.9778)  ( 4.00    -3.0059)  ( 4.00    -2.2034)  ( 4.00    -0.2982)   
                     ( 0.00    -0.0174)  ( 0.00     0.2943)  ( 0.00     1.6153)  ( 0.00     1.7904)   
                     ( 0.00     3.7973)  ( 0.00    13.4118)  ( 0.00    15.1509)  ( 0.00    29.2642)   
                     ( 0.00    94.5872)  ( 0.00   125.1751)   
 DELTA.g :1...10     ( 4.00   -80.8840)  ( 4.00   -11.9777)  ( 4.00    -3.0051)  ( 4.00    -0.2609)   
                     ( 0.00     0.2325)  ( 0.00     1.8237)  ( 0.00     3.8024)  ( 0.00    13.4299)   
                     ( 0.00    29.2659)  ( 0.00   125.1879)   
 DELTA.u :1...10     ( 4.00   -80.8840)  ( 4.00   -11.9777)  ( 4.00    -3.0051)  ( 4.00    -0.2484)   
                     ( 0.00     0.3233)  ( 0.00     1.9017)  ( 0.00     3.8033)  ( 0.00    13.5296)   
                     ( 0.00    29.2669)  ( 0.00   125.3440)   
 PHI.g :1...3        ( 4.00    -3.0047)  ( 0.00     3.8084)  ( 0.00    29.2667)   
 PHI.u :1...3        ( 4.00    -3.0047)  ( 0.00     3.8083)  ( 0.00    29.2666)   


 Fit test: (difference of exact and fit density, squared integrated, result summed over spins)
         Sum-of-Fragments:                             0.00002140268958
         Orthogonalized Fragments:                     0.00002898991941
         SCF:                                          0.00009232149986

 Gross Charges per Atom (Z minus electrons)
 ==========================================
             0.0000    0.0000
 Net Total:  0.00000000



 =================================================================
 M U L T I P O L E   D E R I V E D   C H A R G E   A N A L Y S I S
 =================================================================

 See: M. Swart, P.Th. van Duijnen, J.G. Snijders, J.Comput.Chem., (2001), p. 79-88.

 --------------------------------------- 
 Multipole derived atomic charges (a.u.)
 --------------------------------------- 

        Atom    Level:     MDC-m        MDC-d        MDC-q
 ---------------------------------------------------------
     1     Au           0.000000     0.000000     0.000000
     2     Au           0.000000     0.000000     0.000000



 =============================
 G E O M E T R Y   U P D A T E  ***  1  ***
 =============================
  

 Energy gradients wrt nuclear displacements
 ==========================================

   Atom         Cartesian (a.u./angstrom)   Connection Numbers               Internal
[...]
  XC Energy:                        -0.040587650578281         -1.1044           -25.47          -106.56
                                  --------------------     -----------       ----------      -----------
  Total Bonding Energy:             -0.093520703281596         -2.5448           -58.69          -245.54


Correction terms (incorporated in energies above; only for test purposes):

1. Indication of fit-quality: 1st-order fit-correction used in the energy (hartree):  -0.0000165004
2. Electrostatic (Fit correction):   0.0000000000

Scaled ZORA energy correction, not included in bonding energy (hartree):           -0.0001067156



 =========================================
 F R A G M E N T   E N E R G Y   T E R M S  ***  (summed over all fragments)  ***
 =========================================
  

The energy terms below are (parts of) the Total Energy of the fragments from which the molecule
 is built.

Exchange and Correlation
  Exchange LDA:                   -696.515106565388123     -18953.1481       -437069.87      -1828700.36
  Exchange GGA:                    -32.158171637296284       -875.0687        -20179.56        -84431.28
  Correlation LDA:                 -16.598130712569116       -451.6583        -10415.49        -43578.39
  Correlation GGA:                   5.550045672554904        151.0245          3482.71         14571.64
                                  --------------------     -----------       ----------      -----------
  Total XC:                       -739.721363242698544     -20128.8507       -464182.21      -1942138.38



 ===============================================================================
 Electrostatic potential at the Nuclei due to valence electrons and other nuclei
 ===============================================================================
  
         Atom                  Potential
         ----                  ---------
     1)   Au                616.87852253
     2)   Au                616.87852253
 
 
 ========================
 No memory problems found
 ========================
 
 Maximum number of active allocate calls:         425
 
 *******************************************************************************

                             A D F   E X I T
 NORMAL TERMINATION



 =================
 Timing Statistics
 =================
  
 Total Used :                     CPU=      121.85      System=        0.78     Elapsed=      125.35

 Calls  Section                     ( Mean, Percentage )
 ---------------------------------------------------------------------------------------------------
     3  ><      ................      0.00    0.00             0.00    0.00             0.00    0.00
     1  INIT    ................      0.02    0.02             0.00    0.00             0.04    0.04
     1  GEOMET  ................      0.04    0.03             0.03    3.85             0.08    0.07
     1  FRAGM   ................      0.11    0.09             0.01    1.28             0.15    0.12
     5  INPUTA  ................      0.01    0.05             0.01    7.69             0.07    0.28
     5  MAINSY  ................      0.01    0.06             0.00    1.28             0.02    0.08
     5  SYMFIT  ................      0.00    0.01             0.00    1.28             0.01    0.03
     5  CORORT  ................      0.00    0.01             0.00    0.00             0.00    0.01
     5  SYMORB  ................      0.03    0.11             0.00    0.00             0.08    0.30
     5  FITINT  ................     10.50   43.09             0.00    2.56            10.53   41.99
     5  CLSMAT  ................      0.33    1.35             0.00    1.28             0.33    1.31
     5  ORTHON  ................      0.11    0.46             0.00    1.28             0.12    0.49
     1  ATDEN   ................      0.19    0.16             0.02    2.56             0.21    0.16
     1  CRTP12  ................      0.02    0.02             0.00    0.00             0.02    0.02
     5  ETALOW  ................      0.01    0.02             0.00    1.28             0.01    0.05
     5  GENPT   ................      0.22    0.92             0.02   10.26             0.29    1.14
     5  PTCOR   ................      0.01    0.03             0.00    1.28             0.01    0.05
     5  PTBAS   ................      8.80   36.12             0.01    5.13             8.87   35.38
    37  FOCK00  ................      0.01    0.21             0.00    6.41             0.02    0.44
    36  FOCKY   ................      0.06    1.85             0.00    1.28             0.07    1.89
    36  FOCKTR  ................      0.01    0.29             0.00    1.28             0.01    0.31
    36  FOCKNM  ................      0.00    0.01             0.00    0.00             0.00    0.00
    36  SDIIS   ................      0.01    0.18             0.00    0.00             0.01    0.33
    36  EMERGE  ................      0.07    1.99             0.00   10.26             0.07    2.03
    41  RHOFIH  ................      0.22    7.40             0.00    8.97             0.23    7.52
     5  TOTEN   ................      0.20    0.84             0.02   12.82             0.23    0.92
     5  POPAN   ................      0.02    0.07             0.00    2.56             0.02    0.09
     5  DEBYE   ................      0.16    0.65             0.00    1.28             0.17    0.67
     5  INPUTE  ................      0.00    0.01             0.00    1.28             0.01    0.02
     5  SYMORE  ................      0.01    0.05             0.00    0.00             0.01    0.05
    10  METS    ................      0.01    0.05             0.00    0.00             0.02    0.16
     5  CETS    ................      0.03    0.11             0.00    0.00             0.03    0.11
     9  ELNRGY  ................      0.02    0.17             0.00    0.00             0.03    0.20
     4  FOCKC   ................      0.77    2.52             0.00    0.00             0.78    2.47
     4  ENGRAD  ................      0.27    0.89             0.02    7.69             0.29    0.93
     4  GEOSTP  ................      0.02    0.07             0.00    1.28             0.03    0.10
     1  COREPS  ................      0.06    0.05             0.00    0.00             0.06    0.05
     1  POPUL   ................      0.04    0.03             0.01    1.28             0.05    0.04
     1  QMPOT   ................      0.00    0.00             0.01    1.28             0.03    0.02
     1  EXIT PROCEDURE .........      0.02    0.02             0.01    1.28             0.13    0.10


 Currently Open Files (EXIT00)
 ====================

 Unit    Access Format  Status   Type       Ident (file)
 -------------------------------------------------------
   3      SEQ    FORM   TRANSP  NORMAL      LOGFILE
                                          ( logfile )
   8      SEQ    BINA   LOCAL   NORMAL      $UNKNOWN


 Buffered I/O statistics
 =======================
 Memory available:                      8388608
 Number of records fitting in memory:      2028
 Input :   1.1% of                        73717  *4k bytes
 Output:   5.3% of                        26108  *4k bytes
 Records from serial files evicted:         587
                    others evicted:           0
 Hash table lookups:     275025 with       6913 conflicts (  2.51%)


 Workspace Manager statistics
 ============================
 Allocate  :    3871
 Delocate  :    1363
 Relocate  :      44
 Extend    :       0
 Find      :     885
 Available :      82
 Check     :      15
 Hide      :      20
 Freeze    :       8
 Print     :       1

 (All arrays delocated)

 ***************************************************************************************************
 (LOGFILE)
 <Mar27-2007> <16:29:23>  DIRAC 2004.01  RunTime: Mar27-2007 16:29:23
 <Mar27-2007> <16:29:25>  NORMAL TERMINATION
 <Mar27-2007> <16:29:25>  END
 <Mar27-2007> <16:29:26>  ADF 2004.01  RunTime: Mar27-2007 16:29:26
 <Mar27-2007> <16:29:26>  Gold (IV, all electron)
 <Mar27-2007> <16:29:26>  RunType   : CREATE
 <Mar27-2007> <16:29:26>  Net Charge: 0 (Nuclei minus Electrons)
 <Mar27-2007> <16:29:26>  Symmetry  : ATOM
 <Mar27-2007> <16:29:26>  >>>> CORORT
 <Mar27-2007> <16:29:26>  >>>> FITINT
 <Mar27-2007> <16:29:26>  >>>> CLSMAT
 <Mar27-2007> <16:29:26>  >>>> ORTHON
 <Mar27-2007> <16:29:26>  >>>> CRTP12
 <Mar27-2007> <16:29:26>  >>>> GENPT
 <Mar27-2007> <16:29:26>  Acc.Num.Int.=  10.000
 <Mar27-2007> <16:29:26>  Block Length= 122
 <Mar27-2007> <16:29:26>  >>>> PTCOR
 <Mar27-2007> <16:29:26>  >>>> PTBAS
 <Mar27-2007> <16:29:26>  >>>> CYCLE
 <Mar27-2007> <16:29:26>    1
 <Mar27-2007> <16:29:26>    2  ErrMat 392.48086141  MaxEl************
 <Mar27-2007> <16:29:26>    3  ErrMat 552.24020868  MaxEl************
 <Mar27-2007> <16:29:27>    4  ErrMat 450.10872675  MaxEl-85.54691338
 <Mar27-2007> <16:29:27>    5  ErrMat 333.58660682  MaxEl-54.79163828
 <Mar27-2007> <16:29:27>    6  ErrMat  33.16922919  MaxEl  7.66973811
 <Mar27-2007> <16:29:27>    7  ErrMat  19.92523316  MaxEl  4.63239210
 <Mar27-2007> <16:29:27>    8  ErrMat   1.52555714  MaxEl -0.35727317
 <Mar27-2007> <16:29:27>    9  ErrMat   1.19506555  MaxEl  0.20404318
 <Mar27-2007> <16:29:28>   10  ErrMat   0.05267604  MaxEl  0.01049077
 <Mar27-2007> <16:29:28>   11  ErrMat   0.01121635  MaxEl -0.00272927
 <Mar27-2007> <16:29:28>   12  ErrMat   0.00066589  MaxEl -0.00015007
 <Mar27-2007> <16:29:28>   13  ErrMat   0.00006006  MaxEl -0.00001301
 <Mar27-2007> <16:29:28>   14  ErrMat   0.00000052  MaxEl  0.00000010
 <Mar27-2007> <16:29:28>   15  ErrMat   0.00000002  MaxEl  0.00000000
 <Mar27-2007> <16:29:28>  SCF converged
 <Mar27-2007> <16:29:29>   16  ErrMat   0.00000000  MaxEl  0.00000000
 <Mar27-2007> <16:29:29>   Solutions with partially occupied orbitals may not be
 <Mar27-2007> <16:29:29>   lowest in energy. You might consider lowering the
 <Mar27-2007> <16:29:29>   symmetry in the input and explicitly specifying integer
 <Mar27-2007> <16:29:29>   occupations. In that case always check that you obtain
 <Mar27-2007> <16:29:29>   an aufbau solution.
 <Mar27-2007> <16:29:29>  >>>> COREPS
 <Mar27-2007> <16:29:29>  >>>> POPAN
 <Mar27-2007> <16:29:29>  >>>> DEBYE
 <Mar27-2007> <16:29:29>  NORMAL TERMINATION
 <Mar27-2007> <16:29:29>  END
 <Mar27-2007> <16:29:29>  ADF 2004.01  RunTime: Mar27-2007 16:29:29
 <Mar27-2007> <16:29:29>  Au2  relativistic optimization: scalar ZORA
 <Mar27-2007> <16:29:29>  RunType   : GEOMETRY OPTIMIZATION
 <Mar27-2007> <16:29:29>  Net Charge: 0 (Nuclei minus Electrons)
 <Mar27-2007> <16:29:29>  Symmetry  : D(LIN)
 <Mar27-2007> <16:29:29>  >>>> FRAGM
  Coordinates in Geometry Cycle 1
    Atom         X           Y           Z   (Angstrom)
    1.Au        0.000000    0.000000   -1.250000
    2.Au        0.000000    0.000000    1.250000
  Z-matrix coordinates
    Atom        i    j    k     R (Ang)   BondAngle    Dihedral
    1.Au        0    0    0    0.000000    0.000000    0.000000
    2.Au        1    0    0    2.500000    0.000000    0.000000
 <Mar27-2007> <16:29:29>  >>>> CORORT
 <Mar27-2007> <16:29:29>  >>>> FITINT
 <Mar27-2007> <16:29:40>  >>>> CLSMAT
 <Mar27-2007> <16:29:40>  >>>> ORTHON
 <Mar27-2007> <16:29:40>  >>>> CRTP12
 <Mar27-2007> <16:29:41>  >>>> GENPT
 <Mar27-2007> <16:29:41>  Acc.Num.Int.=   6.500
 <Mar27-2007> <16:29:41>  Block Length= 121
 <Mar27-2007> <16:29:41>  >>>> PTCOR
 <Mar27-2007> <16:29:41>  >>>> PTBAS
 <Mar27-2007> <16:29:53>  >>>> CYCLE
 <Mar27-2007> <16:29:53>    1
 <Mar27-2007> <16:29:53>    2  ErrMat   0.23708842  MaxEl  0.04850983
 <Mar27-2007> <16:29:54>    3  ErrMat   0.11955067  MaxEl  0.03020262
 <Mar27-2007> <16:29:54>    4  ErrMat   0.10328255  MaxEl -0.02079183
 <Mar27-2007> <16:29:54>    5  ErrMat   0.00820681  MaxEl  0.00198269
 <Mar27-2007> <16:29:55>    6  ErrMat   0.00255798  MaxEl -0.00049008
 <Mar27-2007> <16:29:55>  SCF converged
 <Mar27-2007> <16:29:55>    7  ErrMat   0.00088842  MaxEl  0.00018145
 <Mar27-2007> <16:29:56>  >>>> TOTEN
 <Mar27-2007> <16:29:56>  >>>> POPAN
 <Mar27-2007> <16:29:56>  >>>> DEBYE
 <Mar27-2007> <16:29:56>  >>>> AMETS
 <Mar27-2007> <16:29:56>  >>>> FOCKC
 <Mar27-2007> <16:29:58>  >>>> ENGRAD
 <Mar27-2007> <16:29:58>  E-test:  old,new=   0.00000,  -0.09321 hartree
 <Mar27-2007> <16:29:58>  max gradient:      0.01714671 au/angstrom,radian
 <Mar27-2007> <16:29:58>  max bond step:     0.00216264 angstrom
 <Mar27-2007> <16:29:58>  max angular step:  0.00000000 degree
  Coordinates in Geometry Cycle 2
    Atom         X           Y           Z   (Angstrom)
    1.Au        0.000000    0.000000   -1.251081
    2.Au        0.000000    0.000000    1.251081
  Z-matrix coordinates
    Atom        i    j    k     R (Ang)   BondAngle    Dihedral
    1.Au        0    0    0    0.000000    0.000000    0.000000
    2.Au        1    0    0    2.502163    0.000000    0.000000
 <Mar27-2007> <16:29:58>  >>>> CORORT
 <Mar27-2007> <16:29:58>  >>>> FITINT
 <Mar27-2007> <16:30:09>  >>>> CLSMAT
 <Mar27-2007> <16:30:09>  >>>> ORTHON
 <Mar27-2007> <16:30:09>  >>>> GENPT
 <Mar27-2007> <16:30:09>  Acc.Num.Int.=   3.742
 <Mar27-2007> <16:30:10>  Block Length= 112
 <Mar27-2007> <16:30:10>  >>>> PTCOR
 <Mar27-2007> <16:30:10>  >>>> PTBAS
 <Mar27-2007> <16:30:16>  >>>> CYCLE
 <Mar27-2007> <16:30:16>    1
 <Mar27-2007> <16:30:16>    2  ErrMat   0.00563307  MaxEl  0.00165607
 <Mar27-2007> <16:30:16>    3  ErrMat   0.00393060  MaxEl  0.00123046
 <Mar27-2007> <16:30:17>    4  ErrMat   0.00360690  MaxEl  0.00057774
 <Mar27-2007> <16:30:17>    5  ErrMat   0.00079875  MaxEl -0.00009888
 <Mar27-2007> <16:30:17>  SCF converged
 <Mar27-2007> <16:30:18>    6  ErrMat   0.00020860  MaxEl  0.00004246
 <Mar27-2007> <16:30:18>  >>>> TOTEN
 <Mar27-2007> <16:30:18>  >>>> POPAN
 <Mar27-2007> <16:30:18>  >>>> DEBYE
 <Mar27-2007> <16:30:18>  >>>> AMETS
 <Mar27-2007> <16:30:19>  >>>> FOCKC
 <Mar27-2007> <16:30:19>  >>>> ENGRAD
 <Mar27-2007> <16:30:19>  E-test:  old,new=  -0.09321,  -0.09332 hartree
 <Mar27-2007> <16:30:19>  max gradient:      0.01531701 au/angstrom,radian
 <Mar27-2007> <16:30:19>  max bond step:     0.00648792 angstrom
 <Mar27-2007> <16:30:19>  max angular step:  0.00000000 degree
  Coordinates in Geometry Cycle 3
    Atom         X           Y           Z   (Angstrom)
    1.Au        0.000000    0.000000   -1.254325
    2.Au        0.000000    0.000000    1.254325
  Z-matrix coordinates
    Atom        i    j    k     R (Ang)   BondAngle    Dihedral
    1.Au        0    0    0    0.000000    0.000000    0.000000
    2.Au        1    0    0    2.508651    0.000000    0.000000
 <Mar27-2007> <16:30:20>  >>>> CORORT
 <Mar27-2007> <16:30:20>  >>>> FITINT
 <Mar27-2007> <16:30:30>  >>>> CLSMAT
 <Mar27-2007> <16:30:30>  >>>> ORTHON
 <Mar27-2007> <16:30:31>  >>>> GENPT
 <Mar27-2007> <16:30:31>  Acc.Num.Int.=   3.854
 <Mar27-2007> <16:30:31>  Block Length= 118
 <Mar27-2007> <16:30:31>  >>>> PTCOR
 <Mar27-2007> <16:30:31>  >>>> PTBAS
 <Mar27-2007> <16:30:39>  >>>> CYCLE
 <Mar27-2007> <16:30:39>    1
 <Mar27-2007> <16:30:39>    2  ErrMat   0.00470483  MaxEl  0.00115251
 <Mar27-2007> <16:30:40>    3  ErrMat   0.00260602  MaxEl -0.00093816
 <Mar27-2007> <16:30:40>    4  ErrMat   0.00116924  MaxEl -0.00026513
 <Mar27-2007> <16:30:41>    5  ErrMat   0.00032802  MaxEl  0.00015633
 <Mar27-2007> <16:30:41>    6  ErrMat   0.00012196  MaxEl  0.00003238
 <Mar27-2007> <16:30:41>  SCF converged
 <Mar27-2007> <16:30:41>    7  ErrMat   0.00001858  MaxEl  0.00000424
 <Mar27-2007> <16:30:42>  >>>> TOTEN
 <Mar27-2007> <16:30:42>  >>>> POPAN
 <Mar27-2007> <16:30:42>  >>>> DEBYE
 <Mar27-2007> <16:30:42>  >>>> AMETS
 <Mar27-2007> <16:30:42>  >>>> FOCKC
 <Mar27-2007> <16:30:43>  >>>> ENGRAD
 <Mar27-2007> <16:30:43>  E-test:  old,new=  -0.09332,  -0.09360 hartree
 <Mar27-2007> <16:30:43>  max gradient:      0.01169400 au/angstrom,radian
 <Mar27-2007> <16:30:43>  max bond step:     0.01815381 angstrom
 <Mar27-2007> <16:30:43>  max angular step:  0.00000000 degree
  Coordinates in Geometry Cycle 4
    Atom         X           Y           Z   (Angstrom)
    1.Au        0.000000    0.000000   -1.263402
    2.Au        0.000000    0.000000    1.263402
  Z-matrix coordinates
    Atom        i    j    k     R (Ang)   BondAngle    Dihedral
    1.Au        0    0    0    0.000000    0.000000    0.000000
    2.Au        1    0    0    2.526804    0.000000    0.000000
 <Mar27-2007> <16:30:44>  >>>> CORORT
 <Mar27-2007> <16:30:44>  >>>> FITINT
 <Mar27-2007> <16:30:54>  >>>> CLSMAT
 <Mar27-2007> <16:30:54>  >>>> ORTHON
 <Mar27-2007> <16:30:55>  >>>> GENPT
 <Mar27-2007> <16:30:55>  Acc.Num.Int.=   3.970
 <Mar27-2007> <16:30:55>  Block Length= 119
 <Mar27-2007> <16:30:55>  >>>> PTCOR
 <Mar27-2007> <16:30:55>  >>>> PTBAS
 <Mar27-2007> <16:31:02>  >>>> CYCLE
 <Mar27-2007> <16:31:02>    1
 <Mar27-2007> <16:31:03>    2  ErrMat   0.00732013  MaxEl -0.00148390
 <Mar27-2007> <16:31:03>    3  ErrMat   0.00248879  MaxEl -0.00060909
 <Mar27-2007> <16:31:04>    4  ErrMat   0.00163562  MaxEl -0.00036914
 <Mar27-2007> <16:31:04>    5  ErrMat   0.00008402  MaxEl -0.00001860
 <Mar27-2007> <16:31:04>  SCF converged
 <Mar27-2007> <16:31:04>    6  ErrMat   0.00004149  MaxEl  0.00000860
 <Mar27-2007> <16:31:05>  >>>> TOTEN
 <Mar27-2007> <16:31:05>  >>>> POPAN
 <Mar27-2007> <16:31:05>  >>>> DEBYE
 <Mar27-2007> <16:31:05>  >>>> AMETS
 <Mar27-2007> <16:31:05>  >>>> FOCKC
 <Mar27-2007> <16:31:06>  >>>> ENGRAD
 <Mar27-2007> <16:31:06>  E-test:  old,new=  -0.09360,  -0.09374 hartree
 <Mar27-2007> <16:31:06>  max gradient:      0.00202544 au/angstrom,radian
 <Mar27-2007> <16:31:06>  max bond step:     0.00376982 angstrom
 <Mar27-2007> <16:31:06>  max angular step:  0.00000000 degree
 <Mar27-2007> <16:31:06>  Geometry Converged
  Coordinates in Geometry Cycle 5
    Atom         X           Y           Z   (Angstrom)
    1.Au        0.000000    0.000000   -1.265287
    2.Au        0.000000    0.000000    1.265287
  Z-matrix coordinates
    Atom        i    j    k     R (Ang)   BondAngle    Dihedral
    1.Au        0    0    0    0.000000    0.000000    0.000000
    2.Au        1    0    0    2.530574    0.000000    0.000000
 <Mar27-2007> <16:31:07>  >>>> CORORT
 <Mar27-2007> <16:31:07>  >>>> FITINT
 <Mar27-2007> <16:31:17>  >>>> CLSMAT
 <Mar27-2007> <16:31:17>  >>>> ORTHON
 <Mar27-2007> <16:31:18>  >>>> GENPT
 <Mar27-2007> <16:31:18>  Acc.Num.Int.=   6.500
 <Mar27-2007> <16:31:18>  Block Length= 120
 <Mar27-2007> <16:31:18>  >>>> PTCOR
 <Mar27-2007> <16:31:18>  >>>> PTBAS
 <Mar27-2007> <16:31:29>  >>>> CYCLE
 <Mar27-2007> <16:31:29>    1
 <Mar27-2007> <16:31:30>    2  ErrMat   0.00873464  MaxEl -0.00215277
 <Mar27-2007> <16:31:30>    3  ErrMat   0.00515518  MaxEl -0.00156108
 <Mar27-2007> <16:31:30>    4  ErrMat   0.00413171  MaxEl  0.00054481
 <Mar27-2007> <16:31:31>    5  ErrMat   0.00060422  MaxEl  0.00010375
 <Mar27-2007> <16:31:31>    6  ErrMat   0.00019954  MaxEl -0.00003744
 <Mar27-2007> <16:31:32>    7  ErrMat   0.00002863  MaxEl -0.00000595
 <Mar27-2007> <16:31:32>    8  ErrMat   0.00000935  MaxEl -0.00000175
 <Mar27-2007> <16:31:32>    9  ErrMat   0.00000096  MaxEl  0.00000020
 <Mar27-2007> <16:31:33>  SCF converged
 <Mar27-2007> <16:31:33>   10  ErrMat   0.00000008  MaxEl -0.00000001
 <Mar27-2007> <16:31:33>  >>>> COREPS
 <Mar27-2007> <16:31:33>  >>>> TOTEN
 <Mar27-2007> <16:31:34>  >>>> POPAN
 <Mar27-2007> <16:31:34>  >>>> DEBYE
 <Mar27-2007> <16:31:34>  >>>> AMETS
 <Mar27-2007> <16:31:34>  >>>> POPUL
 <Mar27-2007> <16:31:34>   Bond Energy LDA      -0.11284959 a.u.
 <Mar27-2007> <16:31:34>   Bond Energy LDA      -3.07079476 eV
 <Mar27-2007> <16:31:34>           + GGA-X      -0.07597759 a.u.
 <Mar27-2007> <16:31:34>           + GGA-X      -2.06745616 eV
 <Mar27-2007> <16:31:34>          + GGA-XC      -0.09352070 a.u.
 <Mar27-2007> <16:31:34>          + GGA-XC      -2.54482886 eV
 <Mar27-2007> <16:31:34>  NORMAL TERMINATION
 <Mar27-2007> <16:31:34>  END
