(INPUT FILE)
Create H file=/adf/atomicdata/DZ/H
XC
GGA Becke Perdew
End
End Input

 *******************************************************************************
 *                                                                             *
 *  -------------------------------------                                      *
 *   Amsterdam Density Functional  (ADF)         2004.01   June 8, 2004        *
 *  -------------------------------------                                      *
 *                                               Build 200410211341            *
 *                                                                             *
 *                                                                             *
 *                              =================                              *
 *                              |               |                              *
 *                              |     A D F     |                              *
 *                              |               |                              *
 *                              =================                              *
 *                                                                             *
 *                                                                             *
 *   Online information and documentation:  http://www.scm.com                 *
 *   E-mail:  support@scm.com   info@scm.com                                   *
 *                                                                             *
 *   Scientific publications using ADF results must be properly referenced     *
 *   See the User Manuals (or the web site) for recommended citations          *
 *                                                                             *
 ****************************  pentium_linux_ifc  ******************************
 
 ADF 2004.01  RunTime: May13-2008 14:15:50
 Hydrogen (II)



 ===========================
 A T T A C H E D   F I L E S
 ===========================
  
 CREATE - Data File:    /adf/atomicdata/DZ/H
                        Hydrogen (II)



 ===============================
 M O D E L   P A R A M E T E R S
 ===============================
  
 DENSITY FUNCTIONAL POTENTIAL (scf)
    LDA:                               VWN                                      
    Gradient Corrections:              Becke88 Perdew86                        == Not Default ==

 SPIN  (restricted / unrestr.)
    Molecule:                          Restricted                               

 OTHER ASPECTS
    Relativistic Corrections:          ---                                      
    Core Treatment:                    Frozen Orbital(s)                        

    Electric Field:                    ---                                      

    Hyperfine or Zeeman Interaction:   ---                                      



 =====================================
 S Y M M E T R Y ,   E L E C T R O N S
 =====================================
  
 Symmetry: ATOM

 Irreducible Representations, including subspecies
 -------------------------------------------------
 S
 P:x  P:y  P:z
 D:z2  D:x2-y2  D:xy  D:xz  D:yz
 F:z3  F:z  F:xyz  F:z2x  F:z2y  F:x  F:y


 Configuration of Valence Electrons
 ==================================

          Occupation Numbers
          -------------------------------------------------
 S        1
 P        0
 D        0
 F        0
          -------------------------------------------------

 Total:   1

 Net Charge: 0 (Nuclei minus Electrons)

 Preset values for MO occupations will be applied through SCF cycle no. 1000000
 Thereafter, the program will assign electrons to MOs that are spatially
 similar to the occupied MOs in a "reference" cycle ("KeepOrbitals").
 The reference cycle is always the PREVIOUS cycle: it will evolve with
 the SCF procedure.



 ================================
 (Slater-type)  F U N C T I O N S  ***  (Basis and Fit)  ***
 ================================
  

 Atom Type    1  (H)
 ==============

 Valence Basis Sets:   2
 -----------------------
   1 S    0.760000
   1 S    1.280000

 Charge Fitting Sets (for the computation of the Coulomb Potential):  11
 -----------------------------------------------------------------------
   1 S    3.160000
   1 S    2.090000
   1 S    1.380000
   2 S    1.500000
   2 P    4.000000
   2 P    2.650000
   2 P    1.750000
   3 D    4.000000
   3 D    2.500000
   4 F    3.000000
   5 G    4.000000


 BAS: List of all Elementary Cartesian Basis Functions
 =====================================================

 The numbering in the list below (to the right of the function characteristics) is referred
 to in print-outs of MO eigenvectors and Mulliken populations in the BAS representation
 (as contrasted to the SFO representation).

 Notes:
 1. The functions are characterized by a polynomial prefactor (powers of x,y,z and r) and
    an exponential decay factor alpha.
 2. Since the basis sets are specific for an atom TYPE, the individual functions occur on
    all atoms of that type.
 3. The word 'Core' in the left margin signals that it is a Core Function (CF) : not a
    degree of freedom in the valence set, but only used to ensure orthogonalization of
    the other valence basis functions on the frozen Core Orbitals.


 (power of) X  Y  Z  R     Alpha  on Atom
            ==========     =====     ==========

 H                                    1
                                  ---------------------------------------------------------------------------
            0  0  0  0     0.760      1
            0  0  0  0     1.280      2
1
 ***************************************************************************************************



                                              ***********************
                                              *  T E C H N I C A L  *
                                              ***********************
  



 =============================================================
 P A R A L L E L I Z A T I O N  and  V E C T O R I Z A T I O N
 =============================================================
  
 Nr of parallel processes:                                1
 Internal max. (compile-time) nr of processes:          128
 Maximum vector length in NumInt loops:                 128



 ===============
 I O  vs.  C P U  ***  (store numerical data on disk or recalculate)  ***
 ===============
  
 Basis functions:   recalculate when needed
 Fit functions:     recalculate when needed

 IO buffersize (Mb):                                      8.000000

 Max memory usage (Mb):                                  80.000000
 Dynamic allocation blocks (Mb):
   Reals:                                                 1.000000
   Integers:                                              0.500000
   Logicals:                                              0.031250
   Strings:                                               1.500000



 =====================
 S C F   U P D A T E S
 =====================
  
 Max. nr. of cycles:                               100
 Convergence criterion:                              0.0000000100
   secondary criterion:                              0.0000000100

 Mix parameter (when DIIS does not apply):           0.2000000000
 Special mix parameter for the first cycle:          1.0000000000


 DIIS (Direct Inversion in Iteration Space)
    Replace damping when SCF Error is below:         0.5000000000
    Apply anyway after SCF cycle:
                                                     5
    (Max.) nr. of expansion vectors:                10

    Upperbound on expansion coefficients:            5.0000000000
    (when exceeded, IterationSpace is re-built)
    2nd Upperbound on coefficients:                 25.0000000000
    (when exceeded, simple damping will be used)
 Automatic ElectronSmearing (in case of problematic SCF convergence) disabled



 =================
 P R E C I S I O N  ***  (General: NumInt, NeglectFunctionTails, ...)  ***
 =================
  

 NumInt:           Target precision:                10.0000000000
 -------           Initial precision:               10.0000000000
                   Min. precision (optimization):   10.0000000000

 Neglect Functions:          Basis functions:        0.1000000000E-11
 ------------------          Fit functions:          0.1000000000E-11



 ===========================
 L I N E A R   S C A L I N G
 ===========================
  

 Cut-off radii density fit:                        0.1000000000E-13
 Overlap cut-off criterion AO matrix elements:     0.1000000000E-11
 Cut-offs for Coulomb potential and fitted density:0.1000000000E-13
 Cut-off criterion for Coulomb multipole terms:    0.1000000000E-13
1
 ***************************************************************************************************



                                            ***************************
                                            *  C O M P U T A T I O N  *
                                            ***************************
  

 Number of elements of the density matrix on this node (used, total):         3         3



 ====================================================
 Numerical Integration : Voronoi Polyhedra (Te Velde)  ***  (parameters, tests)  ***
 ====================================================
  
 General Accuracy Parameter :                         10.00

 Symmetry used in the points section:  ATOM  


 Summary of the Symmetry Unique Points:
 --------------------------------------
    Nr. of used Symmetry Operators                     1

    Points in the Atomic Spheres                      34
    Points in the Atomic Polyhedra                     0
    Points in the Outer Region                         0
    ----------------------------------------------------
    Total                                             34

    Sum of Weights                                 33854.777883

 Total nr. of points:         34
 Nr. of blocks:                1
 Block length:                34
 Nr. of dummy points:          0


 Test of Precision of the Numerical Integration Grid
 ===================================================

 Integral of the Total Core Density:                   0.00000000000000



 =====
 S C F
 =====
  

 CYCLE    1
 orbitals (Q,E):
 ---------------
 S :1...2            ( 1.00    -0.2506)  ( 0.00     0.3824)   

 CYCLE    2
 d-Pmat  mean:  0.85E-02
 imax=      1:  0.11E-01
 orbitals (Q,E):
 ---------------
 S :1...2            ( 1.00    -0.2441)  ( 0.00     0.3882)   

 CYCLE    3
 d-Pmat  mean:  0.12E-02
 imax=      1: -0.15E-02
 orbitals (Q,E):
 ---------------
 S :1...2            ( 1.00    -0.2450)  ( 0.00     0.3874)   

 CYCLE    4
 d-Pmat  mean:  0.51E-04
 imax=      1:  0.65E-04
 orbitals (Q,E):
 ---------------
 S :1...2            ( 1.00    -0.2450)  ( 0.00     0.3874)   

 CYCLE    5
 d-Pmat  mean:  0.22E-05
 imax=      1: -0.27E-05
 orbitals (Q,E):
 ---------------
 S :1...2            ( 1.00    -0.2450)  ( 0.00     0.3874)   

 CYCLE    6
 d-Pmat  mean:  0.92E-07
 imax=      1:  0.12E-06
 orbitals (Q,E):
 ---------------
 S :1...2            ( 1.00    -0.2450)  ( 0.00     0.3874)   

 CYCLE    7
 d-Pmat  mean:  0.39E-08
 imax=      1: -0.49E-08
 orbitals (Q,E):
 ---------------
 S :1...2            ( 1.00    -0.2450)  ( 0.00     0.3874)   

 SCF CONVERGED

 CYCLE    8
1
 ***************************************************************************************************



                                                *******************
                                                *  R E S U L T S  *
                                                *******************
  

 Orbital Energies, per Irrep and Spin:
 ======================================
                        Occup              E (au)              E (eV)       Diff (eV) with prev. cycle
                        -----      --------------------        ------       --------------------------
 S
               1        1.000     -0.24495278897385E+00        -6.666               3.69E-09
               2        0.000      0.38741497816209E+00        10.542


 Partially Occupied:
               1 S                -0.24495278897385E+00
  
 LUMO :        2 S                 0.38741497816209E+00
  


 Orbital Energies of the Core Orbitals:
 ======================================
 (Note that the atoms are grouped by atomtype, see the labels, and may hence NOT be in input order)

 AtomType  Orbital  Atom                   E (au)                        E (eV)
 --------  -------  ----           --------------------        ----------------



 =======================================
 M U L L I K E N   P O P U L A T I O N S
 =======================================
  
 The survey below gives for each atom:
 a) the total charge (Z minus electrons)
 b) the net spin polarization (nr of electrons spin-A minus spin-B)
 c) for each spin the atomic electron valence density (integrated) per L-value.

 Atom              Charge    Spin density          S         P         D         F
 ----              ------    ------------       ------    ------    ------    ------
 1 H               0.0000                       1.0000    0.0000    0.0000    0.0000

 Populations of individual BAS functions
 ----------------------------------------
 1 H            0.6461  0.3539

 Gross Charges per Atom (Z minus electrons)
 ==========================================
             0.0000
 Net Total:  0.00000000


 Atom-Atom Population Matrix (off-diagonal elements not doubled)
 ===============================================================

     1 :     1.0000



 =============
 Dipole Moment  ***  (Debye)  ***
 =============
  
 Vector   :         0.00000000      0.00000000      0.00000000
 Magnitude:         0.00000000

 This molecular dipole moment is calculated with analytic integration



 =========================================
 Quadrupole Moment (Buckingham convention)  ***  (a.u.)  ***
 =========================================
  
      quad-xx        quad-xy        quad-xz        quad-yy        quad-yz        quad-zz
      0.00000000     0.00000000     0.00000000     0.00000000     0.00000000     0.00000000

 This molecular quadrupole moment is calculated with analytic integration



 ===============================================================================
 Electrostatic potential at the Nuclei due to valence electrons and other nuclei
 ===============================================================================
  
         Atom                  Potential
         ----                  ---------
     1)   H                   0.94377595
 
 
 ========================
 No memory problems found
 ========================
 
 Maximum number of active allocate calls:          26
 
 *******************************************************************************

                             A D F   E X I T
 NORMAL TERMINATION



 =================
 Timing Statistics
 =================
  
 Total Used :                     CPU=        0.21      System=        0.05     Elapsed=        0.67

 Calls  Section                     ( Mean, Percentage )
 ---------------------------------------------------------------------------------------------------
     3  ><      ................      0.00    0.00             0.00    0.00             0.00    1.49
     1  INIT    ................      0.02    9.52             0.01   20.00             0.14   21.66
     1  GEOMET  ................      0.03   14.29             0.01   20.00             0.05    7.71
     1  INPUTA  ................      0.02    9.52             0.00    0.00             0.02    2.55
     1  MAINSY  ................      0.00    0.00             0.00    0.00             0.01    1.62
     1  SYMFIT  ................      0.00    0.00             0.00    0.00             0.00    0.30
     1  CORORT  ................      0.00    0.00             0.00    0.00             0.00    0.37
     1  SYMORB  ................      0.00    0.00             0.00    0.00             0.00    0.34
     1  FITINT  ................      0.02    9.52             0.01   20.00             0.02    3.13
     1  CLSMAT  ................      0.00    0.00             0.00    0.00             0.00    0.41
     1  ORTHON  ................      0.00    0.00             0.00    0.00             0.01    0.80
     1  CRTP12  ................      0.00    0.00             0.00    0.00             0.01    0.82
     1  ETALOW  ................      0.00    0.00             0.00    0.00             0.00    0.36
     1  GENPT   ................      0.02    9.52             0.00    0.00             0.03    4.07
     1  PTCOR   ................      0.00    0.00             0.00    0.00             0.01    0.87
     1  PTBAS   ................      0.00    0.00             0.00    0.00             0.01    1.13
     9  FOCK00  ................      0.00    9.52             0.00    0.00             0.01   12.96
     8  FOCKY   ................      0.00    9.52             0.00   20.00             0.01   12.39
     8  FOCKTR  ................      0.00    0.00             0.00    0.00             0.00    2.78
     8  FOCKNM  ................      0.00    0.00             0.00    0.00             0.00    0.05
     8  SDIIS   ................      0.00    4.76             0.00   20.00             0.00    3.12
     8  EMERGE  ................      0.00    4.76             0.00    0.00             0.00    4.83
     8  RHOFIH  ................      0.00   14.29             0.00    0.00             0.01    6.63
     1  COREPS  ................      0.00    0.00             0.00    0.00             0.01    1.06
     1  POPAN   ................      0.00    0.00             0.00    0.00             0.01    1.11
     1  DEBYE   ................      0.00    0.00             0.00    0.00             0.00    0.54
     1  QMPOT   ................      0.01    4.76             0.00    0.00             0.00    0.43
     1  EXIT PROCEDURE .........      0.00    0.00             0.00    0.00             0.04    6.45


 Currently Open Files (EXIT00)
 ====================

 Unit    Access Format  Status   Type       Ident (file)
 -------------------------------------------------------
   3      SEQ    FORM   TRANSP  NORMAL      LOGFILE
                                          ( logfile )
   9      SEQ    BINA   LOCAL   NORMAL      $UNKNOWN


 Buffered I/O statistics
 =======================
 Memory available:                      8388608
 Number of records fitting in memory:      2028
 Input :   4.0% of                         1041  *4k bytes
 Output:  11.9% of                          864  *4k bytes
 Records from serial files evicted:           0
                    others evicted:           0
 Hash table lookups:       5187 with          0 conflicts (  0.00%)


 Workspace Manager statistics
 ============================
 Allocate  :     353
 Delocate  :     134
 Relocate  :      18
 Extend    :       0
 Find      :     100
 Available :       4
 Check     :       3
 Hide      :       4
 Freeze    :       4
 Print     :       1

 (All arrays delocated)

 ***************************************************************************************************
 (LOGFILE)
 <May13-2008> <14:15:48>  ADF 2004.01  RunTime: May13-2008 14:15:48
 <May13-2008> <14:15:48>  Tungsten (IV, 4d frozen)
 <May13-2008> <14:15:48>  RunType   : CREATE
 <May13-2008> <14:15:48>  Net Charge: 0 (Nuclei minus Electrons)
 <May13-2008> <14:15:48>  Symmetry  : ATOM
 <May13-2008> <14:15:48>  >>>> CORORT
 <May13-2008> <14:15:48>  >>>> FITINT
 <May13-2008> <14:15:48>  >>>> CLSMAT
 <May13-2008> <14:15:48>  >>>> ORTHON
 <May13-2008> <14:15:48>  >>>> CRTP12
 <May13-2008> <14:15:48>  >>>> GENPT
 <May13-2008> <14:15:48>  Acc.Num.Int.=  10.000
 <May13-2008> <14:15:48>  Block Length=  89
 <May13-2008> <14:15:48>  >>>> PTCOR
 <May13-2008> <14:15:48>  >>>> PTBAS
 <May13-2008> <14:15:48>  >>>> CYCLE
 <May13-2008> <14:15:48>    1
 <May13-2008> <14:15:48>    2  ErrMat   0.00000000  MaxEl  0.00000000
 <May13-2008> <14:15:48>  SCF converged
 <May13-2008> <14:15:48>    3  ErrMat   0.00000000  MaxEl  0.00000000
 <May13-2008> <14:15:48>   Solutions with partially occupied orbitals may not be
 <May13-2008> <14:15:48>   lowest in energy. You might consider lowering the
 <May13-2008> <14:15:48>   symmetry in the input and explicitly specifying integer
 <May13-2008> <14:15:48>   occupations. In that case always check that you obtain
 <May13-2008> <14:15:48>   an aufbau solution.
 <May13-2008> <14:15:48>  >>>> COREPS
 <May13-2008> <14:15:48>  >>>> POPAN
 <May13-2008> <14:15:48>  >>>> DEBYE
 <May13-2008> <14:15:48>  NORMAL TERMINATION
 <May13-2008> <14:15:48>  END
 <May13-2008> <14:15:49>  ADF 2004.01  RunTime: May13-2008 14:15:49
 <May13-2008> <14:15:49>  Hydrogen (IV)
 <May13-2008> <14:15:49>  RunType   : CREATE
 <May13-2008> <14:15:49>  Net Charge: 0 (Nuclei minus Electrons)
 <May13-2008> <14:15:49>  Symmetry  : ATOM
 <May13-2008> <14:15:49>  >>>> CORORT
 <May13-2008> <14:15:49>  >>>> FITINT
 <May13-2008> <14:15:49>  >>>> CLSMAT
 <May13-2008> <14:15:49>  >>>> ORTHON
 <May13-2008> <14:15:49>  >>>> CRTP12
 <May13-2008> <14:15:49>  >>>> GENPT
 <May13-2008> <14:15:49>  Acc.Num.Int.=  10.000
 <May13-2008> <14:15:49>  Block Length=  35
 <May13-2008> <14:15:49>  >>>> PTCOR
 <May13-2008> <14:15:49>  >>>> PTBAS
 <May13-2008> <14:15:49>  >>>> CYCLE
 <May13-2008> <14:15:49>    1
 <May13-2008> <14:15:49>    2  ErrMat   0.00000000  MaxEl  0.00000000
 <May13-2008> <14:15:49>  SCF converged
 <May13-2008> <14:15:49>    3  ErrMat   0.00000000  MaxEl  0.00000000
 <May13-2008> <14:15:49>   Solutions with partially occupied orbitals may not be
 <May13-2008> <14:15:49>   lowest in energy. You might consider lowering the
 <May13-2008> <14:15:49>   symmetry in the input and explicitly specifying integer
 <May13-2008> <14:15:49>   occupations. In that case always check that you obtain
 <May13-2008> <14:15:49>   an aufbau solution.
 <May13-2008> <14:15:49>  >>>> COREPS
 <May13-2008> <14:15:49>  >>>> POPAN
 <May13-2008> <14:15:49>  >>>> DEBYE
 <May13-2008> <14:15:49>  NORMAL TERMINATION
 <May13-2008> <14:15:49>  END
 <May13-2008> <14:15:50>  ADF 2004.01  RunTime: May13-2008 14:15:50
 <May13-2008> <14:15:50>  Hydrogen (II)
 <May13-2008> <14:15:50>  RunType   : CREATE
 <May13-2008> <14:15:50>  Net Charge: 0 (Nuclei minus Electrons)
 <May13-2008> <14:15:50>  Symmetry  : ATOM
 <May13-2008> <14:15:50>  >>>> CORORT
 <May13-2008> <14:15:50>  >>>> FITINT
 <May13-2008> <14:15:50>  >>>> CLSMAT
 <May13-2008> <14:15:50>  >>>> ORTHON
 <May13-2008> <14:15:50>  >>>> CRTP12
 <May13-2008> <14:15:50>  >>>> GENPT
 <May13-2008> <14:15:50>  Acc.Num.Int.=  10.000
 <May13-2008> <14:15:50>  Block Length=  34
 <May13-2008> <14:15:50>  >>>> PTCOR
 <May13-2008> <14:15:50>  >>>> PTBAS
 <May13-2008> <14:15:50>  >>>> CYCLE
 <May13-2008> <14:15:50>    1
 <May13-2008> <14:15:50>    2  ErrMat   0.00230964  MaxEl -0.00230964
 <May13-2008> <14:15:50>    3  ErrMat   0.00036588  MaxEl  0.00036588
 <May13-2008> <14:15:50>    4  ErrMat   0.00001548  MaxEl -0.00001548
 <May13-2008> <14:15:50>    5  ErrMat   0.00000066  MaxEl  0.00000066
 <May13-2008> <14:15:50>    6  ErrMat   0.00000003  MaxEl -0.00000003
 <May13-2008> <14:15:50>    7  ErrMat   0.00000000  MaxEl  0.00000000
 <May13-2008> <14:15:50>  SCF converged
 <May13-2008> <14:15:50>    8  ErrMat   0.00000000  MaxEl  0.00000000
 <May13-2008> <14:15:50>   Solutions with partially occupied orbitals may not be
 <May13-2008> <14:15:50>   lowest in energy. You might consider lowering the
 <May13-2008> <14:15:50>   symmetry in the input and explicitly specifying integer
 <May13-2008> <14:15:50>   occupations. In that case always check that you obtain
 <May13-2008> <14:15:50>   an aufbau solution.
 <May13-2008> <14:15:50>  >>>> COREPS
 <May13-2008> <14:15:50>  >>>> POPAN
 <May13-2008> <14:15:50>  >>>> DEBYE
 <May13-2008> <14:15:50>  NORMAL TERMINATION
 <May13-2008> <14:15:50>  END
(INPUT FILE)
Create W file=/adf/atomicdata/DZ/W.4f
XC
GGA Becke Perdew
End
End Input

 *******************************************************************************
 *                                                                             *
 *  -------------------------------------                                      *
 *   Amsterdam Density Functional  (ADF)         2004.01   June 8, 2004        *
 *  -------------------------------------                                      *
 *                                               Build 200410211341            *
 *                                                                             *
 *                                                                             *
 *                              =================                              *
 *                              |               |                              *
 *                              |     A D F     |                              *
 *                              |               |                              *
 *                              =================                              *
 *                                                                             *
 *                                                                             *
 *   Online information and documentation:  http://www.scm.com                 *
 *   E-mail:  support@scm.com   info@scm.com                                   *
 *                                                                             *
 *   Scientific publications using ADF results must be properly referenced     *
 *   See the User Manuals (or the web site) for recommended citations          *
 *                                                                             *
 ****************************  pentium_linux_ifc  ******************************
 
 ADF 2004.01  RunTime: May13-2008 14:15:50
 Tungsten (II, 4f frozen)



 ===========================
 A T T A C H E D   F I L E S
 ===========================
  
 CREATE - Data File:    /adf/atomicdata/DZ/W.4f
                        Tungsten (II, 4f frozen)



 ===============================
 M O D E L   P A R A M E T E R S
 ===============================
  
 DENSITY FUNCTIONAL POTENTIAL (scf)
    LDA:                               VWN                                      
    Gradient Corrections:              Becke88 Perdew86                        == Not Default ==

 SPIN  (restricted / unrestr.)
    Molecule:                          Restricted                               

 OTHER ASPECTS
    Relativistic Corrections:          ---                                      
    Core Treatment:                    Frozen Orbital(s)                        

    Electric Field:                    ---                                      

    Hyperfine or Zeeman Interaction:   ---                                      



 =====================================
 S Y M M E T R Y ,   E L E C T R O N S
 =====================================
  
 Symmetry: ATOM

 Irreducible Representations, including subspecies
 -------------------------------------------------
 S
 P:x  P:y  P:z
 D:z2  D:x2-y2  D:xy  D:xz  D:yz
 F:z3  F:z  F:xyz  F:z2x  F:z2y  F:x  F:y


 Configuration of Valence Electrons
 ==================================

          Occupation Numbers
          -------------------------------------------------
 S        2*2
 P        6
 D        4
 F        0
          -------------------------------------------------

 Total:   14

 Net Charge: 0 (Nuclei minus Electrons)

 Preset values for MO occupations will be applied through SCF cycle no. 1000000
 Thereafter, the program will assign electrons to MOs that are spatially
 similar to the occupied MOs in a "reference" cycle ("KeepOrbitals").
 The reference cycle is always the PREVIOUS cycle: it will evolve with
 the SCF procedure.



 ================================
 (Slater-type)  F U N C T I O N S  ***  (Basis and Fit)  ***
 ================================
  

 Atom Type    1  (W)
 ==============

 Valence Basis Sets:  19
 -----------------------
   1 S   47.400000
   2 S   25.850000
   3 S   18.600000
   4 S   10.650000
   2 P   30.650000
   3 P   18.400000
   4 P   10.500000
   3 D   16.650000
   4 D   12.000000
   4 F    6.490000
   5 S    5.500000
   5 S    3.600000
   5 P    5.050000
   5 P    3.100000
   5 D    3.550000
   5 D    1.650000
   6 S    2.050000
   6 S    1.150000
   6 P    1.690000

 Frozen Core Shells
 ------------------
    S:  4
    P:  3
    D:  2
    F:  1

 Charge Fitting Sets (for the computation of the Coulomb Potential):  61
 -----------------------------------------------------------------------
   1 S   96.800000
   2 S   91.800000
   3 S   80.260000
   4 S   68.440000
   5 S   57.860000
   6 S   48.820000
   7 S   41.220000
   7 S   30.430000
   8 S   25.750000
   8 S   19.370000
   9 S   16.430000
   9 S   12.550000
   9 S    9.580000
  10 S    8.150000
  10 S    6.310000
  10 S    4.880000
  11 S    4.170000
  11 S    3.260000
  11 S    2.550000
  11 S    2.000000
   2 P   79.050000
   3 P   59.570000
   4 P   44.700000
   5 P   33.720000
   6 P   25.640000
   7 P   19.670000
   8 P   15.210000
   9 P   11.850000
   9 P    8.340000
  10 P    6.550000
  10 P    4.680000
  11 P    3.700000
  11 P    2.690000
   3 D   69.400000
   4 D   52.580000
   5 D   40.000000
   6 D   30.660000
   7 D   23.680000
   8 D   18.440000
   9 D   14.460000
   9 D   10.240000
  10 D    8.090000
  10 D    5.820000
  11 D    4.630000
  11 D    3.380000
   4 F   54.890000
   5 F   37.390000
   6 F   25.900000
   7 F   18.230000
   8 F   13.010000
   9 F    9.400000
   9 F    6.140000
  10 F    4.480000
  10 F    2.990000
   5 G   42.000000
   6 G   26.330000
   7 G   16.890000
   8 G   11.050000
   8 G    6.470000
   9 G    4.310000
   9 G    2.600000


 BAS: List of all Elementary Cartesian Basis Functions
 =====================================================

 The numbering in the list below (to the right of the function characteristics) is referred
 to in print-outs of MO eigenvectors and Mulliken populations in the BAS representation
 (as contrasted to the SFO representation).

 Notes:
 1. The functions are characterized by a polynomial prefactor (powers of x,y,z and r) and
    an exponential decay factor alpha.
 2. Since the basis sets are specific for an atom TYPE, the individual functions occur on
    all atoms of that type.
 3. The word 'Core' in the left margin signals that it is a Core Function (CF) : not a
    degree of freedom in the valence set, but only used to ensure orthogonalization of
    the other valence basis functions on the frozen Core Orbitals.


 (power of) X  Y  Z  R     Alpha  on Atom
            ==========     =====     ==========

 W                                    1
                                  ---------------------------------------------------------------------------
    Core    0  0  0  0    47.400      1
    Core    0  0  0  1    25.850      2
    Core    0  0  0  2    18.600      3
    Core    0  0  0  3    10.650      4
    Core    1  0  0  0    30.650      5
    Core    0  1  0  0    30.650      6
    Core    0  0  1  0    30.650      7
    Core    1  0  0  1    18.400      8
    Core    0  1  0  1    18.400      9
    Core    0  0  1  1    18.400     10
    Core    1  0  0  2    10.500     11
    Core    0  1  0  2    10.500     12
    Core    0  0  1  2    10.500     13
    Core    2  0  0  0    16.650     14
    Core    1  1  0  0    16.650     15
    Core    1  0  1  0    16.650     16
    Core    0  2  0  0    16.650     17
    Core    0  1  1  0    16.650     18
    Core    0  0  2  0    16.650     19
    Core    2  0  0  1    12.000     20
    Core    1  1  0  1    12.000     21
    Core    1  0  1  1    12.000     22
    Core    0  2  0  1    12.000     23
    Core    0  1  1  1    12.000     24
    Core    0  0  2  1    12.000     25
    Core    3  0  0  0     6.490     26
    Core    2  1  0  0     6.490     27
    Core    2  0  1  0     6.490     28
    Core    1  2  0  0     6.490     29
    Core    1  1  1  0     6.490     30
    Core    1  0  2  0     6.490     31
    Core    0  3  0  0     6.490     32
    Core    0  2  1  0     6.490     33
    Core    0  1  2  0     6.490     34
    Core    0  0  3  0     6.490     35
            0  0  0  4     5.500     36
            0  0  0  4     3.600     37
            1  0  0  3     5.050     38
            0  1  0  3     5.050     39
            0  0  1  3     5.050     40
            1  0  0  3     3.100     41
            0  1  0  3     3.100     42
            0  0  1  3     3.100     43
            2  0  0  2     3.550     44
            1  1  0  2     3.550     45
            1  0  1  2     3.550     46
            0  2  0  2     3.550     47
            0  1  1  2     3.550     48
            0  0  2  2     3.550     49
            2  0  0  2     1.650     50
            1  1  0  2     1.650     51
            1  0  1  2     1.650     52
            0  2  0  2     1.650     53
            0  1  1  2     1.650     54
            0  0  2  2     1.650     55
            0  0  0  5     2.050     56
            0  0  0  5     1.150     57
            1  0  0  4     1.690     58
            0  1  0  4     1.690     59
            0  0  1  4     1.690     60
1
 ***************************************************************************************************



                                              ***********************
                                              *  T E C H N I C A L  *
                                              ***********************
  



 =============================================================
 P A R A L L E L I Z A T I O N  and  V E C T O R I Z A T I O N
 =============================================================
  
 Nr of parallel processes:                                1
 Internal max. (compile-time) nr of processes:          128
 Maximum vector length in NumInt loops:                 128



 ===============
 I O  vs.  C P U  ***  (store numerical data on disk or recalculate)  ***
 ===============
  
 Basis functions:   recalculate when needed
 Fit functions:     recalculate when needed

 IO buffersize (Mb):                                      8.000000

 Max memory usage (Mb):                                  80.000000
 Dynamic allocation blocks (Mb):
   Reals:                                                 1.000000
   Integers:                                              0.500000
   Logicals:                                              0.031250
   Strings:                                               1.500000



 =====================
 S C F   U P D A T E S
 =====================
  
 Max. nr. of cycles:                               100
 Convergence criterion:                              0.0000000100
   secondary criterion:                              0.0000000100

 Mix parameter (when DIIS does not apply):           0.2000000000
 Special mix parameter for the first cycle:          1.0000000000


 DIIS (Direct Inversion in Iteration Space)
    Replace damping when SCF Error is below:         0.5000000000
    Apply anyway after SCF cycle:
                                                     5
    (Max.) nr. of expansion vectors:                10

    Upperbound on expansion coefficients:            5.0000000000
    (when exceeded, IterationSpace is re-built)
    2nd Upperbound on coefficients:                 25.0000000000
    (when exceeded, simple damping will be used)
 Automatic ElectronSmearing (in case of problematic SCF convergence) disabled



 =================
 P R E C I S I O N  ***  (General: NumInt, NeglectFunctionTails, ...)  ***
 =================
  

 NumInt:           Target precision:                10.0000000000
 -------           Initial precision:               10.0000000000
                   Min. precision (optimization):   10.0000000000

 Neglect Functions:          Basis functions:        0.1000000000E-11
 ------------------          Fit functions:          0.1000000000E-11



 ===========================
 L I N E A R   S C A L I N G
 ===========================
  

 Cut-off radii density fit:                        0.1000000000E-13
 Overlap cut-off criterion AO matrix elements:     0.1000000000E-11
 Cut-offs for Coulomb potential and fitted density:0.1000000000E-13
 Cut-off criterion for Coulomb multipole terms:    0.1000000000E-13
1
 ***************************************************************************************************



                                            ***************************
                                            *  C O M P U T A T I O N  *
                                            ***************************
  

 Number of elements of the density matrix on this node (used, total):      1830      1830



 ====================================================
 Numerical Integration : Voronoi Polyhedra (Te Velde)  ***  (parameters, tests)  ***
 ====================================================
  
 General Accuracy Parameter :                         10.00

 Symmetry used in the points section:  ATOM  


 Summary of the Symmetry Unique Points:
 --------------------------------------
    Nr. of used Symmetry Operators                     1

    Points in the Atomic Spheres                      88
    Points in the Atomic Polyhedra                     0
    Points in the Outer Region                         0
    ----------------------------------------------------
    Total                                             88

    Sum of Weights                                270838.223067

 Total nr. of points:         88
 Nr. of blocks:                1
 Block length:                88
 Nr. of dummy points:          0


 Test of Precision of the Numerical Integration Grid
 ===================================================

 Integral of the Total Core Density:                  59.99999999195969
 Relative Error:                                      -1.340E-10



 =====
 S C F
 =====
  

 CYCLE    1
 orbitals (Q,E):
 ---------------
 S :1...4            ( 2.00    -2.4263)  ( 2.00    -0.1858)  ( 0.00     0.0693)  ( 0.00     1.6441)   
 P :1...3            ( 6.00    -1.5315)  ( 0.00    -0.0436)  ( 0.00     1.2213)   
 D :1...2            ( 4.00    -0.2135)  ( 0.00     0.3780)   

 CYCLE    2
 d-Pmat  mean:  0.97E-03
 imax=     56:  0.50E-02
 orbitals (Q,E):
 ---------------
 S :1...3            ( 2.00    -2.4318)  ( 2.00    -0.1873)  ( 0.00     0.0683)   
 P :1...2            ( 6.00    -1.5366)  ( 0.00    -0.0448)   
 D :1...2            ( 4.00    -0.2169)  ( 0.00     0.3756)   

 CYCLE    3
 d-Pmat  mean:  0.50E-03
 imax=     56: -0.25E-02
 orbitals (Q,E):
 ---------------
 S :1...3            ( 2.00    -2.4291)  ( 2.00    -0.1867)  ( 0.00     0.0687)   
 P :1...2            ( 6.00    -1.5341)  ( 0.00    -0.0443)   
 D :1...2            ( 4.00    -0.2153)  ( 0.00     0.3767)   

 CYCLE    4
 d-Pmat  mean:  0.64E-05
 imax=     56: -0.50E-04
 orbitals (Q,E):
 ---------------
 S :1...3            ( 2.00    -2.4290)  ( 2.00    -0.1867)  ( 0.00     0.0687)   
 P :1...2            ( 6.00    -1.5341)  ( 0.00    -0.0443)   
 D :1...2            ( 4.00    -0.2153)  ( 0.00     0.3767)   

 CYCLE    5
 d-Pmat  mean:  0.53E-07
 imax=     49:  0.21E-06
 orbitals (Q,E):
 ---------------
 S :1...3            ( 2.00    -2.4290)  ( 2.00    -0.1867)  ( 0.00     0.0687)   
 P :1...2            ( 6.00    -1.5341)  ( 0.00    -0.0443)   
 D :1...2            ( 4.00    -0.2153)  ( 0.00     0.3767)   

 CYCLE    6
 d-Pmat  mean:  0.98E-09
 imax=     56:  0.11E-07
 orbitals (Q,E):
 ---------------
 S :1...3            ( 2.00    -2.4290)  ( 2.00    -0.1867)  ( 0.00     0.0687)   
 P :1...2            ( 6.00    -1.5341)  ( 0.00    -0.0443)   
 D :1...2            ( 4.00    -0.2153)  ( 0.00     0.3767)   

 SCF CONVERGED

 CYCLE    7
1
 ***************************************************************************************************



                                                *******************
                                                *  R E S U L T S  *
                                                *******************
  

 Orbital Energies, per Irrep and Spin:
 ======================================
                        Occup              E (au)              E (eV)       Diff (eV) with prev. cycle
                        -----      --------------------        ------       --------------------------
 S
               1        2.000     -0.24290400743206E+01       -66.098               1.01E-09
               2        2.000     -0.18670765326468E+00        -5.081               1.59E-09
               3        0.000      0.68698582132561E-01         1.869
               4        0.000      0.16420718000187E+01        44.683
 P
               1        6.000     -0.15340629242453E+01       -41.744               1.18E-09
               2        0.000     -0.44306759338045E-01        -1.206
               3        0.000      0.12194049808626E+01        33.182
 D
               1        4.000     -0.21529822889981E+00        -5.859               1.61E-09
               2        0.000      0.37668531189717E+00        10.250


 Partially Occupied:
               1 D                -0.21529822889981E+00
  
 HOMO :        2 S                -0.18670765326468E+00
 LUMO :        2 P                -0.44306759338045E-01
  


 Orbital Energies, all Irreps
 ========================================

 Irrep        no.  (spin)   Occup              E (au)                E (eV)
 ---------------------------------------------------------------------------
 S             1             2.00       -0.24290400743206E+01       -66.0976
 P             1             6.00       -0.15340629242453E+01       -41.7440
 D             1             4.00       -0.21529822889981E+00        -5.8586
 S             2             2.00       -0.18670765326468E+00        -5.0806
 P             2             0.00       -0.44306759338045E-01        -1.2056
 S             3             0.00        0.68698582132561E-01         1.8694
 D             2             0.00        0.37668531189717E+00        10.2501
 P             3             0.00        0.12194049808626E+01        33.1817
 S             4             0.00        0.16420718000187E+01        44.6831


 Orbital Energies of the Core Orbitals:
 ======================================
 (Note that the atoms are grouped by atomtype, see the labels, and may hence NOT be in input order)

 AtomType  Orbital  Atom                   E (au)                        E (eV)
 --------  -------  ----           --------------------        ----------------
 W           1S        1          -0.23429798932771E+04              -63755.753
             2S        1          -0.38504004142972E+03              -10477.477
             3S        1          -0.87866119003776E+02               -2390.960
             4S        1          -0.17588655483171E+02                -478.612
             2P        1          -0.36906845326481E+03              -10042.868
             3P        1          -0.80518277528773E+02               -2191.015
             4P        1          -0.14545245401714E+02                -395.796
             3D        1          -0.66698178040681E+02               -1814.951
             4D        1          -0.89105403973747E+01                -242.468
             4F        1          -0.15619665764294E+01                 -42.503



 =======================================
 M U L L I K E N   P O P U L A T I O N S
 =======================================
  
 The survey below gives for each atom:
 a) the total charge (Z minus electrons)
 b) the net spin polarization (nr of electrons spin-A minus spin-B)
 c) for each spin the atomic electron valence density (integrated) per L-value.

 Atom              Charge    Spin density          S         P         D         F
 ----              ------    ------------       ------    ------    ------    ------
 1 W               0.0000                       4.0000    6.0000    4.0000    0.0000

 Populations of individual BAS functions
 ----------------------------------------
 1 W           -0.0023 -0.0099  0.0142  0.0763 -0.0029 -0.0029 -0.0029  0.0058  0.0058  0.0058
                0.0691  0.0691  0.0691 -0.0021 -0.0032 -0.0032 -0.0021 -0.0032 -0.0021  0.0161
                0.0241  0.0241  0.0161  0.0241  0.0161  0.0000  0.0000  0.0000  0.0000  0.0000
                0.0000  0.0000  0.0000  0.0000  0.0000  1.3792  0.6565  1.2823  1.2823  1.2823
                0.6472  0.6472  0.6472  0.3380  0.5070  0.5070  0.3380  0.5070  0.3380  0.1814
                0.2720  0.2720  0.1814  0.2720  0.1814  1.4951  0.3907 -0.0015 -0.0015 -0.0015

 Gross Charges per Atom (Z minus electrons)
 ==========================================
             0.0000
 Net Total:  0.00000000


 Atom-Atom Population Matrix (off-diagonal elements not doubled)
 ===============================================================

     1 :    14.0000



 =============
 Dipole Moment  ***  (Debye)  ***
 =============
  
 Vector   :         0.00000000      0.00000000      0.00000000
 Magnitude:         0.00000000

 This molecular dipole moment is calculated with analytic integration



 =========================================
 Quadrupole Moment (Buckingham convention)  ***  (a.u.)  ***
 =========================================
  
      quad-xx        quad-xy        quad-xz        quad-yy        quad-yz        quad-zz
      0.00000000     0.00000000     0.00000000     0.00000000     0.00000000     0.00000000

 This molecular quadrupole moment is calculated with analytic integration



 ===============================================================================
 Electrostatic potential at the Nuclei due to valence electrons and other nuclei
 ===============================================================================
  
         Atom                  Potential
         ----                  ---------
     1)   W                  11.62277751
 
 
 ========================
 No memory problems found
 ========================
 
 Maximum number of active allocate calls:          26
 
 *******************************************************************************

                             A D F   E X I T
 NORMAL TERMINATION



 =================
 Timing Statistics
 =================
  
 Total Used :                     CPU=        0.47      System=        0.04     Elapsed=        0.84

 Calls  Section                     ( Mean, Percentage )
 ---------------------------------------------------------------------------------------------------
     3  ><      ................      0.00    0.00             0.00   25.00             0.00    1.17
     1  INIT    ................      0.00    0.00             0.00    0.00             0.05    5.62
     1  GEOMET  ................      0.01    2.13             0.02   50.00             0.05    6.13
     1  INPUTA  ................      0.02    4.26             0.00    0.00             0.02    2.81
     1  MAINSY  ................      0.01    2.13             0.00    0.00             0.02    1.84
     1  SYMFIT  ................      0.00    0.00             0.00    0.00             0.00    0.24
     1  CORORT  ................      0.00    0.00             0.00    0.00             0.00    0.42
     1  SYMORB  ................      0.00    0.00             0.00    0.00             0.01    0.64
     1  FITINT  ................      0.03    6.38             0.00    0.00             0.03    3.52
     1  CLSMAT  ................      0.00    0.00             0.00    0.00             0.01    1.33
     1  ORTHON  ................      0.01    2.13             0.00    0.00             0.01    0.91
     1  CRTP12  ................      0.07   14.89             0.00    0.00             0.08    9.23
     1  ETALOW  ................      0.00    0.00             0.00    0.00             0.00    0.54
     1  GENPT   ................      0.04    8.51             0.00    0.00             0.04    5.17
     1  PTCOR   ................      0.00    0.00             0.00    0.00             0.01    0.75
     1  PTBAS   ................      0.00    0.00             0.00    0.00             0.01    1.15
     8  FOCK00  ................      0.00    8.51             0.00    0.00             0.01    9.93
     7  FOCKY   ................      0.01   14.89             0.00    0.00             0.02   12.78
     7  FOCKTR  ................      0.00    0.00             0.00    0.00             0.00    2.50
     7  FOCKNM  ................      0.00    0.00             0.00    0.00             0.00    0.04
     7  SDIIS   ................      0.00    2.13             0.00    0.00             0.00    2.17
     7  EMERGE  ................      0.01   10.64             0.00    0.00             0.01    6.90
     7  RHOFIH  ................      0.01   12.77             0.00    0.00             0.01   10.82
     1  COREPS  ................      0.04    8.51             0.00    0.00             0.04    4.89
     1  POPAN   ................      0.00    0.00             0.00    0.00             0.01    1.11
     1  DEBYE   ................      0.01    2.13             0.00    0.00             0.01    0.68
     1  QMPOT   ................      0.00    0.00             0.00    0.00             0.00    0.34
     1  EXIT PROCEDURE .........      0.00    0.00             0.01   25.00             0.05    6.35


 Currently Open Files (EXIT00)
 ====================

 Unit    Access Format  Status   Type       Ident (file)
 -------------------------------------------------------
   3      SEQ    FORM   TRANSP  NORMAL      LOGFILE
                                          ( logfile )
   9      SEQ    BINA   LOCAL   NORMAL      $UNKNOWN


 Buffered I/O statistics
 =======================
 Memory available:                      8388608
 Number of records fitting in memory:      2028
 Input :   1.7% of                         2266  *4k bytes
 Output:   9.8% of                         1288  *4k bytes
 Records from serial files evicted:           0
                    others evicted:           0
 Hash table lookups:       9762 with          0 conflicts (  0.00%)


 Workspace Manager statistics
 ============================
 Allocate  :     354
 Delocate  :     137
 Relocate  :      18
 Extend    :       1
 Find      :      97
 Available :      12
 Check     :       3
 Hide      :       4
 Freeze    :       4
 Print     :       1

 (All arrays delocated)

 ***************************************************************************************************
 (LOGFILE)
 <May13-2008> <14:15:48>  ADF 2004.01  RunTime: May13-2008 14:15:48
 <May13-2008> <14:15:48>  Tungsten (IV, 4d frozen)
 <May13-2008> <14:15:48>  RunType   : CREATE
 <May13-2008> <14:15:48>  Net Charge: 0 (Nuclei minus Electrons)
 <May13-2008> <14:15:48>  Symmetry  : ATOM
 <May13-2008> <14:15:48>  >>>> CORORT
 <May13-2008> <14:15:48>  >>>> FITINT
 <May13-2008> <14:15:48>  >>>> CLSMAT
 <May13-2008> <14:15:48>  >>>> ORTHON
 <May13-2008> <14:15:48>  >>>> CRTP12
 <May13-2008> <14:15:48>  >>>> GENPT
 <May13-2008> <14:15:48>  Acc.Num.Int.=  10.000
 <May13-2008> <14:15:48>  Block Length=  89
 <May13-2008> <14:15:48>  >>>> PTCOR
 <May13-2008> <14:15:48>  >>>> PTBAS
 <May13-2008> <14:15:48>  >>>> CYCLE
 <May13-2008> <14:15:48>    1
 <May13-2008> <14:15:48>    2  ErrMat   0.00000000  MaxEl  0.00000000
 <May13-2008> <14:15:48>  SCF converged
 <May13-2008> <14:15:48>    3  ErrMat   0.00000000  MaxEl  0.00000000
 <May13-2008> <14:15:48>   Solutions with partially occupied orbitals may not be
 <May13-2008> <14:15:48>   lowest in energy. You might consider lowering the
 <May13-2008> <14:15:48>   symmetry in the input and explicitly specifying integer
 <May13-2008> <14:15:48>   occupations. In that case always check that you obtain
 <May13-2008> <14:15:48>   an aufbau solution.
 <May13-2008> <14:15:48>  >>>> COREPS
 <May13-2008> <14:15:48>  >>>> POPAN
 <May13-2008> <14:15:48>  >>>> DEBYE
 <May13-2008> <14:15:48>  NORMAL TERMINATION
 <May13-2008> <14:15:48>  END
 <May13-2008> <14:15:49>  ADF 2004.01  RunTime: May13-2008 14:15:49
 <May13-2008> <14:15:49>  Hydrogen (IV)
 <May13-2008> <14:15:49>  RunType   : CREATE
 <May13-2008> <14:15:49>  Net Charge: 0 (Nuclei minus Electrons)
 <May13-2008> <14:15:49>  Symmetry  : ATOM
 <May13-2008> <14:15:49>  >>>> CORORT
 <May13-2008> <14:15:49>  >>>> FITINT
 <May13-2008> <14:15:49>  >>>> CLSMAT
 <May13-2008> <14:15:49>  >>>> ORTHON
 <May13-2008> <14:15:49>  >>>> CRTP12
 <May13-2008> <14:15:49>  >>>> GENPT
 <May13-2008> <14:15:49>  Acc.Num.Int.=  10.000
 <May13-2008> <14:15:49>  Block Length=  35
 <May13-2008> <14:15:49>  >>>> PTCOR
 <May13-2008> <14:15:49>  >>>> PTBAS
 <May13-2008> <14:15:49>  >>>> CYCLE
 <May13-2008> <14:15:49>    1
 <May13-2008> <14:15:49>    2  ErrMat   0.00000000  MaxEl  0.00000000
 <May13-2008> <14:15:49>  SCF converged
 <May13-2008> <14:15:49>    3  ErrMat   0.00000000  MaxEl  0.00000000
 <May13-2008> <14:15:49>   Solutions with partially occupied orbitals may not be
 <May13-2008> <14:15:49>   lowest in energy. You might consider lowering the
 <May13-2008> <14:15:49>   symmetry in the input and explicitly specifying integer
 <May13-2008> <14:15:49>   occupations. In that case always check that you obtain
 <May13-2008> <14:15:49>   an aufbau solution.
 <May13-2008> <14:15:49>  >>>> COREPS
 <May13-2008> <14:15:49>  >>>> POPAN
 <May13-2008> <14:15:49>  >>>> DEBYE
 <May13-2008> <14:15:49>  NORMAL TERMINATION
 <May13-2008> <14:15:49>  END
 <May13-2008> <14:15:50>  ADF 2004.01  RunTime: May13-2008 14:15:50
 <May13-2008> <14:15:50>  Hydrogen (II)
 <May13-2008> <14:15:50>  RunType   : CREATE
 <May13-2008> <14:15:50>  Net Charge: 0 (Nuclei minus Electrons)
 <May13-2008> <14:15:50>  Symmetry  : ATOM
 <May13-2008> <14:15:50>  >>>> CORORT
 <May13-2008> <14:15:50>  >>>> FITINT
 <May13-2008> <14:15:50>  >>>> CLSMAT
 <May13-2008> <14:15:50>  >>>> ORTHON
 <May13-2008> <14:15:50>  >>>> CRTP12
 <May13-2008> <14:15:50>  >>>> GENPT
 <May13-2008> <14:15:50>  Acc.Num.Int.=  10.000
 <May13-2008> <14:15:50>  Block Length=  34
 <May13-2008> <14:15:50>  >>>> PTCOR
 <May13-2008> <14:15:50>  >>>> PTBAS
 <May13-2008> <14:15:50>  >>>> CYCLE
 <May13-2008> <14:15:50>    1
 <May13-2008> <14:15:50>    2  ErrMat   0.00230964  MaxEl -0.00230964
 <May13-2008> <14:15:50>    3  ErrMat   0.00036588  MaxEl  0.00036588
 <May13-2008> <14:15:50>    4  ErrMat   0.00001548  MaxEl -0.00001548
 <May13-2008> <14:15:50>    5  ErrMat   0.00000066  MaxEl  0.00000066
 <May13-2008> <14:15:50>    6  ErrMat   0.00000003  MaxEl -0.00000003
 <May13-2008> <14:15:50>    7  ErrMat   0.00000000  MaxEl  0.00000000
 <May13-2008> <14:15:50>  SCF converged
 <May13-2008> <14:15:50>    8  ErrMat   0.00000000  MaxEl  0.00000000
 <May13-2008> <14:15:50>   Solutions with partially occupied orbitals may not be
 <May13-2008> <14:15:50>   lowest in energy. You might consider lowering the
 <May13-2008> <14:15:50>   symmetry in the input and explicitly specifying integer
 <May13-2008> <14:15:50>   occupations. In that case always check that you obtain
 <May13-2008> <14:15:50>   an aufbau solution.
 <May13-2008> <14:15:50>  >>>> COREPS
 <May13-2008> <14:15:50>  >>>> POPAN
 <May13-2008> <14:15:50>  >>>> DEBYE
 <May13-2008> <14:15:50>  NORMAL TERMINATION
 <May13-2008> <14:15:50>  END
 <May13-2008> <14:15:50>  ADF 2004.01  RunTime: May13-2008 14:15:50
 <May13-2008> <14:15:50>  Tungsten (II, 4f frozen)
 <May13-2008> <14:15:50>  RunType   : CREATE
 <May13-2008> <14:15:50>  Net Charge: 0 (Nuclei minus Electrons)
 <May13-2008> <14:15:50>  Symmetry  : ATOM
 <May13-2008> <14:15:50>  >>>> CORORT
 <May13-2008> <14:15:50>  >>>> FITINT
 <May13-2008> <14:15:50>  >>>> CLSMAT
 <May13-2008> <14:15:50>  >>>> ORTHON
 <May13-2008> <14:15:50>  >>>> CRTP12
 <May13-2008> <14:15:50>  >>>> GENPT
 <May13-2008> <14:15:50>  Acc.Num.Int.=  10.000
 <May13-2008> <14:15:50>  Block Length=  88
 <May13-2008> <14:15:50>  >>>> PTCOR
 <May13-2008> <14:15:51>  >>>> PTBAS
 <May13-2008> <14:15:51>  >>>> CYCLE
 <May13-2008> <14:15:51>    1
 <May13-2008> <14:15:51>    2  ErrMat   0.00641601  MaxEl  0.00245054
 <May13-2008> <14:15:51>    3  ErrMat   0.00716609  MaxEl -0.00271921
 <May13-2008> <14:15:51>    4  ErrMat   0.00007825  MaxEl -0.00002818
 <May13-2008> <14:15:51>    5  ErrMat   0.00000069  MaxEl  0.00000029
 <May13-2008> <14:15:51>    6  ErrMat   0.00000001  MaxEl  0.00000000
 <May13-2008> <14:15:51>  SCF converged
 <May13-2008> <14:15:51>    7  ErrMat   0.00000000  MaxEl  0.00000000
 <May13-2008> <14:15:51>   Solutions with partially occupied orbitals may not be
 <May13-2008> <14:15:51>   lowest in energy. You might consider lowering the
 <May13-2008> <14:15:51>   symmetry in the input and explicitly specifying integer
 <May13-2008> <14:15:51>   occupations. In that case always check that you obtain
 <May13-2008> <14:15:51>   an aufbau solution.
 <May13-2008> <14:15:51>  >>>> COREPS
 <May13-2008> <14:15:51>  >>>> POPAN
 <May13-2008> <14:15:51>  >>>> DEBYE
 <May13-2008> <14:15:51>  NORMAL TERMINATION
 <May13-2008> <14:15:51>  END
(INPUT FILE)
title WH6, opt

MAXMEMORYUSAGE 600MB

charge 0 0
unrestricted

symmetry D(3h)
atoms cartesian
W          0.00000        0.00000        0.00000
H          0.00000        1.82979        1.58527
H          0.00000        1.82979       -1.58527
H          1.58465       -0.91490        1.58527
H          1.58465       -0.91490       -1.58527
H         -1.58465       -0.91490        1.58527
H         -1.58465       -0.91490       -1.58527
end

scf
:: iterations 150
:: converge 0.00000001
:: mixing 0.100000000
end

::occupation keeporbital=150

::EPRINT
::   ORBPOPER -300.0 300.0
::END

integration  5.0

XC
GGA Becke Perdew
END

::SOLVATION
::   Solvent        epsilon=78.8 radius=1.4
::   SurfaceType    esurf
::  DivisionLevel  ND=4  min=0.5  Ofac=0.8
::   ChargeUpdate   Method=conjugate-gradient corr
::   SCF            Variational
::   C-Matrix       POTENTIAL
::   RADII
::     Cu=1.72
::     Cl=1.70
::   SUBEND
::END

geometry
 optimize
:: converge E=0.0001 Grad=0.001
:: step rad=0.04 angle=8.0
:: iterations 60
:: frequencies
end

Fragments
H t21.H
W t21.W
End
end input

 *******************************************************************************
 *                                                                             *
 *  -------------------------------------                                      *
 *   Amsterdam Density Functional  (ADF)         2004.01   June 8, 2004        *
 *  -------------------------------------                                      *
 *                                               Build 200410211341            *
 *                                                                             *
 *                                                                             *
 *                              =================                              *
 *                              |               |                              *
 *                              |     A D F     |                              *
 *                              |               |                              *
 *                              =================                              *
 *                                                                             *
 *                                                                             *
 *   Online information and documentation:  http://www.scm.com                 *
 *   E-mail:  support@scm.com   info@scm.com                                   *
 *                                                                             *
 *   Scientific publications using ADF results must be properly referenced     *
 *   See the User Manuals (or the web site) for recommended citations          *
 *                                                                             *
 ****************************  pentium_linux_ifc  ******************************
 
 ADF 2004.01  RunTime: May13-2008 14:15:51
 WH6, opt



 ===========================
 A T T A C H E D   F I L E S
 ===========================
  



 ===============================
 M O D E L   P A R A M E T E R S
 ===============================
  
 DENSITY FUNCTIONAL POTENTIAL (scf)
    LDA:                               VWN                                      
    Gradient Corrections:              Becke88 Perdew86                        == Not Default ==

 SPIN  (restricted / unrestr.)
    Molecule:                          UNrestricted                            == Not Default ==
    Fragments:                         Restricted                               

 OTHER ASPECTS
    Relativistic Corrections:          ---                                      
    Core Treatment:                    Frozen Orbital(s)                        

    Electric Field:                    ---                                      

    Hyperfine or Zeeman Interaction:   ---                                      


 Fragment File(s)
 ----------------
 W:
         file : t21.W
         jobid: ADF 2004.01  RunTime: May13-2008 14:15:50
         title: Tungsten (II, 4f frozen)
 H:
         file : t21.H
         jobid: ADF 2004.01  RunTime: May13-2008 14:15:50
         title: Hydrogen (II)



                                   *********************************************
                                   *  R U N   T Y P E : GEOMETRY OPTIMIZATION  *
                                   *********************************************
  



 ===============
 G E O M E T R Y  ***  3D  Molecule  ***
 ===============
  

 ATOMS
 =====                            X Y Z                    CHARGE
                                (Angstrom)             Nucl     +Core       At.Mass
                       --------------------------    ----------------       -------
    1  W               0.0000    0.0000    0.0000     74.00     14.00      183.9509
    2  H               0.9149    1.5846    1.5853      1.00      1.00        1.0078
    3  H               0.9149    1.5846   -1.5853      1.00      1.00        1.0078
    4  H               0.9149   -1.5846    1.5853      1.00      1.00        1.0078
    5  H               0.9149   -1.5846   -1.5853      1.00      1.00        1.0078
    6  H              -1.8298    0.0000    1.5853      1.00      1.00        1.0078
    7  H              -1.8298    0.0000   -1.5853      1.00      1.00        1.0078


 FRAGMENTS
 =========             Atoms in this Fragment     Cart. coord.s (Angstrom)
                       -------------------------------------------------------
    1  W                   1  W             0.000000     0.000000     0.000000
    2  H                   2  H             0.914897     1.584649     1.585270
    3  H                   3  H             0.914897     1.584649    -1.585270
    4  H                   4  H             0.914897    -1.584649     1.585270
    5  H                   5  H             0.914897    -1.584649    -1.585270
    6  H                   6  H            -1.829795     0.000000     1.585270
    7  H                   7  H            -1.829795     0.000000    -1.585270


 Interatomic Distance Matrix (Angstrom)
 --------------------------------------

   1)     0.000
   2)     2.421   0.000
   3)     2.421   3.171   0.000
   4)     2.421   3.169   4.483   0.000
   5)     2.421   4.483   3.169   3.171   0.000
   6)     2.421   3.169   4.483   3.169   4.483   0.000
   7)     2.421   4.483   3.169   4.483   3.169   3.171   0.000

 Min. Distance =    2.4210
 Max. Distance =    4.4829



 =====================================
 S Y M M E T R Y ,   E L E C T R O N S
 =====================================
  
 Symmetry: D(3H)

 Irreducible Representations, including subspecies
 -------------------------------------------------
 AA1
 AA2
 EE1:1  EE1:2
 AAA1
 AAA2
 EEE1:1  EEE1:2


 Configuration of Valence Electrons
 ==================================
 ( determined in the SCF procedure )

 Total:   10 (Spin-A)  + 10 (Spin-B)

 Net Charge: 0 (Nuclei minus Electrons)
 Spin polar: 0 (Spin_A minus Spin_B electrons)

 Aufbau principle for MO occupations will be applied through SCF cycle no.      30
 Thereafter, the program will assign electrons to MOs that are spatially
 similar to the occupied MOs in a "reference" cycle ("KeepOrbitals").
 The reference cycle is always the PREVIOUS cycle: it will evolve with
 the SCF procedure.
1
 ***************************************************************************************************



                                      ****************************************
                                      *  B U I L D : (Fragments, Functions)  *
                                      ****************************************
  



 =======
 S F O s  ***  (Symmetrized Fragment Orbitals)  ***
 =======
  
 SFOs are linear combinations of (valence) Fragment Orbitals (FOs), such that the SFOs transform as the
 irreducible representations of the (molecular) symmetry group. Each SFO is therefore characterized by
 an irrep of the molecule and by a few (or only one) generating FOs.
 The SFOs constitute a symmetry-adapted basis for the Fock matrix. The MO eigenvector coefficients in
 this basis provide a direct interpretation of the MOs in terms of Frontier Orbital Theory.

 The SFOs are combined with auxiliary Core Functions (CFs) to ensure orthogonalization on the (frozen)
 Core Orbitals (COs). The Core-orthogonalized SFOs (CSFOs) constitute the true Fock basis.

 The FOs, and hence also the (C)SFOs are combinations of the elementary basis functions (BAS). The basis
 functions that participate in the description of the SFOs depend on the irrep. The indices of the
 involved functions are printed below for each irrep.
 (The complete list of primitive basis functions is printed in another section)


 Total nr. of (C)SFOs (summation over all irreps) :    35

 NOTE: a (C)SFO that is defined as a combination of more than one FO is usually NOT normalized.



                                       === AA1 ===
 Nr. of SFOs :    8
 Cartesian basis functions that participate in this irrep (total number =    34) :
      1     2     3     4    19    25    14    17    20    23
     26    29    36    37    56    57    49    55    44    47
     50    53    61    63    65    67    69    71    62    64
     66    68    70    72

    SFO  (index         Fragment          Generating    Expansion in Fragment Orbitals
  indx  incl.CFs)   Occup   Orb.Energy   FragmentType  Coeff.   Orbital     on Fragment
 --------------------------------------------------------------------------------------
     1      13      2.000      -2.429 au  W             1.00      1 S               1
                        (     -66.098 eV)
     2      14      2.000      -0.187 au  W             1.00      2 S               1
                        (      -5.081 eV)
     3      15       --         0.069 au  W             1.00      3 S               1
                        (       1.869 eV)
     4      16       --         1.642 au  W             1.00      4 S               1
                        (      44.683 eV)
     5      17      0.800      -0.215 au  W             1.00      1 D:z2            1
                        (      -5.859 eV)
     6      18       --         0.377 au  W             1.00      2 D:z2            1
                        (      10.250 eV)
     7      19      1.000      -0.245 au  H             0.41      1 S               2
                        (      -6.666 eV)               0.41      1 S               3
                                                        0.41      1 S               4
                                                        0.41      1 S               5
                                                        0.41      1 S               6
                                                        0.41      1 S               7
     8      20       --         0.387 au  H             0.41      2 S               2
                        (      10.542 eV)               0.41      2 S               3
                                                        0.41      2 S               4
                                                        0.41      2 S               5
                                                        0.41      2 S               6
                                                        0.41      2 S               7



                                       === EE1:1 ===
 Nr. of SFOs :    7
 Cartesian basis functions that participate in this irrep (total number =    29) :
      5     8    11    14    17    20    23    31    26    29
     38    41    58    44    47    50    53    61    63    65
     67    69    71    62    64    66    68    70    72

    SFO  (index         Fragment          Generating    Expansion in Fragment Orbitals
  indx  incl.CFs)   Occup   Orb.Energy   FragmentType  Coeff.   Orbital     on Fragment
 --------------------------------------------------------------------------------------
     1      11      2.000      -1.534 au  W             1.00      1 P:x             1
                        (     -41.744 eV)
     2      12       --        -0.044 au  W             1.00      2 P:x             1
                        (      -1.206 eV)
     3      13       --         1.219 au  W             1.00      3 P:x             1
                        (      33.182 eV)
     4      14      0.800      -0.215 au  W             1.00      1 D:x2-y2         1
                        (      -5.859 eV)
     5      15       --         0.377 au  W             1.00      2 D:x2-y2         1
                        (      10.250 eV)
     6      16      1.000      -0.245 au  H             0.29      1 S               2
                        (      -6.666 eV)               0.29      1 S               3
                                                        0.29      1 S               4
                                                        0.29      1 S               5
                                                       -0.58      1 S               6
                                                       -0.58      1 S               7
     7      17       --         0.387 au  H             0.29      2 S               2
                        (      10.542 eV)               0.29      2 S               3
                                                        0.29      2 S               4
                                                        0.29      2 S               5
                                                       -0.58      2 S               6
                                                       -0.58      2 S               7



                                       === EE1:2 ===
 Nr. of SFOs :    7
 Cartesian basis functions that participate in this irrep (total number =    21) :
      6     9    12    15    21    34    27    32    39    42
     59    45    51    61    63    65    67    62    64    66
     68

    SFO  (index         Fragment          Generating    Expansion in Fragment Orbitals
  indx  incl.CFs)   Occup   Orb.Energy   FragmentType  Coeff.   Orbital     on Fragment
 --------------------------------------------------------------------------------------
     1       9      2.000      -1.534 au  W             1.00      1 P:y             1
                        (     -41.744 eV)
     2      10       --        -0.044 au  W             1.00      2 P:y             1
                        (      -1.206 eV)
     3      11       --         1.219 au  W             1.00      3 P:y             1
                        (      33.182 eV)
     4      12      0.800      -0.215 au  W            -1.00      1 D:xy            1
                        (      -5.859 eV)
     5      13       --         0.377 au  W            -1.00      2 D:xy            1
                        (      10.250 eV)
     6      14      1.000      -0.245 au  H             0.50      1 S               2
                        (      -6.666 eV)               0.50      1 S               3
                                                       -0.50      1 S               4
                                                       -0.50      1 S               5
     7      15       --         0.387 au  H             0.50      2 S               2
                        (      10.542 eV)               0.50      2 S               3
                                                       -0.50      2 S               4
                                                       -0.50      2 S               5



                                       === AAA2 ===
 Nr. of SFOs :    5
 Cartesian basis functions that participate in this irrep (total number =    21) :
      7    10    13    35    28    33    40    43    60    61
     63    65    67    69    71    62    64    66    68    70
     72

    SFO  (index         Fragment          Generating    Expansion in Fragment Orbitals
  indx  incl.CFs)   Occup   Orb.Energy   FragmentType  Coeff.   Orbital     on Fragment
 --------------------------------------------------------------------------------------
     1       7      2.000      -1.534 au  W             1.00      1 P:z             1
                        (     -41.744 eV)
     2       8       --        -0.044 au  W             1.00      2 P:z             1
                        (      -1.206 eV)
     3       9       --         1.219 au  W             1.00      3 P:z             1
                        (      33.182 eV)
     4      10      1.000      -0.245 au  H             0.41      1 S               2
                        (      -6.666 eV)              -0.41      1 S               3
                                                        0.41      1 S               4
                                                       -0.41      1 S               5
                                                        0.41      1 S               6
                                                       -0.41      1 S               7
     5      11       --         0.387 au  H             0.41      2 S               2
                        (      10.542 eV)              -0.41      2 S               3
                                                        0.41      2 S               4
                                                       -0.41      2 S               5
                                                        0.41      2 S               6
                                                       -0.41      2 S               7



                                       === EEE1:1 ===
 Nr. of SFOs :    4
 Cartesian basis functions that participate in this irrep (total number =    13) :
     18    24    30    48    54    61    63    65    67    62
     64    66    68

    SFO  (index         Fragment          Generating    Expansion in Fragment Orbitals
  indx  incl.CFs)   Occup   Orb.Energy   FragmentType  Coeff.   Orbital     on Fragment
 --------------------------------------------------------------------------------------
     1       4      0.800      -0.215 au  W             1.00      1 D:yz            1
                        (      -5.859 eV)
     2       5       --         0.377 au  W             1.00      2 D:yz            1
                        (      10.250 eV)
     3       6      1.000      -0.245 au  H             0.50      1 S               2
                        (      -6.666 eV)              -0.50      1 S               3
                                                       -0.50      1 S               4
                                                        0.50      1 S               5
     4       7       --         0.387 au  H             0.50      2 S               2
                        (      10.542 eV)              -0.50      2 S               3
                                                       -0.50      2 S               4
                                                        0.50      2 S               5



                                       === EEE1:2 ===
 Nr. of SFOs :    4
 Cartesian basis functions that participate in this irrep (total number =    18) :
     16    22    28    33    46    52    61    63    65    67
     69    71    62    64    66    68    70    72

    SFO  (index         Fragment          Generating    Expansion in Fragment Orbitals
  indx  incl.CFs)   Occup   Orb.Energy   FragmentType  Coeff.   Orbital     on Fragment
 --------------------------------------------------------------------------------------
     1       5      0.800      -0.215 au  W            -1.00      1 D:xz            1
                        (      -5.859 eV)
     2       6       --         0.377 au  W            -1.00      2 D:xz            1
                        (      10.250 eV)
     3       7      1.000      -0.245 au  H            -0.29      1 S               2
                        (      -6.666 eV)               0.29      1 S               3
                                                       -0.29      1 S               4
                                                        0.29      1 S               5
                                                        0.58      1 S               6
                                                       -0.58      1 S               7
     4       8       --         0.387 au  H            -0.29      2 S               2
                        (      10.542 eV)               0.29      2 S               3
                                                       -0.29      2 S               4
                                                        0.29      2 S               5
                                                        0.58      2 S               6
                                                       -0.58      2 S               7



 ================================
 (Slater-type)  F U N C T I O N S  ***  (Basis and Fit)  ***
 ================================
  

 Atom Type    1  (W)
 ==============

 Valence Basis Sets:  19
 -----------------------
   1 S   47.400000
   2 S   25.850000
   3 S   18.600000
   4 S   10.650000
   2 P   30.650000
   3 P   18.400000
   4 P   10.500000
   3 D   16.650000
   4 D   12.000000
   4 F    6.490000
   5 S    5.500000
   5 S    3.600000
   5 P    5.050000
   5 P    3.100000
   5 D    3.550000
   5 D    1.650000
   6 S    2.050000
   6 S    1.150000
   6 P    1.690000

 Frozen Core Shells
 ------------------
    S:  4
    P:  3
    D:  2
    F:  1

 Charge Fitting Sets (for the computation of the Coulomb Potential):  61
 -----------------------------------------------------------------------
   1 S   96.800000
   2 S   91.800000
   3 S   80.260000
   4 S   68.440000
   5 S   57.860000
   6 S   48.820000
   7 S   41.220000
   7 S   30.430000
   8 S   25.750000
   8 S   19.370000
   9 S   16.430000
   9 S   12.550000
   9 S    9.580000
  10 S    8.150000
  10 S    6.310000
  10 S    4.880000
  11 S    4.170000
  11 S    3.260000
  11 S    2.550000
  11 S    2.000000
   2 P   79.050000
   3 P   59.570000
   4 P   44.700000
   5 P   33.720000
   6 P   25.640000
   7 P   19.670000
   8 P   15.210000
   9 P   11.850000
   9 P    8.340000
  10 P    6.550000
  10 P    4.680000
  11 P    3.700000
  11 P    2.690000
   3 D   69.400000
   4 D   52.580000
   5 D   40.000000
   6 D   30.660000
   7 D   23.680000
   8 D   18.440000
   9 D   14.460000
   9 D   10.240000
  10 D    8.090000
  10 D    5.820000
  11 D    4.630000
  11 D    3.380000
   4 F   54.890000
   5 F   37.390000
   6 F   25.900000
   7 F   18.230000
   8 F   13.010000
   9 F    9.400000
   9 F    6.140000
  10 F    4.480000
  10 F    2.990000
   5 G   42.000000
   6 G   26.330000
   7 G   16.890000
   8 G   11.050000
   8 G    6.470000
   9 G    4.310000
   9 G    2.600000

 Atom Type    2  (H)
 ==============

 Valence Basis Sets:   2
 -----------------------
[...]
 Find      :    5014
 Available :     100
 Check     :      21
 Hide      :      28
 Freeze    :      10
 Print     :       1

 (All arrays delocated)

 ***************************************************************************************************
 (LOGFILE)
 <May13-2008> <14:15:48>  ADF 2004.01  RunTime: May13-2008 14:15:48
 <May13-2008> <14:15:48>  Tungsten (IV, 4d frozen)
 <May13-2008> <14:15:48>  RunType   : CREATE
 <May13-2008> <14:15:48>  Net Charge: 0 (Nuclei minus Electrons)
 <May13-2008> <14:15:48>  Symmetry  : ATOM
 <May13-2008> <14:15:48>  >>>> CORORT
 <May13-2008> <14:15:48>  >>>> FITINT
 <May13-2008> <14:15:48>  >>>> CLSMAT
 <May13-2008> <14:15:48>  >>>> ORTHON
 <May13-2008> <14:15:48>  >>>> CRTP12
 <May13-2008> <14:15:48>  >>>> GENPT
 <May13-2008> <14:15:48>  Acc.Num.Int.=  10.000
 <May13-2008> <14:15:48>  Block Length=  89
 <May13-2008> <14:15:48>  >>>> PTCOR
 <May13-2008> <14:15:48>  >>>> PTBAS
 <May13-2008> <14:15:48>  >>>> CYCLE
 <May13-2008> <14:15:48>    1
 <May13-2008> <14:15:48>    2  ErrMat   0.00000000  MaxEl  0.00000000
 <May13-2008> <14:15:48>  SCF converged
 <May13-2008> <14:15:48>    3  ErrMat   0.00000000  MaxEl  0.00000000
 <May13-2008> <14:15:48>   Solutions with partially occupied orbitals may not be
 <May13-2008> <14:15:48>   lowest in energy. You might consider lowering the
 <May13-2008> <14:15:48>   symmetry in the input and explicitly specifying integer
 <May13-2008> <14:15:48>   occupations. In that case always check that you obtain
 <May13-2008> <14:15:48>   an aufbau solution.
 <May13-2008> <14:15:48>  >>>> COREPS
 <May13-2008> <14:15:48>  >>>> POPAN
 <May13-2008> <14:15:48>  >>>> DEBYE
 <May13-2008> <14:15:48>  NORMAL TERMINATION
 <May13-2008> <14:15:48>  END
 <May13-2008> <14:15:49>  ADF 2004.01  RunTime: May13-2008 14:15:49
 <May13-2008> <14:15:49>  Hydrogen (IV)
 <May13-2008> <14:15:49>  RunType   : CREATE
 <May13-2008> <14:15:49>  Net Charge: 0 (Nuclei minus Electrons)
 <May13-2008> <14:15:49>  Symmetry  : ATOM
 <May13-2008> <14:15:49>  >>>> CORORT
 <May13-2008> <14:15:49>  >>>> FITINT
 <May13-2008> <14:15:49>  >>>> CLSMAT
 <May13-2008> <14:15:49>  >>>> ORTHON
 <May13-2008> <14:15:49>  >>>> CRTP12
 <May13-2008> <14:15:49>  >>>> GENPT
 <May13-2008> <14:15:49>  Acc.Num.Int.=  10.000
 <May13-2008> <14:15:49>  Block Length=  35
 <May13-2008> <14:15:49>  >>>> PTCOR
 <May13-2008> <14:15:49>  >>>> PTBAS
 <May13-2008> <14:15:49>  >>>> CYCLE
 <May13-2008> <14:15:49>    1
 <May13-2008> <14:15:49>    2  ErrMat   0.00000000  MaxEl  0.00000000
 <May13-2008> <14:15:49>  SCF converged
 <May13-2008> <14:15:49>    3  ErrMat   0.00000000  MaxEl  0.00000000
 <May13-2008> <14:15:49>   Solutions with partially occupied orbitals may not be
 <May13-2008> <14:15:49>   lowest in energy. You might consider lowering the
 <May13-2008> <14:15:49>   symmetry in the input and explicitly specifying integer
 <May13-2008> <14:15:49>   occupations. In that case always check that you obtain
 <May13-2008> <14:15:49>   an aufbau solution.
 <May13-2008> <14:15:49>  >>>> COREPS
 <May13-2008> <14:15:49>  >>>> POPAN
 <May13-2008> <14:15:49>  >>>> DEBYE
 <May13-2008> <14:15:49>  NORMAL TERMINATION
 <May13-2008> <14:15:49>  END
 <May13-2008> <14:15:50>  ADF 2004.01  RunTime: May13-2008 14:15:50
 <May13-2008> <14:15:50>  Hydrogen (II)
 <May13-2008> <14:15:50>  RunType   : CREATE
 <May13-2008> <14:15:50>  Net Charge: 0 (Nuclei minus Electrons)
 <May13-2008> <14:15:50>  Symmetry  : ATOM
 <May13-2008> <14:15:50>  >>>> CORORT
 <May13-2008> <14:15:50>  >>>> FITINT
 <May13-2008> <14:15:50>  >>>> CLSMAT
 <May13-2008> <14:15:50>  >>>> ORTHON
 <May13-2008> <14:15:50>  >>>> CRTP12
 <May13-2008> <14:15:50>  >>>> GENPT
 <May13-2008> <14:15:50>  Acc.Num.Int.=  10.000
 <May13-2008> <14:15:50>  Block Length=  34
 <May13-2008> <14:15:50>  >>>> PTCOR
 <May13-2008> <14:15:50>  >>>> PTBAS
 <May13-2008> <14:15:50>  >>>> CYCLE
 <May13-2008> <14:15:50>    1
 <May13-2008> <14:15:50>    2  ErrMat   0.00230964  MaxEl -0.00230964
 <May13-2008> <14:15:50>    3  ErrMat   0.00036588  MaxEl  0.00036588
 <May13-2008> <14:15:50>    4  ErrMat   0.00001548  MaxEl -0.00001548
 <May13-2008> <14:15:50>    5  ErrMat   0.00000066  MaxEl  0.00000066
 <May13-2008> <14:15:50>    6  ErrMat   0.00000003  MaxEl -0.00000003
 <May13-2008> <14:15:50>    7  ErrMat   0.00000000  MaxEl  0.00000000
 <May13-2008> <14:15:50>  SCF converged
 <May13-2008> <14:15:50>    8  ErrMat   0.00000000  MaxEl  0.00000000
 <May13-2008> <14:15:50>   Solutions with partially occupied orbitals may not be
 <May13-2008> <14:15:50>   lowest in energy. You might consider lowering the
 <May13-2008> <14:15:50>   symmetry in the input and explicitly specifying integer
 <May13-2008> <14:15:50>   occupations. In that case always check that you obtain
 <May13-2008> <14:15:50>   an aufbau solution.
 <May13-2008> <14:15:50>  >>>> COREPS
 <May13-2008> <14:15:50>  >>>> POPAN
 <May13-2008> <14:15:50>  >>>> DEBYE
 <May13-2008> <14:15:50>  NORMAL TERMINATION
 <May13-2008> <14:15:50>  END
 <May13-2008> <14:15:50>  ADF 2004.01  RunTime: May13-2008 14:15:50
 <May13-2008> <14:15:50>  Tungsten (II, 4f frozen)
 <May13-2008> <14:15:50>  RunType   : CREATE
 <May13-2008> <14:15:50>  Net Charge: 0 (Nuclei minus Electrons)
 <May13-2008> <14:15:50>  Symmetry  : ATOM
 <May13-2008> <14:15:50>  >>>> CORORT
 <May13-2008> <14:15:50>  >>>> FITINT
 <May13-2008> <14:15:50>  >>>> CLSMAT
 <May13-2008> <14:15:50>  >>>> ORTHON
 <May13-2008> <14:15:50>  >>>> CRTP12
 <May13-2008> <14:15:50>  >>>> GENPT
 <May13-2008> <14:15:50>  Acc.Num.Int.=  10.000
 <May13-2008> <14:15:50>  Block Length=  88
 <May13-2008> <14:15:50>  >>>> PTCOR
 <May13-2008> <14:15:51>  >>>> PTBAS
 <May13-2008> <14:15:51>  >>>> CYCLE
 <May13-2008> <14:15:51>    1
 <May13-2008> <14:15:51>    2  ErrMat   0.00641601  MaxEl  0.00245054
 <May13-2008> <14:15:51>    3  ErrMat   0.00716609  MaxEl -0.00271921
 <May13-2008> <14:15:51>    4  ErrMat   0.00007825  MaxEl -0.00002818
 <May13-2008> <14:15:51>    5  ErrMat   0.00000069  MaxEl  0.00000029
 <May13-2008> <14:15:51>    6  ErrMat   0.00000001  MaxEl  0.00000000
 <May13-2008> <14:15:51>  SCF converged
 <May13-2008> <14:15:51>    7  ErrMat   0.00000000  MaxEl  0.00000000
 <May13-2008> <14:15:51>   Solutions with partially occupied orbitals may not be
 <May13-2008> <14:15:51>   lowest in energy. You might consider lowering the
 <May13-2008> <14:15:51>   symmetry in the input and explicitly specifying integer
 <May13-2008> <14:15:51>   occupations. In that case always check that you obtain
 <May13-2008> <14:15:51>   an aufbau solution.
 <May13-2008> <14:15:51>  >>>> COREPS
 <May13-2008> <14:15:51>  >>>> POPAN
 <May13-2008> <14:15:51>  >>>> DEBYE
 <May13-2008> <14:15:51>  NORMAL TERMINATION
 <May13-2008> <14:15:51>  END
 <May13-2008> <14:15:51>  ADF 2004.01  RunTime: May13-2008 14:15:51
 <May13-2008> <14:15:51>  WH6, opt
 <May13-2008> <14:15:51>  RunType   : GEOMETRY OPTIMIZATION
 <May13-2008> <14:15:51>  Net Charge: 0 (Nuclei minus Electrons)
 <May13-2008> <14:15:51>  Spin polar: 0 (Spin_A minus Spin_B electrons)
 <May13-2008> <14:15:51>  Symmetry  : D(3H)
 <May13-2008> <14:15:51>  >>>> FRAGM
  Coordinates in Geometry Cycle 1
    Atom         X           Y           Z   (Angstrom)
    1.W         0.000000    0.000000    0.000000
    2.H         0.914897    1.584649    1.585270
    3.H         0.914897    1.584649   -1.585270
    4.H         0.914897   -1.584649    1.585270
    5.H         0.914897   -1.584649   -1.585270
    6.H        -1.829795    0.000000    1.585270
    7.H        -1.829795    0.000000   -1.585270
 <May13-2008> <14:15:51>  >>>> CORORT
 <May13-2008> <14:15:51>  >>>> FITINT
 <May13-2008> <14:15:51>  >>>> CLSMAT
 <May13-2008> <14:15:51>  >>>> ORTHON
 <May13-2008> <14:15:52>  >>>> CRTP12
 <May13-2008> <14:15:52>  >>>> GENPT
 <May13-2008> <14:15:52>  Acc.Num.Int.=   5.000
 <May13-2008> <14:15:52>  Block Length= 128
 <May13-2008> <14:15:52>  >>>> PTCOR
 <May13-2008> <14:15:53>  >>>> PTBAS
 <May13-2008> <14:15:53>  >>>> CYCLE
 <May13-2008> <14:15:53>    1
 <May13-2008> <14:15:54>    2  ErrMat   0.74140357  MaxEl -0.22705750
 <May13-2008> <14:15:54>    3  ErrMat   1.70829729  MaxEl  0.42912831
 <May13-2008> <14:15:55>    4  ErrMat   1.63064376  MaxEl  0.41556606
 <May13-2008> <14:15:55>    5  ErrMat   0.38756443  MaxEl -0.10006235
 <May13-2008> <14:15:56>    6  ErrMat   0.35080162  MaxEl  0.09547409
 <May13-2008> <14:15:56>    7  ErrMat   0.24956123  MaxEl  0.06760367
 <May13-2008> <14:15:57>    8  ErrMat   0.03647495  MaxEl  0.01016601
 <May13-2008> <14:15:57>    9  ErrMat   0.00961677  MaxEl -0.00273591
 <May13-2008> <14:15:57>   10  ErrMat   0.00025468  MaxEl -0.00007792
 <May13-2008> <14:15:57>  SCF converged
 <May13-2008> <14:15:58>   11  ErrMat   0.00007187  MaxEl  0.00002122
 <May13-2008> <14:15:58>  >>>> TOTEN
 <May13-2008> <14:15:59>  >>>> POPAN
 <May13-2008> <14:15:59>  >>>> DEBYE
 <May13-2008> <14:15:59>  >>>> AMETS
 <May13-2008> <14:15:59>  >>>> FOCKC
 <May13-2008> <14:16:00>  >>>> ENGRAD
 <May13-2008> <14:16:01>  E-test:  old,new=   0.00000,  -0.64276 hartree
 <May13-2008> <14:16:01>  max gradient:      0.06794701 au/angstrom,radian
 <May13-2008> <14:16:01>  max cart. step:    0.12992573 angstrom
  Coordinates in Geometry Cycle 2
    Atom         X           Y           Z   (Angstrom)
    1.W         0.000000    0.000000    0.000000
    2.H         0.849935    1.472130    1.475718
    3.H         0.849935    1.472130   -1.475718
    4.H         0.849935   -1.472130    1.475718
    5.H         0.849935   -1.472130   -1.475718
    6.H        -1.699869    0.000000    1.475718
    7.H        -1.699869    0.000000   -1.475718
 <May13-2008> <14:16:02>  >>>> CORORT
 <May13-2008> <14:16:02>  >>>> FITINT
 <May13-2008> <14:16:02>  >>>> CLSMAT
 <May13-2008> <14:16:02>  >>>> ORTHON
 <May13-2008> <14:16:02>  >>>> GENPT
 <May13-2008> <14:16:02>  Acc.Num.Int.=   3.296
 <May13-2008> <14:16:02>  Block Length= 127
 <May13-2008> <14:16:02>  >>>> PTCOR
 <May13-2008> <14:16:02>  >>>> PTBAS
 <May13-2008> <14:16:02>  >>>> CYCLE
 <May13-2008> <14:16:03>    1
 <May13-2008> <14:16:03>    2  ErrMat   0.37939633  MaxEl -0.11131566
 <May13-2008> <14:16:03>    3  ErrMat   0.30225480  MaxEl  0.08010972
 <May13-2008> <14:16:03>    4  ErrMat   0.09319227  MaxEl  0.02625351
 <May13-2008> <14:16:04>    5  ErrMat   0.00307421  MaxEl  0.00083683
 <May13-2008> <14:16:04>    6  ErrMat   0.00277477  MaxEl  0.00076331
 <May13-2008> <14:16:04>    7  ErrMat   0.00031653  MaxEl  0.00008893
 <May13-2008> <14:16:04>  SCF converged
 <May13-2008> <14:16:04>    8  ErrMat   0.00001431  MaxEl -0.00000393
 <May13-2008> <14:16:04>  >>>> TOTEN
 <May13-2008> <14:16:05>  >>>> POPAN
 <May13-2008> <14:16:05>  >>>> DEBYE
 <May13-2008> <14:16:05>  >>>> AMETS
 <May13-2008> <14:16:05>  >>>> FOCKC
 <May13-2008> <14:16:06>  >>>> ENGRAD
 <May13-2008> <14:16:06>  E-test:  old,new=  -0.64276,  -0.73454 hartree
 <May13-2008> <14:16:06>  max gradient:      0.06766851 au/angstrom,radian
 <May13-2008> <14:16:06>  max cart. step:    0.12691767 angstrom
  Coordinates in Geometry Cycle 3
    Atom         X           Y           Z   (Angstrom)
    1.W         0.000000    0.000000    0.000000
    2.H         0.786476    1.362216    1.362651
    3.H         0.786476    1.362216   -1.362651
    4.H         0.786476   -1.362216    1.362651
    5.H         0.786476   -1.362216   -1.362651
    6.H        -1.572951    0.000000    1.362651
    7.H        -1.572951    0.000000   -1.362651
 <May13-2008> <14:16:06>  >>>> CORORT
 <May13-2008> <14:16:06>  >>>> FITINT
 <May13-2008> <14:16:06>  >>>> CLSMAT
 <May13-2008> <14:16:06>  >>>> ORTHON
 <May13-2008> <14:16:06>  >>>> GENPT
 <May13-2008> <14:16:06>  Acc.Num.Int.=   3.395
 <May13-2008> <14:16:06>  Block Length= 126
 <May13-2008> <14:16:07>  >>>> PTCOR
 <May13-2008> <14:16:07>  >>>> PTBAS
 <May13-2008> <14:16:07>  >>>> CYCLE
 <May13-2008> <14:16:07>    1
 <May13-2008> <14:16:07>    2  ErrMat   0.36971611  MaxEl -0.10749207
 <May13-2008> <14:16:08>    3  ErrMat   0.13450292  MaxEl  0.03462211
 <May13-2008> <14:16:08>    4  ErrMat   0.04878285  MaxEl  0.01390406
 <May13-2008> <14:16:08>    5  ErrMat   0.00368531  MaxEl  0.00092022
 <May13-2008> <14:16:08>    6  ErrMat   0.00096284  MaxEl  0.00025662
 <May13-2008> <14:16:08>  SCF converged
 <May13-2008> <14:16:09>    7  ErrMat   0.00009376  MaxEl  0.00002610
 <May13-2008> <14:16:09>  >>>> TOTEN
 <May13-2008> <14:16:09>  >>>> POPAN
 <May13-2008> <14:16:09>  >>>> DEBYE
 <May13-2008> <14:16:09>  >>>> AMETS
 <May13-2008> <14:16:09>  >>>> FOCKC
 <May13-2008> <14:16:10>  >>>> ENGRAD
 <May13-2008> <14:16:10>  E-test:  old,new=  -0.73454,  -0.82165 hartree
 <May13-2008> <14:16:10>  max gradient:      0.05918598 au/angstrom,radian
 <May13-2008> <14:16:10>  max cart. step:    0.15000000 angstrom
  Coordinates in Geometry Cycle 4
    Atom         X           Y           Z   (Angstrom)
    1.W         0.000000    0.000000    0.000000
    2.H         0.737194    1.276857    1.212651
    3.H         0.737194    1.276857   -1.212651
    4.H         0.737194   -1.276857    1.212651
    5.H         0.737194   -1.276857   -1.212651
    6.H        -1.474387    0.000000    1.212651
    7.H        -1.474387    0.000000   -1.212651
 <May13-2008> <14:16:10>  >>>> CORORT
 <May13-2008> <14:16:10>  >>>> FITINT
 <May13-2008> <14:16:10>  >>>> CLSMAT
 <May13-2008> <14:16:10>  >>>> ORTHON
 <May13-2008> <14:16:10>  >>>> GENPT
 <May13-2008> <14:16:10>  Acc.Num.Int.=   3.497
 <May13-2008> <14:16:11>  Block Length= 126
 <May13-2008> <14:16:11>  >>>> PTCOR
 <May13-2008> <14:16:11>  >>>> PTBAS
 <May13-2008> <14:16:11>  >>>> CYCLE
 <May13-2008> <14:16:11>    1
 <May13-2008> <14:16:12>    2  ErrMat   0.36343883  MaxEl -0.10376551
 <May13-2008> <14:16:12>    3  ErrMat   0.01583468  MaxEl  0.00472525
 <May13-2008> <14:16:12>    4  ErrMat   0.02473810  MaxEl  0.00706350
 <May13-2008> <14:16:12>    5  ErrMat   0.00189045  MaxEl  0.00054049
 <May13-2008> <14:16:13>    6  ErrMat   0.00042285  MaxEl -0.00011123
 <May13-2008> <14:16:13>  SCF converged
 <May13-2008> <14:16:13>    7  ErrMat   0.00004975  MaxEl  0.00001378
 <May13-2008> <14:16:13>  >>>> TOTEN
 <May13-2008> <14:16:13>  >>>> POPAN
 <May13-2008> <14:16:13>  >>>> DEBYE
 <May13-2008> <14:16:13>  >>>> AMETS
 <May13-2008> <14:16:14>  >>>> FOCKC
 <May13-2008> <14:16:14>  >>>> ENGRAD
 <May13-2008> <14:16:15>  E-test:  old,new=  -0.82165,  -0.88925 hartree
 <May13-2008> <14:16:15>  max gradient:      0.03733863 au/angstrom,radian
 <May13-2008> <14:16:15>  max cart. step:    0.12449348 angstrom
  Coordinates in Geometry Cycle 5
    Atom         X           Y           Z   (Angstrom)
    1.W         0.000000    0.000000    0.000000
    2.H         0.674947    1.169042    1.130321
    3.H         0.674947    1.169042   -1.130321
    4.H         0.674947   -1.169042    1.130321
    5.H         0.674947   -1.169042   -1.130321
    6.H        -1.349894    0.000000    1.130321
    7.H        -1.349894    0.000000   -1.130321
 <May13-2008> <14:16:15>  >>>> CORORT
 <May13-2008> <14:16:15>  >>>> FITINT
 <May13-2008> <14:16:15>  >>>> CLSMAT
 <May13-2008> <14:16:15>  >>>> ORTHON
 <May13-2008> <14:16:15>  >>>> GENPT
 <May13-2008> <14:16:15>  Acc.Num.Int.=   3.601
 <May13-2008> <14:16:15>  Block Length= 124
 <May13-2008> <14:16:15>  >>>> PTCOR
 <May13-2008> <14:16:15>  >>>> PTBAS
 <May13-2008> <14:16:16>  >>>> CYCLE
 <May13-2008> <14:16:16>    1
 <May13-2008> <14:16:16>    2  ErrMat   0.31148992  MaxEl -0.08663741
 <May13-2008> <14:16:16>    3  ErrMat   0.04935417  MaxEl -0.01489413
 <May13-2008> <14:16:17>    4  ErrMat   0.01200673  MaxEl  0.00356539
 <May13-2008> <14:16:17>    5  ErrMat   0.00016504  MaxEl  0.00003913
 <May13-2008> <14:16:17>  SCF converged
 <May13-2008> <14:16:17>    6  ErrMat   0.00000936  MaxEl  0.00000251
 <May13-2008> <14:16:17>  >>>> TOTEN
 <May13-2008> <14:16:18>  >>>> POPAN
 <May13-2008> <14:16:18>  >>>> DEBYE
 <May13-2008> <14:16:18>  >>>> AMETS
 <May13-2008> <14:16:18>  >>>> FOCKC
 <May13-2008> <14:16:18>  >>>> ENGRAD
 <May13-2008> <14:16:19>  E-test:  old,new=  -0.88925,  -0.90996 hartree
 <May13-2008> <14:16:19>  max gradient:      0.00544253 au/angstrom,radian
 <May13-2008> <14:16:19>  max cart. step:    0.01729797 angstrom
  Coordinates in Geometry Cycle 6
    Atom         X           Y           Z   (Angstrom)
    1.W         0.000000    0.000000    0.000000
    2.H         0.683596    1.184023    1.137285
    3.H         0.683596    1.184023   -1.137285
    4.H         0.683596   -1.184023    1.137285
    5.H         0.683596   -1.184023   -1.137285
    6.H        -1.367192    0.000000    1.137285
    7.H        -1.367192    0.000000   -1.137285
 <May13-2008> <14:16:19>  >>>> CORORT
 <May13-2008> <14:16:19>  >>>> FITINT
 <May13-2008> <14:16:19>  >>>> CLSMAT
 <May13-2008> <14:16:19>  >>>> ORTHON
 <May13-2008> <14:16:19>  >>>> GENPT
 <May13-2008> <14:16:19>  Acc.Num.Int.=   4.432
 <May13-2008> <14:16:19>  Block Length= 127
 <May13-2008> <14:16:19>  >>>> PTCOR
 <May13-2008> <14:16:19>  >>>> PTBAS
 <May13-2008> <14:16:20>  >>>> CYCLE
 <May13-2008> <14:16:20>    1
 <May13-2008> <14:16:21>    2  ErrMat   0.05504805  MaxEl  0.01484311
 <May13-2008> <14:16:21>    3  ErrMat   0.00484808  MaxEl  0.00153763
 <May13-2008> <14:16:21>    4  ErrMat   0.00201452  MaxEl -0.00060745
 <May13-2008> <14:16:22>    5  ErrMat   0.00003482  MaxEl  0.00000883
 <May13-2008> <14:16:22>  SCF converged
 <May13-2008> <14:16:22>    6  ErrMat   0.00001456  MaxEl  0.00000385
 <May13-2008> <14:16:22>  >>>> TOTEN
 <May13-2008> <14:16:23>  >>>> POPAN
 <May13-2008> <14:16:23>  >>>> DEBYE
 <May13-2008> <14:16:23>  >>>> AMETS
 <May13-2008> <14:16:23>  >>>> FOCKC
 <May13-2008> <14:16:24>  >>>> ENGRAD
 <May13-2008> <14:16:24>  E-test:  old,new=  -0.90996,  -0.91044 hartree
 <May13-2008> <14:16:24>  max gradient:      0.00149534 au/angstrom,radian
 <May13-2008> <14:16:24>  max cart. step:    0.00720690 angstrom
 <May13-2008> <14:16:24>  Geometry Converged
  Coordinates in Geometry Cycle 7
    Atom         X           Y           Z   (Angstrom)
    1.W         0.000000    0.000000    0.000000
    2.H         0.683909    1.184566    1.130078
    3.H         0.683909    1.184566   -1.130078
    4.H         0.683909   -1.184566    1.130078
    5.H         0.683909   -1.184566   -1.130078
    6.H        -1.367819    0.000000    1.130078
    7.H        -1.367819    0.000000   -1.130078
 <May13-2008> <14:16:24>  >>>> CORORT
 <May13-2008> <14:16:24>  >>>> FITINT
 <May13-2008> <14:16:24>  >>>> CLSMAT
 <May13-2008> <14:16:24>  >>>> ORTHON
 <May13-2008> <14:16:24>  >>>> GENPT
 <May13-2008> <14:16:24>  Acc.Num.Int.=   5.000
 <May13-2008> <14:16:25>  Block Length= 126
 <May13-2008> <14:16:25>  >>>> PTCOR
 <May13-2008> <14:16:25>  >>>> PTBAS
 <May13-2008> <14:16:26>  >>>> CYCLE
 <May13-2008> <14:16:26>    1
 <May13-2008> <14:16:26>    2  ErrMat   0.01456334  MaxEl -0.00384934
 <May13-2008> <14:16:27>    3  ErrMat   0.00151144  MaxEl  0.00043826
 <May13-2008> <14:16:27>    4  ErrMat   0.00084234  MaxEl -0.00023648
 <May13-2008> <14:16:28>    5  ErrMat   0.00001210  MaxEl -0.00000438
 <May13-2008> <14:16:28>    6  ErrMat   0.00000401  MaxEl  0.00000112
 <May13-2008> <14:16:29>    7  ErrMat   0.00000066  MaxEl -0.00000017
 <May13-2008> <14:16:29>  SCF converged
 <May13-2008> <14:16:29>    8  ErrMat   0.00000005  MaxEl  0.00000001
 <May13-2008> <14:16:29>  >>>> COREPS
 <May13-2008> <14:16:29>  >>>> TOTEN
 <May13-2008> <14:16:30>  >>>> POPAN
 <May13-2008> <14:16:30>  >>>> DEBYE
 <May13-2008> <14:16:30>  >>>> AMETS
 <May13-2008> <14:16:30>  >>>> POPUL
 <May13-2008> <14:16:31>   Bond Energy LDA      -0.94976637 a.u.
 <May13-2008> <14:16:31>   Bond Energy LDA     -25.84446833 eV
 <May13-2008> <14:16:31>           + GGA-X      -0.87528318 a.u.
 <May13-2008> <14:16:31>           + GGA-X     -23.81767698 eV
 <May13-2008> <14:16:31>          + GGA-XC      -0.91047444 a.u.
 <May13-2008> <14:16:31>          + GGA-XC     -24.77528024 eV
 <May13-2008> <14:16:31>  NORMAL TERMINATION
 <May13-2008> <14:16:31>  END
